<event>
12    5  0.5041746E-008  0.1715366E+04  0.7818608E-02  0.8752649E-01
          1   -1    0    0  501    0  0.00000000000E+00  0.00000000000E+00  0.50330326318E+03  0.50330326318E+03  0.00000000000E+00 0. -1.
         -2   -1    0    0    0  501 -0.00000000000E+00 -0.00000000000E+00 -0.14615845536E+04  0.14615845536E+04  0.00000000000E+00 0.  1.
        -24    2    1    2    0    0  0.28336974968E+03  0.36276908508E+03 -0.82431290170E+03  0.94772149122E+03  0.82367717551E+02 0.  0.
        254    2    1    2    0    0 -0.28336974968E+03 -0.36276908508E+03 -0.13396838877E+03  0.10171663256E+04  0.89709530187E+03 0.  0.
         23    2    4    4    0    0 -0.33745757750E+03 -0.39774778225E+03  0.27209805048E+03  0.59529023045E+03  0.90841590089E+02 0.  0.
         23    2    4    4    0    0  0.54087827823E+02  0.34978697173E+02 -0.40606643925E+03  0.42187609516E+03  0.94554133744E+02 0.  0.
          1    1    3    3  502    0  0.11788738230E+02  0.57653290190E+02 -0.11577495510E+03  0.12987192324E+03  0.00000000000E+00 0. -1.
         -2    1    3    3    0  502  0.27158101145E+03  0.30511579489E+03 -0.70853794660E+03  0.81784956798E+03  0.00000000000E+00 0.  1.
         13    1    5    5    0    0 -0.21498211174E+03 -0.31544495489E+03  0.20293100533E+03  0.43232374542E+03  0.00000000000E+00 0.  1.
        -13    1    5    5    0    0 -0.12247546577E+03 -0.82302827366E+02  0.69167045146E+02  0.16296648502E+03  0.00000000000E+00 0. -1.
          2    1    6    6  503    0  0.53884297401E+02 -0.87400655609E+01 -0.32702113918E+03  0.33154597227E+03  0.00000000000E+00 0.  1.
         -2    1    6    6    0  503  0.20353042133E+00  0.43718762734E+02 -0.79045300065E+02  0.90330122894E+02  0.00000000000E+00 0. -1.
<mgrwt>
<rscale>  0 0.17153662E+04</rscale>
<asrwt>0</asrwt>
<pdfrwt beam="1">  1        1 0.77431273E-01 0.17153662E+04</pdfrwt>
<pdfrwt beam="2">  1       -2 0.22485916E+00 0.17153662E+04</pdfrwt>
<totfact> 0.33612821E+00</totfact>
</mgrwt>
</event>
<event>
12    5  0.5041746E-008  0.2622501E+04  0.7818608E-02  0.8360598E-01
          1   -1    0    0  501    0  0.00000000000E+00  0.00000000000E+00  0.96261614096E+03  0.96261614096E+03  0.00000000000E+00 0. -1.
         -2   -1    0    0    0  501 -0.00000000000E+00 -0.00000000000E+00 -0.17861515921E+04  0.17861515921E+04  0.00000000000E+00 0.  1.
        -24    2    1    2    0    0 -0.10859332021E+04 -0.61157745326E+02 -0.76907635641E+03  0.13345145038E+04  0.80369955545E+02 0.  0.
        254    2    1    2    0    0  0.10859332021E+04  0.61157745326E+02 -0.54459094765E+02  0.14142532293E+04  0.90230549948E+03 0.  0.
         23    2    4    4    0    0  0.11837614612E+04 -0.10942985829E+03 -0.81824381278E+02  0.11951886510E+04  0.92274542780E+02 0.  0.
         23    2    4    4    0    0 -0.97828259176E+02  0.17058760362E+03  0.27365286513E+02  0.21906457823E+03  0.92573925750E+02 0.  0.
          3    1    3    3  502    0 -0.63201296955E+03 -0.71776442590E+01 -0.41222055065E+03  0.75459770384E+03  0.00000000000E+00 0. -1.
         -4    1    3    3    0  502 -0.45392023250E+03 -0.53980101067E+02 -0.35685580576E+03  0.57991679997E+03  0.00000000000E+00 0.  1.
         13    1    5    5    0    0  0.84883072751E+02 -0.25115626000E+02  0.10886904795E+02  0.89187753672E+02  0.00000000000E+00 0.  1.
        -13    1    5    5    0    0  0.10988783885E+04 -0.84314232292E+02 -0.92711286073E+02  0.11060008974E+04  0.00000000000E+00 0. -1.
          2    1    6    6  503    0 -0.10641894398E+03  0.15634717516E+03  0.45432265491E+02  0.19450841001E+03  0.00000000000E+00 0. -1.
         -2    1    6    6    0  503  0.85906848080E+01  0.14240428461E+02 -0.18066978978E+02  0.24556168219E+02  0.00000000000E+00 0.  1.
<mgrwt>
<rscale>  0 0.26225014E+04</rscale>
<asrwt>0</asrwt>
<pdfrwt beam="1">  1        1 0.14809479E+00 0.26225014E+04</pdfrwt>
<pdfrwt beam="2">  1       -2 0.27479255E+00 0.26225014E+04</pdfrwt>
<totfact> 0.56574482E-01</totfact>
</mgrwt>
</event>
<event>
12    5  0.5041746E-008  0.1907778E+04  0.7818608E-02  0.8650995E-01
         -2   -1    0    0    0  501 -0.00000000000E+00  0.00000000000E+00  0.91934373520E+03  0.91934373520E+03  0.00000000000E+00 0.  1.
          1   -1    0    0  501    0  0.00000000000E+00 -0.00000000000E+00 -0.98973193325E+03  0.98973193325E+03  0.00000000000E+00 0. -1.
        -24    2    1    2    0    0  0.42119871383E+03 -0.32844080647E+03  0.48099489256E+03  0.72307637153E+03  0.78750444529E+02 0.  0.
        254    2    1    2    0    0 -0.42119871383E+03  0.32844080647E+03 -0.55138309061E+03  0.11859992969E+04  0.90404054102E+03 0.  0.
         23    2    4    4    0    0  0.10164873487E+03  0.45485340624E+02  0.18589687549E+03  0.23454147926E+03  0.89725557464E+02 0.  0.
         23    2    4    4    0    0 -0.52284744870E+03  0.28295546585E+03 -0.73727996610E+03  0.95145781766E+03  0.90867926781E+02 0.  0.
          3    1    3    3  502    0  0.18954992095E+02 -0.25202915265E+02  0.90768966949E+01  0.32815677911E+02  0.00000000000E+00 0. -1.
         -4    1    3    3    0  502  0.40224372174E+03 -0.30323789121E+03  0.47191799586E+03  0.69026069362E+03  0.00000000000E+00 0.  1.
         13    1    5    5    0    0  0.14283491284E+01  0.40822434221E+02  0.37758152272E+02  0.55625438245E+02  0.00000000000E+00 0. -1.
        -13    1    5    5    0    0  0.10022038574E+03  0.46629064030E+01  0.14813872322E+03  0.17891604101E+03  0.00000000000E+00 0.  1.
          2    1    6    6  503    0 -0.17751030939E+03  0.48608703086E+02 -0.22231475879E+03  0.28861144803E+03  0.00000000000E+00 0. -1.
         -2    1    6    6    0  503 -0.34533713931E+03  0.23434676276E+03 -0.51496520731E+03  0.66284636964E+03  0.00000000000E+00 0.  1.
<mgrwt>
<rscale>  0 0.19077776E+04</rscale>
<asrwt>0</asrwt>
<pdfrwt beam="1">  1        1 0.15226645E+00 0.19077776E+04</pdfrwt>
<pdfrwt beam="2">  1       -2 0.14143750E+00 0.19077776E+04</pdfrwt>
<totfact> 0.44180635E+00</totfact>
</mgrwt>
</event>
<event>
12    5  0.5041746E-008  0.1674544E+04  0.7818608E-02  0.8776018E-01
          1   -1    0    0  501    0  0.00000000000E+00  0.00000000000E+00  0.50641455688E+03  0.50641455688E+03  0.00000000000E+00 0. -1.
         -2   -1    0    0    0  501 -0.00000000000E+00 -0.00000000000E+00 -0.13842894055E+04  0.13842894055E+04  0.00000000000E+00 0.  1.
        -24    2    1    2    0    0 -0.39368237752E+03  0.23146078852E+03 -0.73434374331E+03  0.86849119886E+03  0.80351217603E+02 0.  0.
        254    2    1    2    0    0  0.39368237752E+03 -0.23146078852E+03 -0.14353110531E+03  0.10222127635E+04  0.90319313809E+03 0.  0.
         23    2    4    4    0    0  0.62122429806E+03 -0.18438871789E+03  0.11288611277E+03  0.66452618192E+03  0.94514254025E+02 0.  0.
         23    2    4    4    0    0 -0.22754192055E+03 -0.47072070626E+02 -0.25641721807E+03  0.35768658159E+03  0.90547200310E+02 0.  0.
          1    1    3    3  502    0 -0.26991302345E+01  0.11683124184E+01  0.20028701175E+01  0.35583348125E+01  0.00000000000E+00 0. -1.
         -2    1    3    3    0  502 -0.39098324728E+03  0.23029247610E+03 -0.73634661342E+03  0.86493286404E+03  0.00000000000E+00 0.  1.
         13    1    5    5    0    0  0.59795380014E+03 -0.17675034052E+03  0.12689456809E+03  0.63631097852E+03  0.00000000000E+00 0. -1.
        -13    1    5    5    0    0  0.23270497925E+02 -0.76383773699E+01 -0.14008455321E+02  0.28215203402E+02  0.00000000000E+00 0.  1.
          3    1    6    6  503    0 -0.23409358051E+03 -0.53512962951E+02 -0.24838492507E+03  0.34548301354E+03  0.00000000000E+00 0. -1.
         -3    1    6    6    0  503  0.65516599656E+01  0.64408923255E+01 -0.80322930037E+01  0.12203568050E+02  0.00000000000E+00 0.  1.
<mgrwt>
<rscale>  0 0.16745439E+04</rscale>
<asrwt>0</asrwt>
<pdfrwt beam="1">  1        1 0.77909933E-01 0.16745439E+04</pdfrwt>
<pdfrwt beam="2">  1       -2 0.21296760E+00 0.16745439E+04</pdfrwt>
<totfact> 0.39783664E+00</totfact>
</mgrwt>
</event>
<event>
12    5  0.5041746E-008  0.1451878E+04  0.7818608E-02  0.8917100E-01
         -2   -1    0    0    0  501 -0.00000000000E+00  0.00000000000E+00  0.11436906117E+04  0.11436906117E+04  0.00000000000E+00 0.  1.
          1   -1    0    0  501    0  0.00000000000E+00 -0.00000000000E+00 -0.46077797860E+03  0.46077797860E+03  0.00000000000E+00 0. -1.
        -24    2    1    2    0    0 -0.58873466765E+02  0.36400747255E+03 -0.53124597700E+02  0.38127755323E+03  0.81134607613E+02 0.  0.
        254    2    1    2    0    0  0.58873466765E+02 -0.36400747255E+03  0.73603723080E+03  0.12231910371E+04  0.90469773012E+03 0.  0.
         23    2    4    4    0    0 -0.15451914732E+03  0.16652962389E+03  0.57019985986E+03  0.62074383733E+03  0.92664712124E+02 0.  0.
         23    2    4    4    0    0  0.21339261409E+03 -0.53053709644E+03  0.16583737093E+03  0.60244719974E+03  0.91839950053E+02 0.  0.
          1    1    3    3  502    0 -0.19470721508E+02  0.30323174283E+03 -0.55138364991E+02  0.30881845500E+03  0.00000000000E+00 0. -1.
         -2    1    3    3    0  502 -0.39402745257E+02  0.60775729717E+02  0.20137672916E+01  0.72459098222E+02  0.00000000000E+00 0.  1.
         13    1    5    5    0    0 -0.11746757922E+03  0.17027242523E+03  0.45863141494E+03  0.50312434421E+03  0.00000000000E+00 0.  1.
        -13    1    5    5    0    0 -0.37051568101E+02 -0.37428013374E+01  0.11156844492E+03  0.11761949312E+03  0.00000000000E+00 0. -1.
          4    1    6    6  503    0 -0.64069610312E+01 -0.40512455327E+02  0.24826650040E+01  0.41091018627E+02  0.00000000000E+00 0. -1.
         -4    1    6    6    0  503  0.21979957512E+03 -0.49002464111E+03  0.16335470593E+03  0.56135618111E+03  0.00000000000E+00 0.  1.
<mgrwt>
<rscale>  0 0.14518780E+04</rscale>
<asrwt>0</asrwt>
<pdfrwt beam="1">  1        1 0.70888920E-01 0.14518780E+04</pdfrwt>
<pdfrwt beam="2">  1       -2 0.17595240E+00 0.14518780E+04</pdfrwt>
<totfact> 0.81363703E+00</totfact>
</mgrwt>
</event>
<event>
12    5  0.5041746E-008  0.2365581E+04  0.7818608E-02  0.8452503E-01
          1   -1    0    0  501    0  0.00000000000E+00  0.00000000000E+00  0.12914820958E+04  0.12914820958E+04  0.00000000000E+00 0. -1.
         -2   -1    0    0    0  501 -0.00000000000E+00 -0.00000000000E+00 -0.10832463768E+04  0.10832463768E+04  0.00000000000E+00 0.  1.
        -24    2    1    2    0    0 -0.39566048910E+03  0.11307849222E+03 -0.83781940177E+03  0.93692268133E+03  0.80924611606E+02 0.  0.
        254    2    1    2    0    0  0.39566048910E+03 -0.11307849222E+03  0.10460551208E+04  0.14378057912E+04  0.89650443917E+03 0.  0.
         23    2    4    4    0    0  0.18464322910E+03  0.35982179292E+03  0.67871553898E+03  0.79498910005E+03  0.88249881793E+02 0.  0.
         23    2    4    4    0    0  0.21101726000E+03 -0.47290028514E+03  0.36733958179E+03  0.64281669114E+03  0.10055827345E+03 0.  0.
          1    1    3    3  502    0 -0.18670101323E+03  0.90047094410E+02 -0.46025490949E+03  0.50477750471E+03  0.00000000000E+00 0. -1.
         -2    1    3    3    0  502 -0.20895947587E+03  0.23031397809E+02 -0.37756449228E+03  0.43214517661E+03  0.00000000000E+00 0.  1.
         13    1    5    5    0    0  0.17567294327E+03  0.36388649795E+03  0.66392060896E+03  0.77721614843E+03  0.00000000000E+00 0. -1.
        -13    1    5    5    0    0  0.89702858249E+01 -0.40647050329E+01  0.14794930023E+02  0.17772951617E+02  0.00000000000E+00 0.  1.
          1    1    6    6  503    0  0.22025188232E+03 -0.44499109884E+03  0.35745420798E+03  0.61180183108E+03  0.00000000000E+00 0. -1.
         -1    1    6    6    0  503 -0.92346223201E+01 -0.27909186297E+02  0.98853738135E+01  0.31014860061E+02  0.00000000000E+00 0.  1.
<mgrwt>
<rscale>  0 0.23655809E+04</rscale>
<asrwt>0</asrwt>
<pdfrwt beam="1">  1        1 0.19868956E+00 0.23655809E+04</pdfrwt>
<pdfrwt beam="2">  1       -2 0.16665329E+00 0.23655809E+04</pdfrwt>
<totfact> 0.16297407E+00</totfact>
</mgrwt>
</event>
<event>
12    5  0.5041746E-008  0.1504488E+04  0.7818608E-02  0.8881474E-01
          1   -1    0    0  501    0  0.00000000000E+00  0.00000000000E+00  0.53119784274E+03  0.53119784274E+03  0.00000000000E+00 0. -1.
         -2   -1    0    0    0  501 -0.00000000000E+00 -0.00000000000E+00 -0.10652739762E+04  0.10652739762E+04  0.00000000000E+00 0.  1.
        -24    2    1    2    0    0  0.23766281199E+03  0.27736391349E+03  0.15451452371E+03  0.40421566090E+03  0.78110241125E+02 0.  0.
        254    2    1    2    0    0 -0.23766281199E+03 -0.27736391349E+03 -0.68859065714E+03  0.11922561580E+04  0.90216589410E+03 0.  0.
         23    2    4    4    0    0  0.21367280257E+02 -0.55705640704E+03 -0.29246607730E+03  0.63604361264E+03  0.90811175132E+02 0.  0.
         23    2    4    4    0    0 -0.25903009224E+03  0.27969249354E+03 -0.39612457984E+03  0.55621254536E+03  0.84458470420E+02 0.  0.
          1    1    3    3  502    0  0.18055221676E+03  0.21648544639E+03  0.81830446957E+02  0.29353240626E+03  0.00000000000E+00 0. -1.
         -2    1    3    3    0  502  0.57110595226E+02  0.60878467106E+02  0.72684076755E+02  0.11068325464E+03  0.00000000000E+00 0.  1.
         13    1    5    5    0    0 -0.24831541983E+02 -0.97713188666E+02 -0.30973868174E+02  0.10546967918E+03  0.00000000000E+00 0. -1.
        -13    1    5    5    0    0  0.46198822240E+02 -0.45934321837E+03 -0.26149220912E+03  0.53057393346E+03  0.00000000000E+00 0.  1.
          4    1    6    6  503    0 -0.41872824741E+02  0.64271806949E+02 -0.39180225158E+02  0.86135292788E+02  0.00000000000E+00 0. -1.
         -4    1    6    6    0  503 -0.21715726750E+03  0.21542068660E+03 -0.35694435469E+03  0.47007725257E+03  0.00000000000E+00 0.  1.
<mgrwt>
<rscale>  0 0.15044883E+04</rscale>
<asrwt>0</asrwt>
<pdfrwt beam="1">  1        1 0.81722746E-01 0.15044883E+04</pdfrwt>
<pdfrwt beam="2">  1       -2 0.16388830E+00 0.15044883E+04</pdfrwt>
<totfact> 0.81209002E+00</totfact>
</mgrwt>
</event>
<event>
12    5  0.5041746E-008  0.2144015E+04  0.7818608E-02  0.8542098E-01
          1   -1    0    0  501    0  0.00000000000E+00  0.00000000000E+00  0.50708235316E+03  0.50708235316E+03  0.00000000000E+00 0. -1.
         -2   -1    0    0    0  501 -0.00000000000E+00 -0.00000000000E+00 -0.22662995312E+04  0.22662995312E+04  0.00000000000E+00 0.  1.
        -24    2    1    2    0    0 -0.68238234035E+03 -0.16146294047E+03 -0.13918258021E+04  0.15605304624E+04  0.79751622029E+02 0.  0.
        254    2    1    2    0    0  0.68238234035E+03  0.16146294047E+03 -0.36739137594E+03  0.12128514219E+04  0.91886680699E+03 0.  0.
         23    2    4    4    0    0  0.34339945386E+03  0.39282068557E+02  0.28953489727E+03  0.45788902549E+03  0.79784942852E+02 0.  0.
         23    2    4    4    0    0  0.33898288649E+03  0.12218087192E+03 -0.65692627320E+03  0.75496239644E+03  0.92620347754E+02 0.  0.
          3    1    3    3  502    0 -0.12965299686E+03 -0.17142930224E+02 -0.20147517398E+03  0.24019996957E+03  0.00000000000E+00 0. -1.
         -4    1    3    3    0  502 -0.55272934350E+03 -0.14432001025E+03 -0.11903506281E+04  0.13203304929E+04  0.00000000000E+00 0.  1.
         13    1    5    5    0    0  0.10287009470E+03 -0.22169623902E+02  0.69094464707E+02  0.12588802032E+03  0.00000000000E+00 0. -1.
        -13    1    5    5    0    0  0.24052935916E+03  0.61451692458E+02  0.22044043256E+03  0.33200100516E+03  0.00000000000E+00 0.  1.
          4    1    6    6  503    0  0.19415731293E+03  0.11227506457E+03 -0.44132718224E+03  0.49504791089E+03  0.00000000000E+00 0. -1.
         -4    1    6    6    0  503  0.14482557356E+03  0.99058073432E+01 -0.21559909096E+03  0.25991448555E+03  0.00000000000E+00 0.  1.
<mgrwt>
<rscale>  0 0.21440154E+04</rscale>
<asrwt>0</asrwt>
<pdfrwt beam="1">  1        1 0.78012670E-01 0.21440154E+04</pdfrwt>
<pdfrwt beam="2">  1       -2 0.34866147E+00 0.21440154E+04</pdfrwt>
<totfact> 0.55407074E-01</totfact>
</mgrwt>
</event>
<event>
12    5  0.5041746E-008  0.1154834E+04  0.7818608E-02  0.9153336E-01
          1   -1    0    0  501    0  0.00000000000E+00  0.00000000000E+00  0.68534739687E+03  0.68534739687E+03  0.00000000000E+00 0. -1.
         -2   -1    0    0    0  501 -0.00000000000E+00 -0.00000000000E+00 -0.48648364128E+03  0.48648364128E+03  0.00000000000E+00 0.  1.
        -24    2    1    2    0    0 -0.27171362151E+02 -0.12943611513E+03 -0.13504288629E+03  0.20475488621E+03  0.78714620404E+02 0.  0.
        254    2    1    2    0    0  0.27171362151E+02  0.12943611513E+03  0.33390664189E+03  0.96707615194E+03  0.89791461027E+03 0.  0.
         23    2    4    4    0    0 -0.18048177293E+03 -0.32292388891E+03  0.46555425097E+02  0.38407918859E+03  0.92173245124E+02 0.  0.
         23    2    4    4    0    0  0.20765313508E+03  0.45236000404E+03  0.28735121679E+03  0.58299696335E+03  0.97802554747E+02 0.  0.
          1    1    3    3  502    0  0.16075058304E+02 -0.57145893102E+02 -0.20989472439E+02  0.62965216995E+02  0.00000000000E+00 0. -1.
         -2    1    3    3    0  502 -0.43246420455E+02 -0.72290222030E+02 -0.11405341386E+03  0.14178966921E+03  0.00000000000E+00 0.  1.
         13    1    5    5    0    0 -0.14883251321E+03 -0.31163972043E+03  0.30098038747E+02  0.34666457026E+03  0.00000000000E+00 0. -1.
        -13    1    5    5    0    0 -0.31649259725E+02 -0.11284168474E+02  0.16457386350E+02  0.37414618330E+02  0.00000000000E+00 0.  1.
          1    1    6    6  503    0  0.21277500383E+03  0.39230956282E+03  0.26277750944E+03  0.51791120359E+03  0.00000000000E+00 0. -1.
         -1    1    6    6    0  503 -0.51218687495E+01  0.60050441218E+02  0.24573707349E+02  0.65085759754E+02  0.00000000000E+00 0.  1.
<mgrwt>
<rscale>  0 0.11548338E+04</rscale>
<asrwt>0</asrwt>
<pdfrwt beam="1">  1        1 0.10543806E+00 0.11548338E+04</pdfrwt>
<pdfrwt beam="2">  1       -2 0.74843638E-01 0.11548338E+04</pdfrwt>
<totfact> 0.39250597E+01</totfact>
</mgrwt>
</event>
<event>
12    5  0.5041746E-008  0.1783100E+04  0.7818608E-02  0.8715338E-01
         -2   -1    0    0    0  501 -0.00000000000E+00  0.00000000000E+00  0.21108895100E+03  0.21108895100E+03  0.00000000000E+00 0.  1.
          1   -1    0    0  501    0  0.00000000000E+00 -0.00000000000E+00 -0.37655300325E+04  0.37655300325E+04  0.00000000000E+00 0. -1.
        -24    2    1    2    0    0 -0.51748349974E+03 -0.18472694703E+03 -0.21185240287E+04  0.21900113156E+04  0.78053091201E+02 0.  0.
        254    2    1    2    0    0  0.51748349974E+03  0.18472694703E+03 -0.14359170528E+04  0.17866076678E+04  0.91005272310E+03 0.  0.
         23    2    4    4    0    0  0.11783405487E+03 -0.30352966760E+03 -0.87314516588E+03  0.93623464118E+03  0.90209196091E+02 0.  0.
         23    2    4    4    0    0  0.39964944486E+03  0.48825661463E+03 -0.56277188689E+03  0.85037302663E+03  0.91147612384E+02 0.  0.
          1    1    3    3  502    0 -0.24236465615E+03 -0.89976737302E+02 -0.84473727054E+03  0.88341241560E+03  0.00000000000E+00 0. -1.
         -4    1    3    3    0  502 -0.27511884359E+03 -0.94750209724E+02 -0.12737867582E+04  0.13065989000E+04  0.00000000000E+00 0.  1.
         13    1    5    5    0    0 -0.54644415538E+01 -0.44636390578E+02 -0.19188425028E+03  0.19708331484E+03  0.00000000000E+00 0. -1.
        -13    1    5    5    0    0  0.12329849643E+03 -0.25889327702E+03 -0.68126091560E+03  0.73915132634E+03  0.00000000000E+00 0.  1.
          4    1    6    6  503    0  0.31248434699E+03  0.35956036394E+03 -0.37273808756E+03  0.60486676579E+03  0.00000000000E+00 0. -1.
         -4    1    6    6    0  503  0.87165097869E+02  0.12869625069E+03 -0.19003379933E+03  0.24550626085E+03  0.00000000000E+00 0.  1.
<mgrwt>
<rscale>  0 0.17831004E+04</rscale>
<asrwt>0</asrwt>
<pdfrwt beam="1">  1        1 0.57931229E+00 0.17831004E+04</pdfrwt>
<pdfrwt beam="2">  1       -2 0.32475224E-01 0.17831004E+04</pdfrwt>
<totfact> 0.11272897E+00</totfact>
</mgrwt>
</event>
<event>
12    5  0.5041746E-008  0.2552350E+04  0.7818608E-02  0.8384570E-01
          1   -1    0    0  501    0  0.00000000000E+00  0.00000000000E+00  0.16362860705E+04  0.16362860705E+04  0.00000000000E+00 0. -1.
         -2   -1    0    0    0  501 -0.00000000000E+00 -0.00000000000E+00 -0.99531619949E+03  0.99531619949E+03  0.00000000000E+00 0.  1.
        -24    2    1    2    0    0  0.40181764240E+03  0.46036428841E+03  0.12453077766E+04  0.13894408342E+04  0.79760124346E+02 0.  0.
        254    2    1    2    0    0 -0.40181764240E+03 -0.46036428841E+03 -0.60433790558E+03  0.12421614358E+04  0.89685452149E+03 0.  0.
         23    2    4    4    0    0 -0.15914161338E+02 -0.50554243842E+02  0.21684380221E+03  0.24239918098E+03  0.94483523855E+02 0.  0.
         23    2    4    4    0    0 -0.38590348107E+03 -0.40981004457E+03 -0.82118170779E+03  0.99976225484E+03  0.91210743152E+02 0.  0.
          1    1    3    3  502    0  0.34651707126E+03  0.35153416759E+03  0.10213017113E+04  0.11343313172E+04  0.00000000000E+00 0. -1.
         -2    1    3    3    0  502  0.55300571142E+02  0.10883012082E+03  0.22400606532E+03  0.25510951701E+03  0.00000000000E+00 0.  1.
         13    1    5    5    0    0 -0.13126765638E+02 -0.78827170399E+02  0.16146333764E+03  0.18015672114E+03  0.00000000000E+00 0.  1.
        -13    1    5    5    0    0 -0.27873956999E+01  0.28272926557E+02  0.55380464568E+02  0.62242459838E+02  0.00000000000E+00 0. -1.
          1    1    6    6  503    0 -0.45308339995E+01 -0.12940244918E+02 -0.36078357649E+01  0.14177266104E+02  0.00000000000E+00 0. -1.
         -1    1    6    6    0  503 -0.38137264707E+03 -0.39686979965E+03 -0.81757387202E+03  0.98558498874E+03  0.00000000000E+00 0.  1.
<mgrwt>
<rscale>  0 0.25523495E+04</rscale>
<asrwt>0</asrwt>
<pdfrwt beam="1">  1        1 0.25173632E+00 0.25523495E+04</pdfrwt>
<pdfrwt beam="2">  1       -2 0.15312557E+00 0.25523495E+04</pdfrwt>
<totfact> 0.11608744E+00</totfact>
</mgrwt>
</event>
<event>
12    5  0.5041746E-008  0.2511873E+04  0.7818608E-02  0.8398768E-01
         -2   -1    0    0    0  501 -0.00000000000E+00  0.00000000000E+00  0.16413894924E+04  0.16413894924E+04  0.00000000000E+00 0.  1.
          1   -1    0    0  501    0  0.00000000000E+00 -0.00000000000E+00 -0.96100100701E+03  0.96100100701E+03  0.00000000000E+00 0. -1.
        -24    2    1    2    0    0 -0.22764456253E+03 -0.64244706281E+03  0.11867274950E+04  0.13708757919E+04  0.80112509113E+02 0.  0.
        254    2    1    2    0    0  0.22764456253E+03  0.64244706281E+03 -0.50633900963E+03  0.12315147075E+04  0.89201401709E+03 0.  0.
         23    2    4    4    0    0 -0.28992103054E+03  0.12970282680E+03  0.15605985897E+02  0.33073714315E+03  0.90920205827E+02 0.  0.
         23    2    4    4    0    0  0.51756559308E+03  0.51274423601E+03 -0.52194499553E+03  0.90077756433E+03  0.90514348842E+02 0.  0.
          3    1    3    3  502    0 -0.97940699560E+02 -0.21681333940E+03  0.48032773688E+03  0.53601785380E+03  0.00000000000E+00 0. -1.
         -4    1    3    3    0  502 -0.12970386297E+03 -0.42563372341E+03  0.70639975812E+03  0.83485793812E+03  0.00000000000E+00 0.  1.
         13    1    5    5    0    0 -0.29337199624E+03  0.11522972805E+03  0.17823389954E+02  0.31569398416E+03  0.00000000000E+00 0.  1.
        -13    1    5    5    0    0  0.34509656917E+01  0.14473098751E+02 -0.22174040563E+01  0.15043158990E+02  0.00000000000E+00 0. -1.
          2    1    6    6  503    0  0.55003530349E+02  0.99220586544E+02 -0.89232336343E+02  0.14433476017E+03  0.00000000000E+00 0. -1.
         -2    1    6    6    0  503  0.46256206273E+03  0.41352364946E+03 -0.43271265919E+03  0.75644280416E+03  0.00000000000E+00 0.  1.
<mgrwt>
<rscale>  0 0.25118734E+04</rscale>
<asrwt>0</asrwt>
<pdfrwt beam="1">  1        1 0.14784631E+00 0.25118734E+04</pdfrwt>
<pdfrwt beam="2">  1       -2 0.25252146E+00 0.25118734E+04</pdfrwt>
<totfact> 0.78387285E-01</totfact>
</mgrwt>
</event>
<event>
12    5  0.5041746E-008  0.3027927E+04  0.7818608E-02  0.8235801E-01
          1   -1    0    0  501    0  0.00000000000E+00  0.00000000000E+00  0.39575447462E+04  0.39575447462E+04  0.00000000000E+00 0. -1.
         -2   -1    0    0    0  501 -0.00000000000E+00 -0.00000000000E+00 -0.57916871399E+03  0.57916871399E+03  0.00000000000E+00 0.  1.
        -24    2    1    2    0    0 -0.11042869234E+04 -0.70312440824E+03  0.21878903272E+04  0.25509114161E+04  0.80320770447E+02 0.  0.
        254    2    1    2    0    0  0.11042869234E+04  0.70312440824E+03  0.11904857050E+04  0.19858020441E+04  0.90128796840E+03 0.  0.
         23    2    4    4    0    0  0.50074492259E+03  0.71314851964E+03  0.10346678836E+04  0.13558278994E+04  0.91680832578E+02 0.  0.
         23    2    4    4    0    0  0.60354200078E+03 -0.10024111398E+02  0.15581782143E+03  0.62997414467E+03  0.90690682850E+02 0.  0.
          3    1    3    3  502    0 -0.56985830911E+03 -0.36768922004E+03  0.12108971158E+04  0.13878781214E+04  0.00000000000E+00 0. -1.
         -4    1    3    3    0  502 -0.53442861425E+03 -0.33543518820E+03  0.97699321143E+03  0.11630332946E+04  0.00000000000E+00 0.  1.
         13    1    5    5    0    0  0.13473083904E+02  0.21599982721E+01  0.10453017237E+02  0.17188808911E+02  0.00000000000E+00 0.  1.
        -13    1    5    5    0    0  0.48727183868E+03  0.71098852136E+03  0.10242148663E+04  0.13386390905E+04  0.00000000000E+00 0. -1.
          1    1    6    6  503    0  0.52055872197E+03  0.16035304256E+02  0.15353453197E+03  0.54296534558E+03  0.00000000000E+00 0. -1.
         -1    1    6    6    0  503  0.82983278815E+02 -0.26059415654E+02  0.22832894651E+01  0.87008799083E+02  0.00000000000E+00 0.  1.
<mgrwt>
<rscale>  0 0.30279274E+04</rscale>
<asrwt>0</asrwt>
<pdfrwt beam="1">  1        1 0.60885302E+00 0.30279274E+04</pdfrwt>
<pdfrwt beam="2">  1       -2 0.89102881E-01 0.30279274E+04</pdfrwt>
<totfact> 0.84420120E-02</totfact>
</mgrwt>
</event>
<event>
12    5  0.5041746E-008  0.1513379E+04  0.7818608E-02  0.8875604E-01
          1   -1    0    0  501    0  0.00000000000E+00  0.00000000000E+00  0.55226580451E+03  0.55226580451E+03  0.00000000000E+00 0. -1.
         -2   -1    0    0    0  501 -0.00000000000E+00 -0.00000000000E+00 -0.10367819982E+04  0.10367819982E+04  0.00000000000E+00 0.  1.
        -24    2    1    2    0    0 -0.18522011172E+00 -0.31168274071E+03  0.24397397240E+03  0.40349588092E+03  0.78354716162E+02 0.  0.
        254    2    1    2    0    0  0.18522011172E+00  0.31168274071E+03 -0.72849016606E+03  0.11855519218E+04  0.88186692420E+03 0.  0.
         23    2    4    4    0    0 -0.25766551013E+03 -0.13144141820E+03 -0.55978700420E+03  0.63691982644E+03  0.92935535243E+02 0.  0.
         23    2    4    4    0    0  0.25785073024E+03  0.44312415891E+03 -0.16870316186E+03  0.54863209534E+03  0.98439828903E+02 0.  0.
          3    1    3    3  502    0  0.34186914856E+01 -0.30807439224E+03  0.24915057605E+03  0.39622913592E+03  0.00000000000E+00 0. -1.
         -4    1    3    3    0  502 -0.36039115973E+01 -0.36083484737E+01 -0.51766036516E+01  0.72667449986E+01  0.00000000000E+00 0.  1.
         13    1    5    5    0    0 -0.91313313678E+02 -0.92180885151E+01 -0.23266138143E+03  0.25010880196E+03  0.00000000000E+00 0. -1.
        -13    1    5    5    0    0 -0.16635219645E+03 -0.12222332968E+03 -0.32712562278E+03  0.38681102448E+03  0.00000000000E+00 0.  1.
          1    1    6    6  503    0  0.85700678634E+02  0.19566079008E+03 -0.11445201838E+03  0.24233657505E+03  0.00000000000E+00 0. -1.
         -1    1    6    6    0  503  0.17215005160E+03  0.24746336883E+03 -0.54251143479E+02  0.30629552029E+03  0.00000000000E+00 0.  1.
<mgrwt>
<rscale>  0 0.15133793E+04</rscale>
<asrwt>0</asrwt>
<pdfrwt beam="1">  1        1 0.84963971E-01 0.15133793E+04</pdfrwt>
<pdfrwt beam="2">  1       -2 0.15950492E+00 0.15133793E+04</pdfrwt>
<totfact> 0.82752420E+00</totfact>
</mgrwt>
</event>
<event>
12    5  0.5041746E-008  0.1521095E+04  0.7818608E-02  0.8870545E-01
          1   -1    0    0  501    0  0.00000000000E+00  0.00000000000E+00  0.57035256131E+03  0.57035256131E+03  0.00000000000E+00 0. -1.
         -2   -1    0    0    0  501 -0.00000000000E+00 -0.00000000000E+00 -0.10141663962E+04  0.10141663962E+04  0.00000000000E+00 0.  1.
        -24    2    1    2    0    0  0.17705713583E+03 -0.33333470444E+03 -0.47245012798E+03  0.60988424972E+03  0.79299559215E+02 0.  0.
        254    2    1    2    0    0 -0.17705713583E+03  0.33333470444E+03  0.28636293134E+02  0.97463470775E+03  0.89812667355E+03 0.  0.
         23    2    4    4    0    0 -0.43547635045E+03  0.18734162312E+03  0.29460828194E+03  0.56570514107E+03  0.92150590310E+02 0.  0.
         23    2    4    4    0    0  0.25841921462E+03  0.14599308132E+03 -0.26597198880E+03  0.40892956668E+03  0.91585050114E+02 0.  0.
          3    1    3    3  502    0  0.39417639294E+02 -0.12449878235E+03 -0.21038889457E+03  0.24762306850E+03  0.00000000000E+00 0. -1.
         -4    1    3    3    0  502  0.13763949654E+03 -0.20883592208E+03 -0.26206123342E+03  0.36226118122E+03  0.00000000000E+00 0.  1.
         13    1    5    5    0    0 -0.21410558168E+03  0.56349000016E+02  0.98843299328E+02  0.24245908465E+03  0.00000000000E+00 0.  1.
        -13    1    5    5    0    0 -0.22137076877E+03  0.13099262310E+03  0.19576498261E+03  0.32324605642E+03  0.00000000000E+00 0. -1.
          4    1    6    6  503    0  0.59787879351E+02  0.55668651952E+02 -0.12439161156E+03  0.14881821916E+03  0.00000000000E+00 0. -1.
         -4    1    6    6    0  503  0.19863133526E+03  0.90324429364E+02 -0.14158037724E+03  0.26011134752E+03  0.00000000000E+00 0.  1.
<mgrwt>
<rscale>  0 0.15210949E+04</rscale>
<asrwt>0</asrwt>
<pdfrwt beam="1">  1        1 0.87746548E-01 0.15210949E+04</pdfrwt>
<pdfrwt beam="2">  1       -2 0.15602560E+00 0.15210949E+04</pdfrwt>
<totfact> 0.83878207E+00</totfact>
</mgrwt>
</event>
<event>
12    5  0.5041746E-008  0.1390914E+04  0.7818608E-02  0.8960422E-01
          1   -1    0    0  501    0  0.00000000000E+00  0.00000000000E+00  0.15719288234E+04  0.15719288234E+04  0.00000000000E+00 0. -1.
         -2   -1    0    0    0  501 -0.00000000000E+00 -0.00000000000E+00 -0.30768606682E+03  0.30768606682E+03  0.00000000000E+00 0.  1.
        -24    2    1    2    0    0 -0.36368518794E+03  0.10554307905E+03  0.50652888813E+03  0.63752144442E+03  0.80348118325E+02 0.  0.
        254    2    1    2    0    0  0.36368518794E+03 -0.10554307905E+03  0.75771386848E+03  0.12420934458E+04  0.90843798042E+03 0.  0.
         23    2    4    4    0    0  0.91189886084E+02  0.37995467463E+03  0.43534910933E+03  0.59227522519E+03  0.92627994010E+02 0.  0.
         23    2    4    4    0    0  0.27249530186E+03 -0.48549775368E+03  0.32236475915E+03  0.64981822066E+03  0.91558307083E+02 0.  0.
          3    1    3    3  502    0 -0.12675723556E+03  0.58230833249E+01  0.20714880257E+03  0.24292371533E+03  0.00000000000E+00 0. -1.
         -4    1    3    3    0  502 -0.23692795238E+03  0.99719995722E+02  0.29938008557E+03  0.39459772909E+03  0.00000000000E+00 0.  1.
         13    1    5    5    0    0 -0.23885649512E+01  0.18697602834E+03  0.20973825573E+03  0.28099088301E+03  0.00000000000E+00 0. -1.
        -13    1    5    5    0    0  0.93578451036E+02  0.19297864629E+03  0.22561085360E+03  0.31128434218E+03  0.00000000000E+00 0.  1.
          3    1    6    6  503    0  0.96837896950E+02 -0.26583266260E+03  0.15793703079E+03  0.32401958040E+03  0.00000000000E+00 0. -1.
         -3    1    6    6    0  503  0.17565740491E+03 -0.21966509108E+03  0.16442772837E+03  0.32579864026E+03  0.00000000000E+00 0.  1.
<mgrwt>
<rscale>  0 0.13909142E+04</rscale>
<asrwt>0</asrwt>
<pdfrwt beam="1">  1        1 0.24183520E+00 0.13909142E+04</pdfrwt>
<pdfrwt beam="2">  1       -2 0.47336319E-01 0.13909142E+04</pdfrwt>
<totfact> 0.21128850E+01</totfact>
</mgrwt>
</event>
<event>
12    5  0.5041746E-008  0.1410842E+04  0.7818608E-02  0.8946008E-01
          1   -1    0    0  501    0  0.00000000000E+00  0.00000000000E+00  0.13187291457E+04  0.13187291457E+04  0.00000000000E+00 0. -1.
         -2   -1    0    0    0  501 -0.00000000000E+00 -0.00000000000E+00 -0.37734713555E+03  0.37734713555E+03  0.00000000000E+00 0.  1.
        -24    2    1    2    0    0  0.28933810605E+03  0.30309273364E+03  0.24384499362E+03  0.49144707246E+03  0.80486640541E+02 0.  0.
        254    2    1    2    0    0 -0.28933810605E+03 -0.30309273364E+03  0.69753701649E+03  0.12046292088E+04  0.88825215814E+03 0.  0.
         23    2    4    4    0    0 -0.45910983449E+02 -0.41840615778E+03  0.79522246198E+03  0.90429892777E+03  0.90588384815E+02 0.  0.
         23    2    4    4    0    0 -0.24342712261E+03  0.11531342413E+03 -0.97685445485E+02  0.30033028100E+03  0.90010452832E+02 0.  0.
          1    1    3    3  502    0  0.14567386684E+01 -0.79287593753E+00 -0.44517320719E+01  0.47506481916E+01  0.00000000000E+00 0. -1.
         -2    1    3    3    0  502  0.28788136739E+03  0.30388560958E+03  0.24829672570E+03  0.48669642426E+03  0.00000000000E+00 0.  1.
         13    1    5    5    0    0  0.34427224797E+01 -0.42111285171E+02  0.36017895529E+02  0.55520279855E+02  0.00000000000E+00 0.  1.
        -13    1    5    5    0    0 -0.49353705929E+02 -0.37629487261E+03  0.75920456645E+03  0.84877864792E+03  0.00000000000E+00 0. -1.
          2    1    6    6  503    0 -0.32823071803E+02  0.25561952704E+02 -0.52495671405E+02  0.66981810851E+02  0.00000000000E+00 0. -1.
         -2    1    6    6    0  503 -0.21060405080E+03  0.89751471431E+02 -0.45189774080E+02  0.23334847015E+03  0.00000000000E+00 0.  1.
<mgrwt>
<rscale>  0 0.14108418E+04</rscale>
<asrwt>0</asrwt>
<pdfrwt beam="1">  1        1 0.20288141E+00 0.14108418E+04</pdfrwt>
<pdfrwt beam="2">  1       -2 0.58053406E-01 0.14108418E+04</pdfrwt>
<totfact> 0.20812851E+01</totfact>
</mgrwt>
</event>
<event>
12    5  0.5041746E-008  0.1749897E+04  0.7818608E-02  0.8733407E-01
         -2   -1    0    0    0  501 -0.00000000000E+00  0.00000000000E+00  0.36916985733E+03  0.36916985733E+03  0.00000000000E+00 0.  1.
          1   -1    0    0  501    0  0.00000000000E+00 -0.00000000000E+00 -0.20736650906E+04  0.20736650906E+04  0.00000000000E+00 0. -1.
        -24    2    1    2    0    0 -0.61120725617E+03 -0.19555904609E+03 -0.59053529618E+03  0.87581110404E+03  0.80594686049E+02 0.  0.
        254    2    1    2    0    0  0.61120725617E+03  0.19555904609E+03 -0.11139599371E+04  0.15670238439E+04  0.89601302186E+03 0.  0.
         23    2    4    4    0    0  0.75408030273E+03  0.11675773345E+02 -0.10718194451E+04  0.13137263570E+04  0.91140505160E+02 0.  0.
         23    2    4    4    0    0 -0.14287304656E+03  0.18388327275E+03 -0.42140491973E+02  0.25329748682E+03  0.90321815383E+02 0.  0.
          3    1    3    3  502    0 -0.62371714563E+00  0.70685578618E+00 -0.12124024295E+02  0.12160618129E+02  0.00000000000E+00 0. -1.
         -4    1    3    3    0  502 -0.61058353903E+03 -0.19626590188E+03 -0.57841127188E+03  0.86365048591E+03  0.00000000000E+00 0.  1.
         13    1    5    5    0    0  0.35227237327E+03 -0.39404036347E+02 -0.48735428999E+03  0.60262982587E+03  0.00000000000E+00 0. -1.
        -13    1    5    5    0    0  0.40180792946E+03  0.51079809692E+02 -0.58446515509E+03  0.71109653118E+03  0.00000000000E+00 0.  1.
          4    1    6    6  503    0  0.11488045723E+02  0.25208001024E+02 -0.10735623214E+02  0.29709798316E+02  0.00000000000E+00 0. -1.
         -4    1    6    6    0  503 -0.15436109228E+03  0.15867527172E+03 -0.31404868759E+02  0.22358768850E+03  0.00000000000E+00 0.  1.
<mgrwt>
<rscale>  0 0.17498967E+04</rscale>
<asrwt>0</asrwt>
<pdfrwt beam="1">  1        1 0.31902540E+00 0.17498967E+04</pdfrwt>
<pdfrwt beam="2">  1       -2 0.56795363E-01 0.17498967E+04</pdfrwt>
<totfact> 0.64262892E+00</totfact>
</mgrwt>
</event>
<event>
12    5  0.5041746E-008  0.1529218E+04  0.7818608E-02  0.8865252E-01
          1   -1    0    0  501    0  0.00000000000E+00  0.00000000000E+00  0.94589930138E+03  0.94589930138E+03  0.00000000000E+00 0. -1.
         -2   -1    0    0    0  501 -0.00000000000E+00 -0.00000000000E+00 -0.61806504391E+03  0.61806504391E+03  0.00000000000E+00 0.  1.
        -24    2    1    2    0    0 -0.28153453539E+03 -0.11226577947E+03 -0.29454534866E+03  0.43021556562E+03  0.80393846923E+02 0.  0.
        254    2    1    2    0    0  0.28153453539E+03  0.11226577947E+03  0.62237960613E+03  0.11337487797E+04  0.89786670583E+03 0.  0.
         23    2    4    4    0    0  0.74894829190E+02  0.26696210263E+02  0.81570202101E+03  0.82448655020E+03  0.89924197513E+02 0.  0.
         23    2    4    4    0    0  0.20663970620E+03  0.85569569209E+02 -0.19332241487E+03  0.30926222948E+03  0.90815478525E+02 0.  0.
          3    1    3    3  502    0 -0.14043465693E+02 -0.16349306702E+02 -0.88020969933E+00  0.21570663583E+02  0.00000000000E+00 0. -1.
         -4    1    3    3    0  502 -0.26749106969E+03 -0.95916472770E+02 -0.29366513897E+03  0.40864490203E+03  0.00000000000E+00 0.  1.
         13    1    5    5    0    0  0.54603200955E+02 -0.16420911681E+02  0.23443314776E+03  0.24126760384E+03  0.00000000000E+00 0.  1.
        -13    1    5    5    0    0  0.20291628235E+02  0.43117121944E+02  0.58126887325E+03  0.58321894635E+03  0.00000000000E+00 0. -1.
          1    1    6    6  503    0  0.11628648571E+03  0.16943023325E+02 -0.14314110511E+03  0.18519986169E+03  0.00000000000E+00 0. -1.
         -1    1    6    6    0  503  0.90353220492E+02  0.68626545883E+02 -0.50181309763E+02  0.12406236779E+03  0.00000000000E+00 0.  1.
<mgrwt>
<rscale>  0 0.15292185E+04</rscale>
<asrwt>0</asrwt>
<pdfrwt beam="1">  1        1 0.14552297E+00 0.15292185E+04</pdfrwt>
<pdfrwt beam="2">  1       -2 0.95086931E-01 0.15292185E+04</pdfrwt>
<totfact> 0.13138766E+01</totfact>
</mgrwt>
</event>
<event>
12    5  0.5041746E-008  0.1921811E+04  0.7818608E-02  0.8644075E-01
          1   -1    0    0  501    0  0.00000000000E+00  0.00000000000E+00  0.17987526125E+04  0.17987526125E+04  0.00000000000E+00 0. -1.
         -4   -1    0    0    0  501 -0.00000000000E+00 -0.00000000000E+00 -0.51332194786E+03  0.51332194786E+03  0.00000000000E+00 0.  1.
        -24    2    1    2    0    0  0.51360766561E+03 -0.10662060502E+03  0.11509911526E+04  0.12674199637E+04  0.80074610571E+02 0.  0.
        254    2    1    2    0    0 -0.51360766561E+03  0.10662060502E+03  0.13443951198E+03  0.10446545967E+04  0.89334677275E+03 0.  0.
         23    2    4    4    0    0 -0.37302325599E+03  0.19565556509E+03 -0.33020553593E+03  0.54300920035E+03  0.91628849423E+02 0.  0.
         23    2    4    4    0    0 -0.14058440962E+03 -0.89034960072E+02  0.46464504790E+03  0.50164539633E+03  0.89787987908E+02 0.  0.
          3    1    3    3  502    0  0.22617334958E+03 -0.86329526525E+02  0.54994697861E+03  0.60087340638E+03  0.00000000000E+00 0. -1.
         -4    1    3    3    0  502  0.28743431603E+03 -0.20291078495E+02  0.60104417403E+03  0.66654655729E+03  0.00000000000E+00 0.  1.
         13    1    5    5    0    0 -0.18354573818E+03  0.60771759451E+02 -0.19189515273E+03  0.27240777227E+03  0.00000000000E+00 0.  1.
        -13    1    5    5    0    0 -0.18947751780E+03  0.13488380564E+03 -0.13831038320E+03  0.27060142808E+03  0.00000000000E+00 0. -1.
          2    1    6    6  503    0 -0.10741256712E+03 -0.88978203994E+02  0.43616741848E+03  0.45792641036E+03  0.00000000000E+00 0. -1.
         -2    1    6    6    0  503 -0.33171842509E+02 -0.56756077676E-01  0.28477629422E+02  0.43718985969E+02  0.00000000000E+00 0.  1.
<mgrwt>
<rscale>  0 0.19218108E+04</rscale>
<asrwt>0</asrwt>
<pdfrwt beam="1">  1        1 0.27673117E+00 0.19218108E+04</pdfrwt>
<pdfrwt beam="2">  1       -4 0.78972608E-01 0.19218108E+04</pdfrwt>
<totfact> 0.26784195E+00</totfact>
</mgrwt>
</event>
<event>
12    5  0.5041746E-008  0.2557849E+04  0.7818608E-02  0.8382662E-01
          1   -1    0    0  501    0  0.00000000000E+00  0.00000000000E+00  0.19370935416E+04  0.19370935416E+04  0.00000000000E+00 0. -1.
         -4   -1    0    0    0  501 -0.00000000000E+00 -0.00000000000E+00 -0.84438237313E+03  0.84438237313E+03  0.00000000000E+00 0.  1.
        -24    2    1    2    0    0  0.56572769417E+03 -0.17944565165E+03  0.15231064372E+04  0.16367847433E+04  0.83441662235E+02 0.  0.
        254    2    1    2    0    0 -0.56572769417E+03  0.17944565165E+03 -0.43039526872E+03  0.11446911714E+04  0.87910706106E+03 0.  0.
         23    2    4    4    0    0 -0.27996824407E+01  0.33023480182E+03  0.93704465806E+02  0.35538752965E+03  0.91961441717E+02 0.  0.
         23    2    4    4    0    0 -0.56292801173E+03 -0.15078915017E+03 -0.52409973453E+03  0.78930364180E+03  0.93243729179E+02 0.  0.
          1    1    3    3  502    0  0.32920641661E+03 -0.14330531383E+03  0.86647817088E+03  0.93792201079E+03  0.00000000000E+00 0. -1.
         -2    1    3    3    0  502  0.23652127757E+03 -0.36140337815E+02  0.65662826632E+03  0.69886273251E+03  0.00000000000E+00 0.  1.
         13    1    5    5    0    0  0.35351736550E+02  0.79802703527E+02  0.41920464363E+02  0.96827383006E+02  0.00000000000E+00 0. -1.
        -13    1    5    5    0    0 -0.38151418991E+02  0.25043209829E+03  0.51784001443E+02  0.25856014664E+03  0.00000000000E+00 0.  1.
          4    1    6    6  503    0 -0.54456189230E+03 -0.14144753575E+03 -0.47599302133E+03  0.73696975261E+03  0.00000000000E+00 0. -1.
         -4    1    6    6    0  503 -0.18366119434E+02 -0.93416144240E+01 -0.48106713199E+02  0.52333889191E+02  0.00000000000E+00 0.  1.
<mgrwt>
<rscale>  0 0.25578488E+04</rscale>
<asrwt>0</asrwt>
<pdfrwt beam="1">  1        1 0.29801439E+00 0.25578488E+04</pdfrwt>
<pdfrwt beam="2">  1       -4 0.12990498E+00 0.25578488E+04</pdfrwt>
<totfact> 0.61753815E-01</totfact>
</mgrwt>
</event>
<event>
12    5  0.5041746E-008  0.1134913E+04  0.7818608E-02  0.9171816E-01
          1   -1    0    0  501    0  0.00000000000E+00  0.00000000000E+00  0.11865024607E+04  0.11865024607E+04  0.00000000000E+00 0. -1.
         -2   -1    0    0    0  501 -0.00000000000E+00 -0.00000000000E+00 -0.27139180633E+03  0.27139180633E+03  0.00000000000E+00 0.  1.
        -24    2    1    2    0    0  0.10027063834E+03 -0.15323927642E+03  0.25860194714E+03  0.32623472715E+03  0.77573535334E+02 0.  0.
        254    2    1    2    0    0 -0.10027063834E+03  0.15323927642E+03  0.65650870721E+03  0.11316595399E+04  0.90338981330E+03 0.  0.
         23    2    4    4    0    0  0.10081342353E+03  0.31890093575E+03  0.75996248773E+03  0.83514034546E+03  0.89751103936E+02 0.  0.
         23    2    4    4    0    0 -0.20108406188E+03 -0.16566165933E+03 -0.10345378053E+03  0.29651919441E+03  0.96655898081E+02 0.  0.
          3    1    3    3  502    0  0.22017167802E+02 -0.40218469078E+02  0.13054451606E+03  0.13836239231E+03  0.00000000000E+00 0. -1.
         -4    1    3    3    0  502  0.78253470542E+02 -0.11302080734E+03  0.12805743109E+03  0.18787233484E+03  0.00000000000E+00 0.  1.
         13    1    5    5    0    0  0.11490836995E+03  0.27757936167E+03  0.62835114363E+03  0.69647641397E+03  0.00000000000E+00 0. -1.
        -13    1    5    5    0    0 -0.14094946421E+02  0.41321574079E+02  0.13161134410E+03  0.13866393149E+03  0.00000000000E+00 0.  1.
          2    1    6    6  503    0 -0.19959756200E+03 -0.17168778277E+03 -0.84394582495E+02  0.27647482175E+03  0.00000000000E+00 0. -1.
         -2    1    6    6    0  503 -0.14864998764E+01  0.60261234372E+01 -0.19059198031E+02  0.20044372656E+02  0.00000000000E+00 0.  1.
<mgrwt>
<rscale>  0 0.11349133E+04</rscale>
<asrwt>0</asrwt>
<pdfrwt beam="1">  1        1 0.18253884E+00 0.11349133E+04</pdfrwt>
<pdfrwt beam="2">  1       -2 0.41752586E-01 0.11349133E+04</pdfrwt>
<totfact> 0.51794259E+01</totfact>
</mgrwt>
</event>
<event>
12    5  0.5041746E-008  0.3532810E+04  0.7818608E-02  0.8106058E-01
          1   -1    0    0  501    0  0.00000000000E+00  0.00000000000E+00  0.19267442428E+04  0.19267442428E+04  0.00000000000E+00 0. -1.
         -2   -1    0    0    0  501 -0.00000000000E+00 -0.00000000000E+00 -0.16194091468E+04  0.16194091468E+04  0.00000000000E+00 0.  1.
        -24    2    1    2    0    0 -0.13019705608E+04  0.37645504253E+03  0.10918720077E+04  0.17422142571E+04  0.79248320521E+02 0.  0.
        254    2    1    2    0    0  0.13019705608E+04 -0.37645504253E+03 -0.78453691175E+03  0.18039391325E+04  0.89546216413E+03 0.  0.
         23    2    4    4    0    0  0.72226360868E+03  0.24656281044E+03 -0.36042071945E+03  0.84883861022E+03  0.90365653227E+02 0.  0.
         23    2    4    4    0    0  0.57970695217E+03 -0.62301785297E+03 -0.42411619229E+03  0.95510052224E+03  0.90172432092E+02 0.  0.
          1    1    3    3  502    0 -0.76164544528E+03  0.25587447714E+03  0.67016980874E+03  0.10462806052E+04  0.00000000000E+00 0. -1.
         -2    1    3    3    0  502 -0.54032511557E+03  0.12058056539E+03  0.42170219892E+03  0.69593365189E+03  0.00000000000E+00 0.  1.
         13    1    5    5    0    0  0.51177415627E+03  0.17897277243E+03 -0.30010572509E+03  0.61968337603E+03  0.00000000000E+00 0. -1.
        -13    1    5    5    0    0  0.21048945241E+03  0.67590038009E+02 -0.60314994365E+02  0.22915523420E+03  0.00000000000E+00 0.  1.
          3    1    6    6  503    0  0.41375780366E+03 -0.48767663977E+03 -0.34608491611E+03  0.72718552944E+03  0.00000000000E+00 0. -1.
         -3    1    6    6    0  503  0.16594914851E+03 -0.13534121320E+03 -0.78031276182E+02  0.22791499280E+03  0.00000000000E+00 0.  1.
<mgrwt>
<rscale>  0 0.35328104E+04</rscale>
<asrwt>0</asrwt>
<pdfrwt beam="1">  1        1 0.29642219E+00 0.35328104E+04</pdfrwt>
<pdfrwt beam="2">  1       -2 0.24913987E+00 0.35328104E+04</pdfrwt>
<totfact> 0.15546851E-01</totfact>
</mgrwt>
</event>
<event>
12    5  0.5041746E-008  0.1209504E+04  0.7818608E-02  0.9104578E-01
         -2   -1    0    0    0  501 -0.00000000000E+00  0.00000000000E+00  0.31486744524E+03  0.31486744524E+03  0.00000000000E+00 0.  1.
          1   -1    0    0  501    0  0.00000000000E+00 -0.00000000000E+00 -0.11615208504E+04  0.11615208504E+04  0.00000000000E+00 0. -1.
        -24    2    1    2    0    0  0.44829333257E+02  0.17908438977E+03 -0.64449312573E+01  0.20126643728E+03  0.79910911983E+02 0.  0.
        254    2    1    2    0    0 -0.44829333257E+02 -0.17908438977E+03 -0.84020847392E+03  0.12751218584E+04  0.94122504550E+03 0.  0.
         23    2    4    4    0    0 -0.81466321098E+02 -0.53755347130E+03 -0.66533847445E+03  0.86418675073E+03  0.92428126487E+02 0.  0.
         23    2    4    4    0    0  0.36636987841E+02  0.35846908153E+03 -0.17486999947E+03  0.41093510765E+03  0.91901004851E+02 0.  0.
          3    1    3    3  502    0 -0.19851909230E+02  0.82769759089E+02 -0.43889848214E+01  0.85230244089E+02  0.00000000000E+00 0. -1.
         -4    1    3    3    0  502  0.64681242487E+02  0.96314630685E+02 -0.20559464359E+01  0.11603619319E+03  0.00000000000E+00 0.  1.
         13    1    5    5    0    0  0.18762647602E+01 -0.42446674655E+02 -0.21176514098E+02  0.47472995567E+02  0.00000000000E+00 0.  1.
        -13    1    5    5    0    0 -0.83342585858E+02 -0.49510679665E+03 -0.64416196035E+03  0.81671375516E+03  0.00000000000E+00 0. -1.
          4    1    6    6  503    0  0.51934810156E+02  0.35049175374E+03 -0.17010614095E+03  0.39303663078E+03  0.00000000000E+00 0. -1.
         -4    1    6    6    0  503 -0.15297822315E+02  0.79773277931E+01 -0.47638585150E+01  0.17898476870E+02  0.00000000000E+00 0.  1.
<mgrwt>
<rscale>  0 0.12095042E+04</rscale>
<asrwt>0</asrwt>
<pdfrwt beam="1">  1        1 0.17869551E+00 0.12095042E+04</pdfrwt>
<pdfrwt beam="2">  1       -2 0.48441146E-01 0.12095042E+04</pdfrwt>
<totfact> 0.39926784E+01</totfact>
</mgrwt>
</event>
<event>
12    5  0.5041746E-008  0.2100716E+04  0.7818608E-02  0.8560928E-01
         -2   -1    0    0    0  501 -0.00000000000E+00  0.00000000000E+00  0.69594498199E+03  0.69594498199E+03  0.00000000000E+00 0.  1.
          1   -1    0    0  501    0  0.00000000000E+00 -0.00000000000E+00 -0.15852568256E+04  0.15852568256E+04  0.00000000000E+00 0. -1.
        -24    2    1    2    0    0 -0.21676239326E+03 -0.24394950482E+03  0.48919670481E+03  0.59337711792E+03  0.79282356418E+02 0.  0.
        254    2    1    2    0    0  0.21676239326E+03  0.24394950482E+03 -0.13785085484E+04  0.16878246897E+04  0.91758872539E+03 0.  0.
         23    2    4    4    0    0  0.33712435143E+03 -0.10580293327E+03 -0.13812753488E+03  0.39017857085E+03  0.91175721804E+02 0.  0.
         23    2    4    4    0    0 -0.12036195817E+03  0.34975243809E+03 -0.12403810135E+04  0.12976461188E+04  0.92339709842E+02 0.  0.
          1    1    3    3  502    0 -0.18582108252E+02  0.82769741824E+00  0.13973650259E+02  0.23264624039E+02  0.00000000000E+00 0. -1.
         -2    1    3    3    0  502 -0.19818028501E+03 -0.24477720224E+03  0.47522305455E+03  0.57011249388E+03  0.00000000000E+00 0.  1.
         13    1    5    5    0    0  0.20493708262E+03 -0.95445857371E+02 -0.12119337743E+03  0.25650916992E+03  0.00000000000E+00 0.  1.
        -13    1    5    5    0    0  0.13218726881E+03 -0.10357075897E+02 -0.16934157454E+02  0.13366940094E+03  0.00000000000E+00 0. -1.
          1    1    6    6  503    0  0.97120811819E+01  0.30905823121E+02 -0.17567435074E+03  0.17863642387E+03  0.00000000000E+00 0. -1.
         -1    1    6    6    0  503 -0.13007403935E+03  0.31884661496E+03 -0.10647066628E+04  0.11190096949E+04  0.00000000000E+00 0.  1.
<mgrwt>
<rscale>  0 0.21007156E+04</rscale>
<asrwt>0</asrwt>
<pdfrwt beam="1">  1        1 0.24388566E+00 0.21007156E+04</pdfrwt>
<pdfrwt beam="2">  1       -2 0.10706846E+00 0.21007156E+04</pdfrwt>
<totfact> 0.32343914E+00</totfact>
</mgrwt>
</event>
<event>
12    5  0.5041746E-008  0.1677177E+04  0.7818608E-02  0.8774489E-01
          1   -1    0    0  501    0  0.00000000000E+00  0.00000000000E+00  0.23825341685E+04  0.23825341685E+04  0.00000000000E+00 0. -1.
         -2   -1    0    0    0  501 -0.00000000000E+00 -0.00000000000E+00 -0.29516071268E+03  0.29516071268E+03  0.00000000000E+00 0.  1.
        -24    2    1    2    0    0  0.21558054831E+03 -0.53624774533E+02  0.16248327878E+04  0.16418601792E+04  0.79200193460E+02 0.  0.
        254    2    1    2    0    0 -0.21558054831E+03  0.53624774533E+02  0.46254066801E+03  0.10358347019E+04  0.89981057500E+03 0.  0.
         23    2    4    4    0    0 -0.10624181598E+03  0.10659864913E+03  0.71794457354E+03  0.73893333952E+03  0.89036363981E+02 0.  0.
         23    2    4    4    0    0 -0.10933873233E+03 -0.52973874595E+02 -0.25540390554E+03  0.29690136240E+03  0.90322058510E+02 0.  0.
          1    1    3    3  502    0  0.21464257166E+03 -0.35670072403E+02  0.15204986751E+04  0.15359882840E+04  0.00000000000E+00 0. -1.
         -2    1    3    3    0  502  0.93797664673E+00 -0.17954702131E+02  0.10433411266E+03  0.10587189520E+03  0.00000000000E+00 0.  1.
         13    1    5    5    0    0 -0.35272025180E+02  0.89136411297E+02  0.30965021597E+03  0.32414915059E+03  0.00000000000E+00 0.  1.
        -13    1    5    5    0    0 -0.70969790796E+02  0.17462237832E+02  0.40829435757E+03  0.41478418893E+03  0.00000000000E+00 0. -1.
          4    1    6    6  503    0  0.66616343029E+01 -0.32541397994E+02 -0.47730679080E+02  0.58150990365E+02  0.00000000000E+00 0.  1.
         -4    1    6    6    0  503 -0.11600036664E+03 -0.20432476601E+02 -0.20767322646E+03  0.23875037203E+03  0.00000000000E+00 0. -1.
<mgrwt>
<rscale>  0 0.16771768E+04</rscale>
<asrwt>0</asrwt>
<pdfrwt beam="1">  1        1 0.36654371E+00 0.16771768E+04</pdfrwt>
<pdfrwt beam="2">  1       -2 0.45409342E-01 0.16771768E+04</pdfrwt>
<totfact> 0.62967662E+00</totfact>
</mgrwt>
</event>
<event>
12    5  0.5041746E-008  0.1766307E+04  0.7818608E-02  0.8724425E-01
         -2   -1    0    0    0  501 -0.00000000000E+00  0.00000000000E+00  0.50474586419E+03  0.50474586419E+03  0.00000000000E+00 0.  1.
          1   -1    0    0  501    0  0.00000000000E+00 -0.00000000000E+00 -0.15452534374E+04  0.15452534374E+04  0.00000000000E+00 0. -1.
        -24    2    1    2    0    0  0.51750168248E+03 -0.32213571840E+03 -0.65313189930E+03  0.89694544106E+03  0.79689609759E+02 0.  0.
        254    2    1    2    0    0 -0.51750168248E+03  0.32213571840E+03 -0.38737567394E+03  0.11530538606E+04  0.89882917185E+03 0.  0.
         23    2    4    4    0    0  0.76400623878E+02  0.19408728865E+03  0.20015360337E+03  0.30346004487E+03  0.92301695235E+02 0.  0.
         23    2    4    4    0    0 -0.59390230636E+03  0.12804842975E+03 -0.58752927731E+03  0.84959381570E+03  0.86617839461E+02 0.  0.
          1    1    3    3  502    0  0.46717215938E+03 -0.30505356990E+03 -0.62101632186E+03  0.83484656016E+03  0.00000000000E+00 0. -1.
         -2    1    3    3    0  502  0.50329523105E+02 -0.17082148497E+02 -0.32115577448E+02  0.62098880892E+02  0.00000000000E+00 0.  1.
         13    1    5    5    0    0 -0.14044041569E+02  0.72554909929E+02  0.88315684851E+02  0.11515689406E+03  0.00000000000E+00 0. -1.
        -13    1    5    5    0    0  0.90444665447E+02  0.12153237872E+03  0.11183791852E+03  0.18830315081E+03  0.00000000000E+00 0.  1.
          2    1    6    6  503    0 -0.15820628952E+03  0.21823369003E+02 -0.20699684627E+03  0.26144441827E+03  0.00000000000E+00 0. -1.
         -2    1    6    6    0  503 -0.43569601685E+03  0.10622506075E+03 -0.38053243104E+03  0.58814939743E+03  0.00000000000E+00 0.  1.
<mgrwt>
<rscale>  0 0.17663072E+04</rscale>
<asrwt>0</asrwt>
<pdfrwt beam="1">  1        1 0.23773130E+00 0.17663072E+04</pdfrwt>
<pdfrwt beam="2">  1       -2 0.77653209E-01 0.17663072E+04</pdfrwt>
<totfact> 0.74697443E+00</totfact>
</mgrwt>
</event>
<event>
12    5  0.5041746E-008  0.1471700E+04  0.7818608E-02  0.8903493E-01
          1   -1    0    0  501    0  0.00000000000E+00  0.00000000000E+00  0.51963669559E+03  0.51963669559E+03  0.00000000000E+00 0. -1.
         -2   -1    0    0    0  501 -0.00000000000E+00 -0.00000000000E+00 -0.10420260548E+04  0.10420260548E+04  0.00000000000E+00 0.  1.
        -24    2    1    2    0    0 -0.23366518192E+03 -0.18728767632E+02  0.25573720186E+03  0.35585903278E+03  0.79271374523E+02 0.  0.
        254    2    1    2    0    0  0.23366518192E+03  0.18728767632E+02 -0.77812656107E+03  0.12058037176E+04  0.89080383720E+03 0.  0.
         23    2    4    4    0    0 -0.17156531254E+03  0.31062324850E+03 -0.14569083365E+03  0.39501023521E+03  0.94264563494E+02 0.  0.
         23    2    4    4    0    0  0.40523049446E+03 -0.29189448087E+03 -0.63243572741E+03  0.81079348240E+03  0.89425836223E+02 0.  0.
          1    1    3    3  502    0 -0.27568032299E+02 -0.18144462836E+02  0.74204727625E+02  0.81213050295E+02  0.00000000000E+00 0. -1.
         -2    1    3    3    0  502 -0.20609714962E+03 -0.58430479634E+00  0.18153247423E+03  0.27464598248E+03  0.00000000000E+00 0.  1.
         13    1    5    5    0    0 -0.36505184082E+02  0.52469488579E+02 -0.68326870764E+02  0.93564079459E+02  0.00000000000E+00 0.  1.
        -13    1    5    5    0    0 -0.13506012846E+03  0.25815375992E+03 -0.77363962890E+02  0.30144615575E+03  0.00000000000E+00 0. -1.
          3    1    6    6  503    0  0.77575319489E+02 -0.82775837955E+02 -0.19510526297E+03  0.22568968337E+03  0.00000000000E+00 0. -1.
         -3    1    6    6    0  503  0.32765517497E+03 -0.20911864291E+03 -0.43733046445E+03  0.58510379903E+03  0.00000000000E+00 0.  1.
<mgrwt>
<rscale>  0 0.14716997E+04</rscale>
<asrwt>0</asrwt>
<pdfrwt beam="1">  1        1 0.79944108E-01 0.14716997E+04</pdfrwt>
<pdfrwt beam="2">  1       -2 0.16031170E+00 0.14716997E+04</pdfrwt>
<totfact> 0.89189737E+00</totfact>
</mgrwt>
</event>
<event>
12    5  0.5041746E-008  0.1320204E+04  0.7818608E-02  0.9013695E-01
          3   -1    0    0  501    0  0.00000000000E+00  0.00000000000E+00  0.68748896322E+03  0.68748896322E+03  0.00000000000E+00 0. -1.
         -4   -1    0    0    0  501 -0.00000000000E+00 -0.00000000000E+00 -0.63380568637E+03  0.63380568637E+03  0.00000000000E+00 0.  1.
        -24    2    1    2    0    0 -0.35054332802E+02  0.12532293504E+03 -0.30839537958E+03  0.34409568469E+03  0.79746384126E+02 0.  0.
        254    2    1    2    0    0  0.35054332802E+02 -0.12532293504E+03  0.36207865643E+03  0.97719896490E+03  0.89826622961E+03 0.  0.
         23    2    4    4    0    0 -0.40855433170E+03  0.32684888433E+02  0.10228432619E+03  0.43177028236E+03  0.89322726426E+02 0.  0.
         23    2    4    4    0    0  0.44360866451E+03 -0.15800782347E+03  0.25979433023E+03  0.54542868254E+03  0.90797765466E+02 0.  0.
          3    1    3    3  502    0 -0.23368634181E+02  0.34907049054E+02 -0.31294424251E+02  0.52382593734E+02  0.00000000000E+00 0. -1.
         -4    1    3    3    0  502 -0.11685698621E+02  0.90415885982E+02 -0.27710095533E+03  0.29171309096E+03  0.00000000000E+00 0.  1.
         13    1    5    5    0    0 -0.23686100372E+03  0.42905989138E+02  0.21285913295E+02  0.24165502083E+03  0.00000000000E+00 0.  1.
        -13    1    5    5    0    0 -0.17169332798E+03 -0.10221100705E+02  0.80998412899E+02  0.19011526153E+03  0.00000000000E+00 0. -1.
          4    1    6    6  503    0  0.33786447997E+03 -0.15144795209E+03  0.17401285199E+03  0.40910800735E+03  0.00000000000E+00 0.  1.
         -4    1    6    6    0  503  0.10574418454E+03 -0.65598713788E+01  0.85781478240E+02  0.13632067519E+03  0.00000000000E+00 0. -1.
<mgrwt>
<rscale>  0 0.13202036E+04</rscale>
<asrwt>0</asrwt>
<pdfrwt beam="1">  1        3 0.10576753E+00 0.13202036E+04</pdfrwt>
<pdfrwt beam="2">  1       -4 0.97508567E-01 0.13202036E+04</pdfrwt>
<totfact> 0.15057763E+00</totfact>
</mgrwt>
</event>
<event>
12    5  0.5041746E-008  0.5526624E+04  0.7818608E-02  0.7752036E-01
         -2   -1    0    0    0  501 -0.00000000000E+00  0.00000000000E+00  0.28570085734E+04  0.28570085734E+04  0.00000000000E+00 0.  1.
          1   -1    0    0  501    0  0.00000000000E+00 -0.00000000000E+00 -0.26726884318E+04  0.26726884318E+04  0.00000000000E+00 0. -1.
        -24    2    1    2    0    0  0.19994583280E+04 -0.17326570373E+04  0.57573774160E+03  0.27088867624E+04  0.81605944052E+02 0.  0.
        254    2    1    2    0    0 -0.19994583280E+04  0.17326570373E+04 -0.39141760000E+03  0.28208102429E+04  0.89656493065E+03 0.  0.
         23    2    4    4    0    0 -0.15004581790E+04  0.11660193558E+04  0.11706363831E+03  0.19060162870E+04  0.90654873570E+02 0.  0.
         23    2    4    4    0    0 -0.49900014901E+03  0.56663768145E+03 -0.50848123831E+03  0.91479395587E+03  0.90638850603E+02 0.  0.
          1    1    3    3  502    0  0.49029552458E+03 -0.40023697841E+03  0.10770461875E+03  0.64201216906E+03  0.00000000000E+00 0. -1.
         -2    1    3    3    0  502  0.15091628034E+04 -0.13324200588E+04  0.46803312284E+03  0.20668745933E+04  0.00000000000E+00 0.  1.
         13    1    5    5    0    0 -0.12349494777E+04  0.93971796628E+03  0.12693776839E+03  0.15570110037E+04  0.00000000000E+00 0. -1.
        -13    1    5    5    0    0 -0.26550870130E+03  0.22630138952E+03 -0.98741300791E+01  0.34900528336E+03  0.00000000000E+00 0.  1.
          3    1    6    6  503    0 -0.33738553039E+03  0.38046892419E+03 -0.39234084948E+03  0.64227481701E+03  0.00000000000E+00 0. -1.
         -3    1    6    6    0  503 -0.16161461861E+03  0.18616875726E+03 -0.11614038883E+03  0.27251913886E+03  0.00000000000E+00 0.  1.
<mgrwt>
<rscale>  0 0.55266242E+04</rscale>
<asrwt>0</asrwt>
<pdfrwt beam="1">  1        1 0.41118284E+00 0.55266242E+04</pdfrwt>
<pdfrwt beam="2">  1       -2 0.43953978E+00 0.55266242E+04</pdfrwt>
<totfact> 0.25495184E-03</totfact>
</mgrwt>
</event>
<event>
12    5  0.5041746E-008  0.1744196E+04  0.7818608E-02  0.8736551E-01
         -2   -1    0    0    0  501 -0.00000000000E+00  0.00000000000E+00  0.34541279551E+03  0.34541279551E+03  0.00000000000E+00 0.  1.
          1   -1    0    0  501    0  0.00000000000E+00 -0.00000000000E+00 -0.22018728330E+04  0.22018728330E+04  0.00000000000E+00 0. -1.
        -24    2    1    2    0    0 -0.15185309965E+03 -0.16413806779E+03 -0.15689599019E+04  0.15868085725E+04  0.79533659368E+02 0.  0.
        254    2    1    2    0    0  0.15185309965E+03  0.16413806779E+03 -0.28750013556E+03  0.96047705593E+03  0.88874021956E+03 0.  0.
         23    2    4    4    0    0 -0.74414732514E+02 -0.28430337801E+02  0.28445370907E+03  0.30945027907E+03  0.92193959049E+02 0.  0.
         23    2    4    4    0    0  0.22626783216E+03  0.19256840559E+03 -0.57195384463E+03  0.65102677687E+03  0.91787477914E+02 0.  0.
          1    1    3    3  502    0 -0.14484717957E+03 -0.12414070755E+03 -0.11315359729E+04  0.11475039341E+04  0.00000000000E+00 0. -1.
         -2    1    3    3    0  502 -0.70059200835E+01 -0.39997360238E+02 -0.43742392898E+03  0.43930463848E+03  0.00000000000E+00 0.  1.
         13    1    5    5    0    0  0.18858185066E+01 -0.40717184765E+02  0.64354845229E+02  0.76177369022E+02  0.00000000000E+00 0.  1.
        -13    1    5    5    0    0 -0.76300551020E+02  0.12286846964E+02  0.22009886385E+03  0.23327291004E+03  0.00000000000E+00 0. -1.
          1    1    6    6  503    0  0.10750241126E+03  0.35370210948E+02 -0.23129449045E+03  0.25749749817E+03  0.00000000000E+00 0. -1.
         -1    1    6    6    0  503  0.11876542090E+03  0.15719819464E+03 -0.34065935419E+03  0.39352927870E+03  0.00000000000E+00 0.  1.
<mgrwt>
<rscale>  0 0.17441961E+04</rscale>
<asrwt>0</asrwt>
<pdfrwt beam="1">  1        1 0.33874966E+00 0.17441961E+04</pdfrwt>
<pdfrwt beam="2">  1       -2 0.53140431E-01 0.17441961E+04</pdfrwt>
<totfact> 0.60412982E+00</totfact>
</mgrwt>
</event>
<event>
12    5  0.5041746E-008  0.1387015E+04  0.7818608E-02  0.8963272E-01
         -2   -1    0    0    0  501 -0.00000000000E+00  0.00000000000E+00  0.89454394663E+03  0.89454394663E+03  0.00000000000E+00 0.  1.
          1   -1    0    0  501    0  0.00000000000E+00 -0.00000000000E+00 -0.53765116781E+03  0.53765116781E+03  0.00000000000E+00 0. -1.
        -24    2    1    2    0    0  0.37246297855E+03  0.10897082511E+03  0.14396201438E+03  0.42161269002E+03  0.80180344738E+02 0.  0.
        254    2    1    2    0    0 -0.37246297855E+03 -0.10897082511E+03  0.21293076444E+03  0.10105824244E+04  0.90847895683E+03 0.  0.
         23    2    4    4    0    0 -0.42004248972E+03  0.20936928427E+03 -0.16465545398E+03  0.50574546807E+03  0.91628977818E+02 0.  0.
         23    2    4    4    0    0  0.47579511167E+02 -0.31834010938E+03  0.37758621842E+03  0.50483695636E+03  0.93192086828E+02 0.  0.
          3    1    3    3  502    0  0.39082930238E+01  0.12308568164E+01  0.16544222661E+02  0.17044091830E+02  0.00000000000E+00 0. -1.
         -4    1    3    3    0  502  0.36855468553E+03  0.10773996829E+03  0.12741779172E+03  0.40456859819E+03  0.00000000000E+00 0.  1.
         13    1    5    5    0    0 -0.37389671290E+03  0.15790584584E+03 -0.11919498595E+03  0.42301353731E+03  0.00000000000E+00 0.  1.
        -13    1    5    5    0    0 -0.46145776818E+02  0.51463438431E+02 -0.45460468032E+02  0.82731930758E+02  0.00000000000E+00 0. -1.
          1    1    6    6  503    0 -0.27999887301E+02 -0.10372817349E+03  0.12755148789E+03  0.16677202921E+03  0.00000000000E+00 0. -1.
         -1    1    6    6    0  503  0.75579398468E+02 -0.21461193589E+03  0.25003473053E+03  0.33806492715E+03  0.00000000000E+00 0.  1.
<mgrwt>
<rscale>  0 0.13870149E+04</rscale>
<asrwt>0</asrwt>
<pdfrwt beam="1">  1        1 0.82715564E-01 0.13870149E+04</pdfrwt>
<pdfrwt beam="2">  1       -2 0.13762215E+00 0.13870149E+04</pdfrwt>
<totfact> 0.12832566E+01</totfact>
</mgrwt>
</event>
<event>
12    5  0.5041746E-008  0.1509449E+04  0.7818608E-02  0.8878193E-01
          1   -1    0    0  501    0  0.00000000000E+00  0.00000000000E+00  0.16313065601E+04  0.16313065601E+04  0.00000000000E+00 0. -1.
         -2   -1    0    0    0  501 -0.00000000000E+00 -0.00000000000E+00 -0.34917365442E+03  0.34917365442E+03  0.00000000000E+00 0.  1.
        -24    2    1    2    0    0  0.79716448404E+02  0.43087774602E+03  0.68640841303E+03  0.81847202168E+03  0.82034118731E+02 0.  0.
        254    2    1    2    0    0 -0.79716448404E+02 -0.43087774602E+03  0.59572449269E+03  0.11620081929E+04  0.89630632317E+03 0.  0.
         23    2    4    4    0    0 -0.21552398884E+03 -0.10124607117E+03  0.72780052273E+03  0.77144836373E+03  0.93475239030E+02 0.  0.
         23    2    4    4    0    0  0.13580754044E+03 -0.32963167485E+03 -0.13207603004E+03  0.39055982915E+03  0.89398955954E+02 0.  0.
          1    1    3    3  502    0  0.42360733147E+02  0.28830314091E+03  0.52077235272E+03  0.59675537378E+03  0.00000000000E+00 0. -1.
         -2    1    3    3    0  502  0.37355715257E+02  0.14257460510E+03  0.16563606031E+03  0.22171664791E+03  0.00000000000E+00 0.  1.
         13    1    5    5    0    0 -0.14156367072E+03 -0.10308417542E+03  0.42339059787E+03  0.45817706015E+03  0.00000000000E+00 0. -1.
        -13    1    5    5    0    0 -0.73960318118E+02  0.18381042537E+01  0.30440992487E+03  0.31327130357E+03  0.00000000000E+00 0.  1.
          3    1    6    6  503    0  0.14201373305E+02 -0.11780181547E+02 -0.30072775884E+02  0.35282056777E+02  0.00000000000E+00 0. -1.
         -3    1    6    6    0  503  0.12160616713E+03 -0.31785149330E+03 -0.10200325416E+03  0.35527777237E+03  0.00000000000E+00 0.  1.
<mgrwt>
<rscale>  0 0.15094493E+04</rscale>
<asrwt>0</asrwt>
<pdfrwt beam="1">  1        1 0.25097024E+00 0.15094493E+04</pdfrwt>
<pdfrwt beam="2">  1       -2 0.53719025E-01 0.15094493E+04</pdfrwt>
<totfact> 0.14709331E+01</totfact>
</mgrwt>
</event>
<event>
12    5  0.5041746E-008  0.1380269E+04  0.7818608E-02  0.8968226E-01
         -2   -1    0    0    0  501 -0.00000000000E+00  0.00000000000E+00  0.29660306797E+03  0.29660306797E+03  0.00000000000E+00 0.  1.
          1   -1    0    0  501    0  0.00000000000E+00 -0.00000000000E+00 -0.16058003649E+04  0.16058003649E+04  0.00000000000E+00 0. -1.
        -24    2    1    2    0    0  0.29778557535E+03  0.72352478264E+01 -0.38071213177E+02  0.31066789357E+03  0.79602293479E+02 0.  0.
        254    2    1    2    0    0 -0.29778557535E+03 -0.72352478264E+01 -0.12711260838E+04  0.15917355393E+04  0.91056680621E+03 0.  0.
         23    2    4    4    0    0 -0.48677550730E+03  0.34958198723E+01 -0.26089811597E+03  0.55981601615E+03  0.91452335978E+02 0.  0.
         23    2    4    4    0    0  0.18898993195E+03 -0.10731067699E+02 -0.10102279678E+04  0.10319195232E+04  0.92005462698E+02 0.  0.
          1    1    3    3  502    0  0.78867632493E+02  0.94079174173E+01  0.24241869095E+02  0.83043847348E+02  0.00000000000E+00 0. -1.
         -2    1    3    3    0  502  0.21891794286E+03 -0.21726695909E+01 -0.62313082271E+02  0.22762404622E+03  0.00000000000E+00 0.  1.
         13    1    5    5    0    0 -0.64578329998E+01  0.10032541648E+02 -0.17839780634E+02  0.21461902806E+02  0.00000000000E+00 0. -1.
        -13    1    5    5    0    0 -0.48031767430E+03 -0.65367217754E+01 -0.24305833534E+03  0.53835411334E+03  0.00000000000E+00 0.  1.
          2    1    6    6  503    0  0.95980110753E+02 -0.30022024905E+02 -0.70824876911E+03  0.71535293568E+03  0.00000000000E+00 0. -1.
         -2    1    6    6    0  503  0.93009821199E+02  0.19290957206E+02 -0.30197919869E+03  0.31656658749E+03  0.00000000000E+00 0.  1.
<mgrwt>
<rscale>  0 0.13802685E+04</rscale>
<asrwt>0</asrwt>
<pdfrwt beam="1">  1        1 0.24704621E+00 0.13802685E+04</pdfrwt>
<pdfrwt beam="2">  1       -2 0.45631241E-01 0.13802685E+04</pdfrwt>
<totfact> 0.21580762E+01</totfact>
</mgrwt>
</event>
<event>
12    5  0.5041746E-008  0.1705942E+04  0.7818608E-02  0.8757983E-01
         -2   -1    0    0    0  501 -0.00000000000E+00  0.00000000000E+00  0.97593410394E+03  0.97593410394E+03  0.00000000000E+00 0.  1.
          1   -1    0    0  501    0  0.00000000000E+00 -0.00000000000E+00 -0.74550027012E+03  0.74550027012E+03  0.00000000000E+00 0. -1.
        -24    2    1    2    0    0  0.37994822354E+03 -0.11251358488E+03 -0.37295949731E+03  0.54949428529E+03  0.76323152340E+02 0.  0.
        254    2    1    2    0    0 -0.37994822354E+03  0.11251358488E+03  0.60339333113E+03  0.11719400888E+04  0.92322267101E+03 0.  0.
         23    2    4    4    0    0 -0.25473711650E+03  0.38150641168E+03 -0.27668880600E+02  0.46861470327E+03  0.91629866778E+02 0.  0.
         23    2    4    4    0    0 -0.12521110704E+03 -0.26899282680E+03  0.63106221173E+03  0.70332538551E+03  0.91608518338E+02 0.  0.
          3    1    3    3  502    0  0.26601499403E+03 -0.82752045259E+02 -0.30684946812E+03  0.41444960385E+03  0.00000000000E+00 0. -1.
         -4    1    3    3    0  502  0.11393322951E+03 -0.29761539621E+02 -0.66110029184E+02  0.13504468144E+03  0.00000000000E+00 0.  1.
         13    1    5    5    0    0 -0.24837084576E+03  0.38039063714E+03 -0.15176912923E+02  0.45454972504E+03  0.00000000000E+00 0.  1.
        -13    1    5    5    0    0 -0.63662707385E+01  0.11157745372E+01 -0.12491967677E+02  0.14064978222E+02  0.00000000000E+00 0. -1.
          1    1    6    6  503    0 -0.65677339868E+00 -0.81480309125E+02  0.12196796446E+03  0.14668216143E+03  0.00000000000E+00 0. -1.
         -1    1    6    6    0  503 -0.12455433364E+03 -0.18751251768E+03  0.50909424726E+03  0.55664322408E+03  0.00000000000E+00 0.  1.
<mgrwt>
<rscale>  0 0.17059415E+04</rscale>
<asrwt>0</asrwt>
<pdfrwt beam="1">  1        1 0.11469235E+00 0.17059415E+04</pdfrwt>
<pdfrwt beam="2">  1       -2 0.15014371E+00 0.17059415E+04</pdfrwt>
<totfact> 0.61522281E+00</totfact>
</mgrwt>
</event>
<event>
12    5  0.5041746E-008  0.2647924E+04  0.7818608E-02  0.8352102E-01
          1   -1    0    0  501    0  0.00000000000E+00  0.00000000000E+00  0.95965204713E+03  0.95965204713E+03  0.00000000000E+00 0. -1.
         -2   -1    0    0    0  501 -0.00000000000E+00 -0.00000000000E+00 -0.18265733609E+04  0.18265733609E+04  0.00000000000E+00 0.  1.
        -24    2    1    2    0    0 -0.24108286493E+03 -0.68818257273E+03 -0.13413965878E+04  0.15291141229E+04  0.84433369037E+02 0.  0.
        254    2    1    2    0    0  0.24108286493E+03  0.68818257273E+03  0.47447527409E+03  0.12571112851E+04  0.90746118170E+03 0.  0.
         23    2    4    4    0    0  0.36066786381E+03  0.82709597762E+03  0.52330440611E+03  0.10470233461E+04  0.90781725675E+02 0.  0.
         23    2    4    4    0    0 -0.11958499888E+03 -0.13891340489E+03 -0.48829132026E+02  0.21008793898E+03  0.90305879970E+02 0.  0.
          3    1    3    3  502    0 -0.23963443720E+02 -0.17503566098E+03 -0.33847202221E+03  0.38180497518E+03  0.00000000000E+00 0. -1.
         -4    1    3    3    0  502 -0.21711942121E+03 -0.51314691175E+03 -0.10029245656E+04  0.11473091477E+04  0.00000000000E+00 0.  1.
         13    1    5    5    0    0  0.31911804260E+02  0.37220344110E+02  0.46496321960E+02  0.67569410406E+02  0.00000000000E+00 0. -1.
        -13    1    5    5    0    0  0.32875605955E+03  0.78987563351E+03  0.47680808415E+03  0.97945393573E+03  0.00000000000E+00 0.  1.
          2    1    6    6  503    0 -0.80138329655E+02 -0.34420831669E+02  0.23063805121E+01  0.87248294675E+02  0.00000000000E+00 0. -1.
         -2    1    6    6    0  503 -0.39446669223E+02 -0.10449257322E+03 -0.51135512538E+02  0.12283964431E+03  0.00000000000E+00 0.  1.
<mgrwt>
<rscale>  0 0.26479236E+04</rscale>
<asrwt>0</asrwt>
<pdfrwt beam="1">  1        1 0.14763878E+00 0.26479236E+04</pdfrwt>
<pdfrwt beam="2">  1       -2 0.28101128E+00 0.26479236E+04</pdfrwt>
<totfact> 0.52011333E-01</totfact>
</mgrwt>
</event>
<event>
12    5  0.5041746E-008  0.1687872E+04  0.7818608E-02  0.8768312E-01
         -2   -1    0    0    0  501 -0.00000000000E+00  0.00000000000E+00  0.15414812500E+04  0.15414812500E+04  0.00000000000E+00 0.  1.
          1   -1    0    0  501    0  0.00000000000E+00 -0.00000000000E+00 -0.46204127974E+03  0.46204127974E+03  0.00000000000E+00 0. -1.
        -24    2    1    2    0    0 -0.39994819772E+03 -0.35926880850E+03  0.70832077632E+03  0.89272269875E+03  0.78758219133E+02 0.  0.
        254    2    1    2    0    0  0.39994819772E+03  0.35926880850E+03  0.37111919398E+03  0.11107998310E+04  0.89839533104E+03 0.  0.
         23    2    4    4    0    0 -0.20510846475E+03 -0.29330960814E+02  0.30960112637E+03  0.38346499320E+03  0.90899702890E+02 0.  0.
         23    2    4    4    0    0  0.60505666247E+03  0.38859976931E+03  0.61518067609E+02  0.72733483782E+03  0.90156242989E+02 0.  0.
          3    1    3    3  502    0 -0.86477104341E+02 -0.11908446810E+03  0.22027432685E+03  0.26491541893E+03  0.00000000000E+00 0. -1.
         -4    1    3    3    0  502 -0.31347109338E+03 -0.24018434040E+03  0.48804644947E+03  0.62780727982E+03  0.00000000000E+00 0.  1.
         13    1    5    5    0    0 -0.18574513264E+03 -0.49405377453E+02  0.23360227882E+03  0.30250978544E+03  0.00000000000E+00 0. -1.
        -13    1    5    5    0    0 -0.19363332115E+02  0.20074416639E+02  0.75998847547E+02  0.80955207754E+02  0.00000000000E+00 0.  1.
          2    1    6    6  503    0  0.55593437068E+03  0.32434832968E+03  0.60236975606E+02  0.64644671605E+03  0.00000000000E+00 0. -1.
         -2    1    6    6    0  503  0.49122291797E+02  0.64251439630E+02  0.12810920039E+01  0.80888121765E+02  0.00000000000E+00 0.  1.
<mgrwt>
<rscale>  0 0.16878720E+04</rscale>
<asrwt>0</asrwt>
<pdfrwt beam="1">  1        1 0.71083274E-01 0.16878720E+04</pdfrwt>
<pdfrwt beam="2">  1       -2 0.23715096E+00 0.16878720E+04</pdfrwt>
<totfact> 0.31746502E+00</totfact>
</mgrwt>
</event>
<event>
12    5  0.5041746E-008  0.4128565E+04  0.7818608E-02  0.7979102E-01
         -2   -1    0    0    0  501 -0.00000000000E+00  0.00000000000E+00  0.18403489209E+04  0.18403489209E+04  0.00000000000E+00 0.  1.
          1   -1    0    0  501    0  0.00000000000E+00 -0.00000000000E+00 -0.23154639163E+04  0.23154639163E+04  0.00000000000E+00 0. -1.
        -24    2    1    2    0    0  0.81388489772E+02 -0.14390069464E+04  0.11178348032E+04  0.18257214180E+04  0.79617654534E+02 0.  0.
        254    2    1    2    0    0 -0.81388489772E+02  0.14390069464E+04 -0.15929497986E+04  0.23300914193E+04  0.90248096008E+03 0.  0.
         23    2    4    4    0    0 -0.52118068171E+02  0.85586103491E+03 -0.30812582285E+03  0.91575597475E+03  0.91940624794E+02 0.  0.
         23    2    4    4    0    0 -0.29270421601E+02  0.58314591147E+03 -0.12848239757E+04  0.14143354445E+04  0.93038644252E+02 0.  0.
          3    1    3    3  502    0 -0.88831692697E+01 -0.39601387885E+03  0.32843384830E+03  0.51456262559E+03  0.00000000000E+00 0. -1.
         -4    1    3    3    0  502  0.90271659042E+02 -0.10429930675E+04  0.78940095487E+03  0.13111587924E+04  0.00000000000E+00 0.  1.
         13    1    5    5    0    0  0.17437785799E+02  0.10115477593E+03 -0.17968916584E+02  0.10420771099E+03  0.00000000000E+00 0.  1.
        -13    1    5    5    0    0 -0.69555853970E+02  0.75470625898E+03 -0.29015690627E+03  0.81154826377E+03  0.00000000000E+00 0. -1.
          1    1    6    6  503    0 -0.20643191655E+02  0.57198157818E+03 -0.12736312683E+04  0.13963257767E+04  0.00000000000E+00 0. -1.
         -1    1    6    6    0  503 -0.86272299454E+01  0.11164333297E+02 -0.11192707459E+02  0.18009667814E+02  0.00000000000E+00 0.  1.
<mgrwt>
<rscale>  0 0.41285647E+04</rscale>
<asrwt>0</asrwt>
<pdfrwt beam="1">  1        1 0.35622522E+00 0.41285647E+04</pdfrwt>
<pdfrwt beam="2">  1       -2 0.28313060E+00 0.41285647E+04</pdfrwt>
<totfact> 0.49857279E-02</totfact>
</mgrwt>
</event>
<event>
12    5  0.5041746E-008  0.4370918E+04  0.7818608E-02  0.7933633E-01
         -2   -1    0    0    0  501 -0.00000000000E+00  0.00000000000E+00  0.28084934795E+04  0.28084934795E+04  0.00000000000E+00 0.  1.
          1   -1    0    0  501    0  0.00000000000E+00 -0.00000000000E+00 -0.17006380503E+04  0.17006380503E+04  0.00000000000E+00 0. -1.
        -24    2    1    2    0    0 -0.12292101691E+04 -0.16449817685E+04  0.95869348088E+03  0.22676720265E+04  0.79502018039E+02 0.  0.
        254    2    1    2    0    0  0.12292101691E+04  0.16449817685E+04  0.14916194830E+03  0.22414595034E+04  0.88598462730E+03 0.  0.
         23    2    4    4    0    0  0.11697875816E+04  0.14064446508E+04 -0.15714945599E+03  0.18382391596E+04  0.89093851427E+02 0.  0.
         23    2    4    4    0    0  0.59422587500E+02  0.23853711769E+03  0.30631140430E+03  0.40322034379E+03  0.91263184371E+02 0.  0.
          3    1    3    3  502    0 -0.13599457029E+03 -0.21142043268E+03  0.96425692278E+02  0.26924159529E+03  0.00000000000E+00 0. -1.
         -2    1    3    3    0  502 -0.10932155988E+04 -0.14335613359E+04  0.86226778860E+03  0.19984304312E+04  0.00000000000E+00 0.  1.
         13    1    5    5    0    0  0.32766156057E+03  0.34110147202E+03 -0.21099207677E+02  0.47345273160E+03  0.00000000000E+00 0.  1.
        -13    1    5    5    0    0  0.84212602102E+03  0.10653431788E+04 -0.13605024832E+03  0.13647864280E+04  0.00000000000E+00 0. -1.
          2    1    6    6  503    0  0.70452762063E+02  0.23651409864E+03  0.27270084522E+03  0.36778833793E+03  0.00000000000E+00 0. -1.
         -2    1    6    6    0  503 -0.11030174563E+02  0.20230190429E+01  0.33610559081E+02  0.35432005852E+02  0.00000000000E+00 0.  1.
<mgrwt>
<rscale>  0 0.43709179E+04</rscale>
<asrwt>0</asrwt>
<pdfrwt beam="1">  1        1 0.26163662E+00 0.43709179E+04</pdfrwt>
<pdfrwt beam="2">  1       -2 0.43207592E+00 0.43709179E+04</pdfrwt>
<totfact> 0.14487122E-02</totfact>
</mgrwt>
</event>
<event>
12    5  0.5041746E-008  0.2203931E+04  0.7818608E-02  0.8516794E-01
          1   -1    0    0  501    0  0.00000000000E+00  0.00000000000E+00  0.22373840618E+04  0.22373840618E+04  0.00000000000E+00 0. -1.
         -2   -1    0    0    0  501 -0.00000000000E+00 -0.00000000000E+00 -0.54274432825E+03  0.54274432825E+03  0.00000000000E+00 0.  1.
        -24    2    1    2    0    0 -0.57147176886E+03 -0.23375332614E+03 -0.14992718874E+03  0.64037909104E+03  0.79916320192E+02 0.  0.
        254    2    1    2    0    0  0.57147176886E+03  0.23375332614E+03  0.18445669223E+04  0.21397492990E+04  0.89156005503E+03 0.  0.
         23    2    4    4    0    0  0.79199173875E+02  0.20493025242E+03  0.10157284934E+02  0.23796243171E+03  0.90851697662E+02 0.  0.
         23    2    4    4    0    0  0.49227259498E+03  0.28823073721E+02  0.18344096373E+04  0.19017868673E+04  0.92582361591E+02 0.  0.
          1    1    3    3  502    0 -0.14925867055E+03 -0.95308523909E+02 -0.25228158824E+02  0.17888075766E+03  0.00000000000E+00 0. -1.
         -2    1    3    3    0  502 -0.42221309830E+03 -0.13844480223E+03 -0.12469902992E+03  0.46149833337E+03  0.00000000000E+00 0.  1.
         13    1    5    5    0    0  0.62713489749E+02  0.59955441655E+02 -0.19840445147E+02  0.89001573268E+02  0.00000000000E+00 0. -1.
        -13    1    5    5    0    0  0.16485684126E+02  0.14497481076E+03  0.29997730081E+02  0.14896085844E+03  0.00000000000E+00 0.  1.
          1    1    6    6  503    0  0.28428332336E+03  0.31920238540E+02  0.12211217167E+04  0.12541826648E+04  0.00000000000E+00 0. -1.
         -1    1    6    6    0  503  0.20798927162E+03 -0.30971648186E+01  0.61328792061E+03  0.64760420251E+03  0.00000000000E+00 0.  1.
<mgrwt>
<rscale>  0 0.22039306E+04</rscale>
<asrwt>0</asrwt>
<pdfrwt beam="1">  1        1 0.34421293E+00 0.22039306E+04</pdfrwt>
<pdfrwt beam="2">  1       -2 0.83499129E-01 0.22039306E+04</pdfrwt>
<totfact> 0.20638171E+00</totfact>
</mgrwt>
</event>
<event>
12    5  0.5041746E-008  0.2074141E+04  0.7818608E-02  0.8572721E-01
         -2   -1    0    0    0  501 -0.00000000000E+00  0.00000000000E+00  0.59395703416E+03  0.59395703416E+03  0.00000000000E+00 0.  1.
          1   -1    0    0  501    0  0.00000000000E+00 -0.00000000000E+00 -0.18107623219E+04  0.18107623219E+04  0.00000000000E+00 0. -1.
        -24    2    1    2    0    0  0.68335380015E+03  0.48487515176E+03 -0.55343743123E+03  0.10079422546E+04  0.87053255878E+02 0.  0.
        254    2    1    2    0    0 -0.68335380015E+03 -0.48487515176E+03 -0.66336785648E+03  0.13967771014E+04  0.89936256822E+03 0.  0.
         23    2    4    4    0    0 -0.81296517704E+02  0.24567467494E+03 -0.19330595850E+03  0.33572598357E+03  0.91540006290E+02 0.  0.
         23    2    4    4    0    0 -0.60205728245E+03 -0.73054982670E+03 -0.47006189798E+03  0.10610511179E+04  0.93248411001E+02 0.  0.
          1    1    3    3  502    0  0.13634204927E+03  0.80005995186E+02 -0.14329188166E+03  0.21336043920E+03  0.00000000000E+00 0. -1.
         -2    1    3    3    0  502  0.54701175088E+03  0.40486915657E+03 -0.41014554957E+03  0.79458181541E+03  0.00000000000E+00 0.  1.
         13    1    5    5    0    0 -0.75612709650E+02  0.85256482025E+02 -0.81999364727E+02  0.14039175689E+03  0.00000000000E+00 0.  1.
        -13    1    5    5    0    0 -0.56838080537E+01  0.16041819292E+03 -0.11130659377E+03  0.19533422667E+03  0.00000000000E+00 0. -1.
          4    1    6    6  503    0 -0.35920574825E+03 -0.47466586323E+03 -0.33682262359E+03  0.68394877809E+03  0.00000000000E+00 0. -1.
         -4    1    6    6    0  503 -0.24285153420E+03 -0.25588396348E+03 -0.13323927439E+03  0.37710233978E+03  0.00000000000E+00 0.  1.
<mgrwt>
<rscale>  0 0.20741408E+04</rscale>
<asrwt>0</asrwt>
<pdfrwt beam="1">  1        1 0.27857881E+00 0.20741408E+04</pdfrwt>
<pdfrwt beam="2">  1       -2 0.91378007E-01 0.20741408E+04</pdfrwt>
<totfact> 0.33081854E+00</totfact>
</mgrwt>
</event>
<event>
12    5  0.5041746E-008  0.1715720E+04  0.7818608E-02  0.8752449E-01
         -2   -1    0    0    0  501 -0.00000000000E+00  0.00000000000E+00  0.79237768161E+03  0.79237768161E+03  0.00000000000E+00 0.  1.
          1   -1    0    0  501    0  0.00000000000E+00 -0.00000000000E+00 -0.92875430316E+03  0.92875430316E+03  0.00000000000E+00 0. -1.
        -24    2    1    2    0    0 -0.59840582558E+01 -0.51078158673E+03 -0.40453611376E+03  0.65623211625E+03  0.77829844987E+02 0.  0.
        254    2    1    2    0    0  0.59840582558E+01  0.51078158673E+03  0.26815949221E+03  0.10648998685E+04  0.89508020781E+03 0.  0.
         23    2    4    4    0    0  0.41524004807E+03  0.41451713884E+03  0.95042094985E+02  0.60106203637E+03  0.89408141853E+02 0.  0.
         23    2    4    4    0    0 -0.40925598982E+03  0.96264447891E+02  0.17311739722E+03  0.46383783215E+03  0.91752886504E+02 0.  0.
          3    1    3    3  502    0 -0.51518697441E+01 -0.32127209926E+03 -0.30102956441E+03  0.44029660704E+03  0.00000000000E+00 0. -1.
         -4    1    3    3    0  502 -0.83218851174E+00 -0.18950948748E+03 -0.10350654934E+03  0.21593550921E+03  0.00000000000E+00 0.  1.
         13    1    5    5    0    0  0.13255318060E+03  0.19407362426E+03  0.37426338250E+02  0.23798245338E+03  0.00000000000E+00 0. -1.
        -13    1    5    5    0    0  0.28268686747E+03  0.22044351458E+03  0.57615756735E+02  0.36307958299E+03  0.00000000000E+00 0.  1.
          4    1    6    6  503    0 -0.36457996463E+02  0.46913301880E+01 -0.10605754634E+02  0.38258020288E+02  0.00000000000E+00 0. -1.
         -4    1    6    6    0  503 -0.37279799335E+03  0.91573117703E+02  0.18372315185E+03  0.42557981186E+03  0.00000000000E+00 0.  1.
<mgrwt>
<rscale>  0 0.17157205E+04</rscale>
<asrwt>0</asrwt>
<pdfrwt beam="1">  1        1 0.14288528E+00 0.17157205E+04</pdfrwt>
<pdfrwt beam="2">  1       -2 0.12190426E+00 0.17157205E+04</pdfrwt>
<totfact> 0.73310298E+00</totfact>
</mgrwt>
</event>
<event>
12    5  0.5041746E-008  0.1212110E+04  0.7818608E-02  0.9102322E-01
         -2   -1    0    0    0  501 -0.00000000000E+00  0.00000000000E+00  0.50862857206E+03  0.50862857206E+03  0.00000000000E+00 0.  1.
          1   -1    0    0  501    0  0.00000000000E+00 -0.00000000000E+00 -0.72214367340E+03  0.72214367340E+03  0.00000000000E+00 0. -1.
        -24    2    1    2    0    0  0.28950100484E+00  0.12065687804E+02  0.21424908412E+03  0.22920867693E+03  0.80549878335E+02 0.  0.
        254    2    1    2    0    0 -0.28950100484E+00 -0.12065687804E+02 -0.42776418547E+03  0.10015635685E+04  0.90553946286E+03 0.  0.
         23    2    4    4    0    0 -0.59710419452E+02  0.25605000037E+03  0.17815813579E+03  0.33019951553E+03  0.90357411570E+02 0.  0.
         23    2    4    4    0    0  0.59420918447E+02 -0.26811568818E+03 -0.60592232126E+03  0.67136405300E+03  0.90393387272E+02 0.  0.
          3    1    3    3  502    0 -0.57236613906E+01 -0.87020392961E+01 -0.30371461377E+01  0.10849425989E+02  0.00000000000E+00 0. -1.
         -4    1    3    3    0  502  0.60131623955E+01  0.20767727100E+02  0.21728623026E+03  0.21835925094E+03  0.00000000000E+00 0.  1.
         13    1    5    5    0    0 -0.54220509513E+01  0.18993020146E+03  0.14253801780E+03  0.23752887526E+03  0.00000000000E+00 0. -1.
        -13    1    5    5    0    0 -0.54288368500E+02  0.66119798907E+02  0.35620117994E+02  0.92670640269E+02  0.00000000000E+00 0.  1.
          1    1    6    6  503    0  0.82761946053E+02 -0.22693208238E+03 -0.51612301030E+03  0.56985144686E+03  0.00000000000E+00 0. -1.
         -1    1    6    6    0  503 -0.23341027606E+02 -0.41183605793E+02 -0.89799310960E+02  0.10151260614E+03  0.00000000000E+00 0.  1.
<mgrwt>
<rscale>  0 0.12121104E+04</rscale>
<asrwt>0</asrwt>
<pdfrwt beam="1">  1        1 0.11109903E+00 0.12121104E+04</pdfrwt>
<pdfrwt beam="2">  1       -2 0.78250550E-01 0.12121104E+04</pdfrwt>
<totfact> 0.32687447E+01</totfact>
</mgrwt>
</event>
<event>
12    5  0.5041746E-008  0.1921018E+04  0.7818608E-02  0.8644464E-01
          1   -1    0    0  501    0  0.00000000000E+00  0.00000000000E+00  0.35784433396E+04  0.35784433396E+04  0.00000000000E+00 0. -1.
         -2   -1    0    0    0  501 -0.00000000000E+00 -0.00000000000E+00 -0.25781545396E+03  0.25781545396E+03  0.00000000000E+00 0.  1.
        -24    2    1    2    0    0  0.89173430803E+02 -0.52239906116E+03  0.24649127103E+03  0.58988984513E+03  0.79745864070E+02 0.  0.
        254    2    1    2    0    0 -0.89173430803E+02  0.52239906116E+03  0.30741366146E+04  0.32463689484E+04  0.89874509407E+03 0.  0.
         23    2    4    4    0    0  0.28313338599E+02  0.72386271682E+03  0.26919890179E+04  0.27893924657E+04  0.95533121760E+02 0.  0.
         23    2    4    4    0    0 -0.11748676940E+03 -0.20146365567E+03  0.38214759667E+03  0.45697648266E+03  0.91651374931E+02 0.  0.
          3    1    3    3  502    0 -0.14067600288E+02 -0.64129429514E+02  0.21933562691E+02  0.69221111519E+02  0.00000000000E+00 0. -1.
         -4    1    3    3    0  502  0.10324103109E+03 -0.45826963164E+03  0.22455770834E+03  0.52066873361E+03  0.00000000000E+00 0.  1.
         13    1    5    5    0    0 -0.24540177356E+01  0.49749697132E+03  0.19858378467E+04  0.20472081507E+04  0.00000000000E+00 0. -1.
        -13    1    5    5    0    0  0.30767356335E+02  0.22636574550E+03  0.70615117119E+03  0.74218431507E+03  0.00000000000E+00 0.  1.
          4    1    6    6  503    0 -0.40268394884E+02 -0.67019079279E+02  0.21604855919E+03  0.22976092040E+03  0.00000000000E+00 0.  1.
         -4    1    6    6    0  503 -0.77218374518E+02 -0.13444457639E+03  0.16609903748E+03  0.22721556226E+03  0.00000000000E+00 0. -1.
<mgrwt>
<rscale>  0 0.19210185E+04</rscale>
<asrwt>0</asrwt>
<pdfrwt beam="1">  1        1 0.55052971E+00 0.19210185E+04</pdfrwt>
<pdfrwt beam="2">  1       -2 0.39663918E-01 0.19210185E+04</pdfrwt>
<totfact> 0.10741219E+00</totfact>
</mgrwt>
</event>
<event>
12    5  0.5041746E-008  0.1495330E+04  0.7818608E-02  0.8887564E-01
          1   -1    0    0  501    0  0.00000000000E+00  0.00000000000E+00  0.15958693860E+04  0.15958693860E+04  0.00000000000E+00 0. -1.
         -2   -1    0    0    0  501 -0.00000000000E+00 -0.00000000000E+00 -0.35028113503E+03  0.35028113503E+03  0.00000000000E+00 0.  1.
        -24    2    1    2    0    0 -0.20549967445E+03  0.31489046338E+03  0.22098060650E+02  0.38496397927E+03  0.79516167697E+02 0.  0.
        254    2    1    2    0    0  0.20549967445E+03 -0.31489046338E+03  0.12234901903E+04  0.15611865417E+04  0.89386187535E+03 0.  0.
         23    2    4    4    0    0  0.52854593470E+03 -0.88532551330E+02  0.85793723632E+03  0.10156726339E+04  0.91300493646E+02 0.  0.
         23    2    4    4    0    0 -0.32304626025E+03 -0.22635791205E+03  0.36555295398E+03  0.54551390779E+03  0.91431235465E+02 0.  0.
          1    1    3    3  502    0 -0.21107924786E+01  0.47807003136E+02  0.10840862276E+02  0.49066172549E+02  0.00000000000E+00 0. -1.
         -2    1    3    3    0  502 -0.20338888197E+03  0.26708346025E+03  0.11257198374E+02  0.33589780672E+03  0.00000000000E+00 0.  1.
         13    1    5    5    0    0  0.52343654903E+03 -0.98166587886E+02  0.84398107748E+03  0.99796120114E+03  0.00000000000E+00 0.  1.
        -13    1    5    5    0    0  0.51093856690E+01  0.96340365562E+01  0.13956158846E+02  0.17711432805E+02  0.00000000000E+00 0. -1.
          3    1    6    6  503    0 -0.82699480027E+02 -0.33250665515E+02  0.12951046947E+03  0.15721886801E+03  0.00000000000E+00 0. -1.
         -3    1    6    6    0  503 -0.24034678022E+03 -0.19310724654E+03  0.23604248451E+03  0.38829503978E+03  0.00000000000E+00 0.  1.
<mgrwt>
<rscale>  0 0.14953300E+04</rscale>
<asrwt>0</asrwt>
<pdfrwt beam="1">  1        1 0.24551836E+00 0.14953300E+04</pdfrwt>
<pdfrwt beam="2">  1       -2 0.53889407E-01 0.14953300E+04</pdfrwt>
<totfact> 0.15471860E+01</totfact>
</mgrwt>
</event>
<event>
12    5  0.5041746E-008  0.1731066E+04  0.7818608E-02  0.8743842E-01
          1   -1    0    0  501    0  0.00000000000E+00  0.00000000000E+00  0.65936018271E+03  0.65936018271E+03  0.00000000000E+00 0. -1.
         -2   -1    0    0    0  501 -0.00000000000E+00 -0.00000000000E+00 -0.11361738148E+04  0.11361738148E+04  0.00000000000E+00 0.  1.
        -24    2    1    2    0    0 -0.47248418144E+03 -0.76402145625E+02  0.25517813034E+03  0.54815685069E+03  0.79255694956E+02 0.  0.
        254    2    1    2    0    0  0.47248418144E+03  0.76402145625E+02 -0.73199176244E+03  0.12473771468E+04  0.88941509804E+03 0.  0.
         23    2    4    4    0    0 -0.84810520028E+02 -0.29943500119E+03 -0.30840114371E+03  0.44777438230E+03  0.92393115349E+02 0.  0.
         23    2    4    4    0    0  0.55729470147E+03  0.37583714681E+03 -0.42359061874E+03  0.79960276454E+03  0.90025682841E+02 0.  0.
          1    1    3    3  502    0 -0.36788629093E+03 -0.89353042629E+02  0.18360566732E+03  0.42075566587E+03  0.00000000000E+00 0. -1.
         -2    1    3    3    0  502 -0.10459789050E+03  0.12950897004E+02  0.71572463016E+02  0.12740118482E+03  0.00000000000E+00 0.  1.
         13    1    5    5    0    0 -0.37183828933E+02 -0.14230763823E+03 -0.20990724839E+03  0.25631065908E+03  0.00000000000E+00 0.  1.
        -13    1    5    5    0    0 -0.47626691095E+02 -0.15712736296E+03 -0.98493895316E+02  0.19146372322E+03  0.00000000000E+00 0. -1.
          2    1    6    6  503    0  0.36450449475E+03  0.20349908734E+03 -0.29205765845E+03  0.50948315095E+03  0.00000000000E+00 0. -1.
         -2    1    6    6    0  503  0.19279020672E+03  0.17233805947E+03 -0.13153296029E+03  0.29011961359E+03  0.00000000000E+00 0.  1.
<mgrwt>
<rscale>  0 0.17310665E+04</rscale>
<asrwt>0</asrwt>
<pdfrwt beam="1">  1        1 0.10144003E+00 0.17310665E+04</pdfrwt>
<pdfrwt beam="2">  1       -2 0.17479597E+00 0.17310665E+04</pdfrwt>
<totfact> 0.48804563E+00</totfact>
</mgrwt>
</event>
<event>
12    5  0.5041746E-008  0.1970180E+04  0.7818608E-02  0.8620691E-01
          1   -1    0    0  501    0  0.00000000000E+00  0.00000000000E+00  0.14007619005E+04  0.14007619005E+04  0.00000000000E+00 0. -1.
         -2   -1    0    0    0  501 -0.00000000000E+00 -0.00000000000E+00 -0.69276743795E+03  0.69276743795E+03  0.00000000000E+00 0.  1.
        -24    2    1    2    0    0 -0.14887724175E+03  0.66275606630E+03 -0.12221124352E+03  0.69452874108E+03  0.77617959344E+02 0.  0.
        254    2    1    2    0    0  0.14887724175E+03 -0.66275606630E+03  0.83020570603E+03  0.13990005973E+04  0.89808191190E+03 0.  0.
         23    2    4    4    0    0  0.55020133966E+02 -0.21230477745E+03 -0.17143699018E+03  0.29290812503E+03  0.91126255474E+02 0.  0.
         23    2    4    4    0    0  0.93857107785E+02 -0.45045128885E+03  0.10016426962E+04  0.11060924723E+04  0.91852850252E+02 0.  0.
          3    1    3    3  502    0  0.88530818744E+00  0.99189130566E+02 -0.24059927619E+01  0.99222256547E+02  0.00000000000E+00 0. -1.
         -4    1    3    3    0  502 -0.14976254994E+03  0.56356693574E+03 -0.11980525076E+03  0.59530648453E+03  0.00000000000E+00 0.  1.
         13    1    5    5    0    0  0.30442924666E+01  0.79734470570E+01 -0.16658887808E+02  0.18717962431E+02  0.00000000000E+00 0.  1.
        -13    1    5    5    0    0  0.51975841499E+02 -0.22027822451E+03 -0.15477810237E+03  0.27419016260E+03  0.00000000000E+00 0. -1.
          1    1    6    6  503    0  0.10833247079E+03 -0.35815408413E+03  0.76291904247E+03  0.84973862897E+03  0.00000000000E+00 0. -1.
         -1    1    6    6    0  503 -0.14475363004E+02 -0.92297204717E+02  0.23872365374E+03  0.25635384333E+03  0.00000000000E+00 0.  1.
<mgrwt>
<rscale>  0 0.19701799E+04</rscale>
<asrwt>0</asrwt>
<pdfrwt beam="1">  1        1 0.21550183E+00 0.19701799E+04</pdfrwt>
<pdfrwt beam="2">  1       -2 0.10657961E+00 0.19701799E+04</pdfrwt>
<totfact> 0.44412174E+00</totfact>
</mgrwt>
</event>
<event>
12    5  0.5041746E-008  0.2502601E+04  0.7818608E-02  0.8402059E-01
         -2   -1    0    0    0  501 -0.00000000000E+00  0.00000000000E+00  0.10276171962E+04  0.10276171962E+04  0.00000000000E+00 0.  1.
          1   -1    0    0  501    0  0.00000000000E+00 -0.00000000000E+00 -0.15236737058E+04  0.15236737058E+04  0.00000000000E+00 0. -1.
        -24    2    1    2    0    0  0.66224043455E+03  0.50652156850E+03 -0.93501563339E+03  0.12553117525E+04  0.80167753913E+02 0.  0.
        254    2    1    2    0    0 -0.66224043455E+03 -0.50652156850E+03  0.43895912378E+03  0.12959791494E+04  0.88980354623E+03 0.  0.
         23    2    4    4    0    0 -0.53573940000E+03  0.12503781757E+03  0.11293222946E+03  0.56860807486E+03  0.88939832583E+02 0.  0.
         23    2    4    4    0    0 -0.12650103455E+03 -0.63155938607E+03  0.32602689432E+03  0.72737107456E+03  0.88912172428E+02 0.  0.
          3    1    3    3  502    0  0.51844521007E+03  0.36160568809E+03 -0.73651316376E+03  0.97056465518E+03  0.00000000000E+00 0. -1.
         -4    1    3    3    0  502  0.14379522448E+03  0.14491588042E+03 -0.19850246963E+03  0.28474709731E+03  0.00000000000E+00 0.  1.
         13    1    5    5    0    0 -0.26855946986E+03  0.17970129066E+02  0.45471858968E+02  0.27297399940E+03  0.00000000000E+00 0. -1.
        -13    1    5    5    0    0 -0.26717993013E+03  0.10706768851E+03  0.67460370488E+02  0.29563407546E+03  0.00000000000E+00 0.  1.
          2    1    6    6  503    0 -0.13202863927E+03 -0.62478135976E+03  0.31171436123E+03  0.71059774281E+03  0.00000000000E+00 0.  1.
         -2    1    6    6    0  503  0.55276047166E+01 -0.67780263168E+01  0.14312533086E+02  0.16773331750E+02  0.00000000000E+00 0. -1.
<mgrwt>
<rscale>  0 0.25026013E+04</rscale>
<asrwt>0</asrwt>
<pdfrwt beam="1">  1        1 0.23441134E+00 0.25026013E+04</pdfrwt>
<pdfrwt beam="2">  1       -2 0.15809495E+00 0.25026013E+04</pdfrwt>
<totfact> 0.12785852E+00</totfact>
</mgrwt>
</event>
<event>
12    5  0.5041746E-008  0.3324946E+04  0.7818608E-02  0.8156577E-01
         -2   -1    0    0    0  501 -0.00000000000E+00  0.00000000000E+00  0.19073221420E+04  0.19073221420E+04  0.00000000000E+00 0.  1.
          1   -1    0    0  501    0  0.00000000000E+00 -0.00000000000E+00 -0.14490559048E+04  0.14490559048E+04  0.00000000000E+00 0. -1.
        -24    2    1    2    0    0  0.13106853246E+04  0.80591990589E+03  0.21460964585E+03  0.15556917210E+04  0.81954352964E+02 0.  0.
        254    2    1    2    0    0 -0.13106853246E+04 -0.80591990589E+03  0.24365659131E+03  0.18006863258E+04  0.90316100155E+03 0.  0.
         23    2    4    4    0    0 -0.12571603517E+04 -0.90589840639E+03  0.38422262798E+03  0.15990107563E+04  0.90023877305E+02 0.  0.
         23    2    4    4    0    0 -0.53524972918E+02  0.99978500498E+02 -0.14056603667E+03  0.20167556950E+03  0.89741859689E+02 0.  0.
          3    1    3    3  502    0  0.10655341268E+04  0.67994126337E+03  0.15256766602E+03  0.12731692698E+04  0.00000000000E+00 0. -1.
         -4    1    3    3    0  502  0.24515119781E+03  0.12597864252E+03  0.62041979831E+02  0.28252245118E+03  0.00000000000E+00 0.  1.
         13    1    5    5    0    0 -0.29015419875E+03 -0.16382370962E+03  0.78384330985E+02  0.34230362286E+03  0.00000000000E+00 0. -1.
        -13    1    5    5    0    0 -0.96700615291E+03 -0.74207469677E+03  0.30583829699E+03  0.12567071334E+04  0.00000000000E+00 0.  1.
          4    1    6    6  503    0  0.10391128870E+02  0.19936244813E+01  0.75004654409E+01  0.12969467206E+02  0.00000000000E+00 0. -1.
         -4    1    6    6    0  503 -0.63916101788E+02  0.97984876017E+02 -0.14806650211E+03  0.18870610229E+03  0.00000000000E+00 0.  1.
<mgrwt>
<rscale>  0 0.33249460E+04</rscale>
<asrwt>0</asrwt>
<pdfrwt beam="1">  1        1 0.22293168E+00 0.33249460E+04</pdfrwt>
<pdfrwt beam="2">  1       -2 0.29343417E+00 0.33249460E+04</pdfrwt>
<totfact> 0.17991428E-01</totfact>
</mgrwt>
</event>
<event>
12    5  0.5041746E-008  0.1993187E+04  0.7818608E-02  0.8609812E-01
         -2   -1    0    0    0  501 -0.00000000000E+00  0.00000000000E+00  0.29152545573E+03  0.29152545573E+03  0.00000000000E+00 0.  1.
          1   -1    0    0  501    0  0.00000000000E+00 -0.00000000000E+00 -0.34069031292E+04  0.34069031292E+04  0.00000000000E+00 0. -1.
        -24    2    1    2    0    0 -0.78804683865E+03 -0.63410060262E+02 -0.13457236413E+04  0.15628208790E+04  0.79989533773E+02 0.  0.
        254    2    1    2    0    0  0.78804683865E+03  0.63410060262E+02 -0.17696540322E+04  0.21356077059E+04  0.89671970221E+03 0.  0.
         23    2    4    4    0    0  0.44605902706E+02 -0.26779193086E+03 -0.15615742781E+03  0.32604209006E+03  0.90642691057E+02 0.  0.
         23    2    4    4    0    0  0.74344093594E+03  0.33120199112E+03 -0.16134966044E+04  0.18095656159E+04  0.93580134867E+02 0.  0.
          3    1    3    3  502    0 -0.18127737042E+03 -0.30098999600E+01 -0.24946026495E+03  0.30838444889E+03  0.00000000000E+00 0. -1.
         -4    1    3    3    0  502 -0.60676946822E+03 -0.60400160302E+02 -0.10962633763E+04  0.12544364301E+04  0.00000000000E+00 0.  1.
         13    1    5    5    0    0  0.15255202700E+02 -0.25256248131E+03 -0.14113091662E+03  0.28972135545E+03  0.00000000000E+00 0.  1.
        -13    1    5    5    0    0  0.29350700006E+02 -0.15229449545E+02 -0.15026511189E+02  0.36320734613E+02  0.00000000000E+00 0. -1.
          3    1    6    6  503    0  0.67282212287E+03  0.32251253719E+03 -0.14343515461E+04  0.16168080602E+04  0.00000000000E+00 0.  1.
         -3    1    6    6    0  503  0.70618813067E+02  0.86894539295E+01 -0.17914505828E+03  0.19275755569E+03  0.00000000000E+00 0. -1.
<mgrwt>
<rscale>  0 0.19931874E+04</rscale>
<asrwt>0</asrwt>
<pdfrwt beam="1">  1        1 0.52413897E+00 0.19931874E+04</pdfrwt>
<pdfrwt beam="2">  1       -2 0.44850068E-01 0.19931874E+04</pdfrwt>
<totfact> 0.11406917E+00</totfact>
</mgrwt>
</event>
<event>
12    5  0.5041746E-008  0.1136287E+04  0.7818608E-02  0.9170528E-01
         -2   -1    0    0    0  501 -0.00000000000E+00  0.00000000000E+00  0.11541762302E+03  0.11541762302E+03  0.00000000000E+00 0.  1.
          1   -1    0    0  501    0  0.00000000000E+00 -0.00000000000E+00 -0.27966895772E+04  0.27966895772E+04  0.00000000000E+00 0. -1.
        -24    2    1    2    0    0 -0.37786441492E+02 -0.15454347957E+03 -0.87475986400E+03  0.89139400577E+03  0.63772655652E+02 0.  0.
        254    2    1    2    0    0  0.37786441492E+02  0.15454347957E+03 -0.18065120901E+04  0.20207131944E+04  0.89133853277E+03 0.  0.
         23    2    4    4    0    0  0.43045504801E+03  0.10795993275E+03 -0.62348609318E+03  0.77044268864E+03  0.88882690422E+02 0.  0.
         23    2    4    4    0    0 -0.39266860652E+03  0.46583546823E+02 -0.11830259970E+04  0.12502705058E+04  0.85247678707E+02 0.  0.
          3    1    3    3  502    0 -0.23690728345E+02 -0.87538424305E+02 -0.65404331309E+03  0.66030059952E+03  0.00000000000E+00 0. -1.
         -4    1    3    3    0  502 -0.14095713147E+02 -0.67005055267E+02 -0.22071655092E+03  0.23109340624E+03  0.00000000000E+00 0.  1.
         13    1    5    5    0    0  0.10621869530E+03  0.56579905662E+02 -0.12455841683E+03  0.17320073949E+03  0.00000000000E+00 0. -1.
        -13    1    5    5    0    0  0.32423635271E+03  0.51380027088E+02 -0.49892767634E+03  0.59724194915E+03  0.00000000000E+00 0.  1.
          4    1    6    6  503    0 -0.16961676231E+03  0.19956235501E+02 -0.64510828882E+03  0.66733260201E+03  0.00000000000E+00 0. -1.
         -4    1    6    6    0  503 -0.22305184421E+03  0.26627311321E+02 -0.53791770814E+03  0.58293790377E+03  0.00000000000E+00 0.  1.
<mgrwt>
<rscale>  0 0.11362874E+04</rscale>
<asrwt>0</asrwt>
<pdfrwt beam="1">  1        1 0.43025996E+00 0.11362874E+04</pdfrwt>
<pdfrwt beam="2">  1       -2 0.17756556E-01 0.11362874E+04</pdfrwt>
<totfact> 0.19474167E+01</totfact>
</mgrwt>
</event>
<event>
12    5  0.5041746E-008  0.1198077E+04  0.7818608E-02  0.9114542E-01
          1   -1    0    0  501    0  0.00000000000E+00  0.00000000000E+00  0.17836869500E+04  0.17836869500E+04  0.00000000000E+00 0. -1.
         -2   -1    0    0    0  501 -0.00000000000E+00 -0.00000000000E+00 -0.20118275236E+03  0.20118275236E+03  0.00000000000E+00 0.  1.
        -24    2    1    2    0    0  0.13797047967E+03 -0.44800144602E+02  0.60524001703E+01  0.16602407304E+03  0.80526114179E+02 0.  0.
        254    2    1    2    0    0 -0.13797047967E+03  0.44800144602E+02  0.15764517975E+04  0.18188456293E+04  0.89552009878E+03 0.  0.
         23    2    4    4    0    0  0.19939849819E+03 -0.27334022561E+02  0.14066217561E+04  0.14238763958E+04  0.91281519201E+02 0.  0.
         23    2    4    4    0    0 -0.33736897786E+03  0.72134167163E+02  0.16983004132E+03  0.39496923353E+03  0.90206913280E+02 0.  0.
          3    1    3    3  502    0 -0.21508554736E+01 -0.89075881184E+01  0.18702375500E+02  0.20826669314E+02  0.00000000000E+00 0. -1.
         -4    1    3    3    0  502  0.14012133514E+03 -0.35892556484E+02 -0.12649975330E+02  0.14519740373E+03  0.00000000000E+00 0.  1.
         13    1    5    5    0    0  0.48621694990E+02  0.32643754625E+02  0.39775437515E+03  0.40204256850E+03  0.00000000000E+00 0.  1.
        -13    1    5    5    0    0  0.15077680320E+03 -0.59977777187E+02  0.10088673810E+04  0.10218338273E+04  0.00000000000E+00 0. -1.
          4    1    6    6  503    0 -0.23945020064E+03  0.92205684719E+02  0.12513100829E+03  0.28547514098E+03  0.00000000000E+00 0. -1.
         -4    1    6    6    0  503 -0.97918777218E+02 -0.20071517556E+02  0.44699033029E+02  0.10949409255E+03  0.00000000000E+00 0.  1.
<mgrwt>
<rscale>  0 0.11980769E+04</rscale>
<asrwt>0</asrwt>
<pdfrwt beam="1">  1        1 0.27441337E+00 0.11980769E+04</pdfrwt>
<pdfrwt beam="2">  1       -2 0.30951194E-01 0.11980769E+04</pdfrwt>
<totfact> 0.35147692E+01</totfact>
</mgrwt>
</event>
<event>
12    5  0.5041746E-008  0.2462770E+04  0.7818608E-02  0.8416370E-01
          1   -1    0    0  501    0  0.00000000000E+00  0.00000000000E+00  0.95447714375E+03  0.95447714375E+03  0.00000000000E+00 0. -1.
         -2   -1    0    0    0  501 -0.00000000000E+00 -0.00000000000E+00 -0.15886276501E+04  0.15886276501E+04  0.00000000000E+00 0.  1.
        -24    2    1    2    0    0 -0.21847916944E+03  0.87734791772E+03  0.30101493443E+03  0.95585209912E+03  0.74637312607E+02 0.  0.
        254    2    1    2    0    0  0.21847916944E+03 -0.87734791772E+03 -0.93516544075E+03  0.15872526947E+04  0.90959562390E+03 0.  0.
         23    2    4    4    0    0 -0.27483716044E+02  0.13319639648E+02  0.13717928205E+03  0.16885144491E+03  0.93594271065E+02 0.  0.
         23    2    4    4    0    0  0.24596288548E+03 -0.89066755737E+03 -0.10723447228E+04  0.14184012498E+04  0.90290985584E+02 0.  0.
          3    1    3    3  502    0 -0.20685065880E+03  0.71603168737E+03  0.24019098043E+03  0.78305828611E+03  0.00000000000E+00 0. -1.
         -2    1    3    3    0  502 -0.11628510636E+02  0.16131623035E+03  0.60823954000E+02  0.17279381301E+03  0.00000000000E+00 0.  1.
         13    1    5    5    0    0 -0.61503443333E+02  0.14841021501E+02  0.76535987749E+02  0.99300991343E+02  0.00000000000E+00 0. -1.
        -13    1    5    5    0    0  0.34019727289E+02 -0.15213818525E+01  0.60643294302E+02  0.69550453567E+02  0.00000000000E+00 0.  1.
          1    1    6    6  503    0  0.21681519330E+03 -0.85639594251E+03 -0.10207922028E+04  0.13499776146E+04  0.00000000000E+00 0. -1.
         -1    1    6    6    0  503  0.29147692183E+02 -0.34271614858E+02 -0.51552519954E+02  0.68423635231E+02  0.00000000000E+00 0.  1.
<mgrwt>
<rscale>  0 0.24627698E+04</rscale>
<asrwt>0</asrwt>
<pdfrwt beam="1">  1        1 0.14684264E+00 0.24627698E+04</pdfrwt>
<pdfrwt beam="2">  1       -2 0.24440425E+00 0.24627698E+04</pdfrwt>
<totfact> 0.89382088E-01</totfact>
</mgrwt>
</event>
<event>
12    5  0.5041746E-008  0.2778110E+04  0.7818608E-02  0.8310097E-01
         -2   -1    0    0    0  501 -0.00000000000E+00  0.00000000000E+00  0.23212503018E+04  0.23212503018E+04  0.00000000000E+00 0.  1.
          1   -1    0    0  501    0  0.00000000000E+00 -0.00000000000E+00 -0.83122190862E+03  0.83122190862E+03  0.00000000000E+00 0. -1.
        -24    2    1    2    0    0 -0.40281255542E+03 -0.77768314406E+03 -0.32335509192E+03  0.93712618159E+03  0.81227688621E+02 0.  0.
        254    2    1    2    0    0  0.40281255542E+03  0.77768314406E+03  0.18133834851E+04  0.22153460288E+04  0.92322767291E+03 0.  0.
         23    2    4    4    0    0  0.11497377911E+03  0.38405362846E+03  0.16381614604E+04  0.16891099238E+04  0.93825396418E+02 0.  0.
         23    2    4    4    0    0  0.28783877631E+03  0.39362951559E+03  0.17522202468E+03  0.52623610498E+03  0.91795008317E+02 0.  0.
          1    1    3    3  502    0 -0.14962490267E+03 -0.30283957869E+03 -0.83431371948E+02  0.34793708590E+03  0.00000000000E+00 0. -1.
         -2    1    3    3    0  502 -0.25318765275E+03 -0.47484356537E+03 -0.23992371997E+03  0.58918909569E+03  0.00000000000E+00 0.  1.
         13    1    5    5    0    0  0.10503000315E+03  0.32908126548E+03  0.12462955641E+04  0.12932820319E+04  0.00000000000E+00 0. -1.
        -13    1    5    5    0    0  0.99437759557E+01  0.54972362986E+02  0.39186589627E+03  0.39582789193E+03  0.00000000000E+00 0.  1.
          3    1    6    6  503    0  0.20817643840E+03  0.26353470841E+03  0.76223740032E+02  0.34438064781E+03  0.00000000000E+00 0. -1.
         -3    1    6    6    0  503  0.79662337912E+02  0.13009480718E+03  0.98998284647E+02  0.18185545717E+03  0.00000000000E+00 0.  1.
<mgrwt>
<rscale>  0 0.27781102E+04</rscale>
<asrwt>0</asrwt>
<pdfrwt beam="1">  1        1 0.12788029E+00 0.27781102E+04</pdfrwt>
<pdfrwt beam="2">  1       -2 0.35711543E+00 0.27781102E+04</pdfrwt>
<totfact> 0.22170175E-01</totfact>
</mgrwt>
</event>
<event>
12    5  0.5041746E-008  0.2234115E+04  0.7818608E-02  0.8504361E-01
          1   -1    0    0  501    0  0.00000000000E+00  0.00000000000E+00  0.13561588483E+04  0.13561588483E+04  0.00000000000E+00 0. -1.
         -2   -1    0    0    0  501 -0.00000000000E+00 -0.00000000000E+00 -0.92011192778E+03  0.92011192778E+03  0.00000000000E+00 0.  1.
        -24    2    1    2    0    0  0.77730908196E+03  0.23154948878E+03  0.65648714567E+03  0.10464609978E+04  0.79250696105E+02 0.  0.
        254    2    1    2    0    0 -0.77730908196E+03 -0.23154948878E+03 -0.22044022515E+03  0.12298097783E+04  0.89778261469E+03 0.  0.
         23    2    4    4    0    0 -0.72743502871E+03  0.20434013994E+03 -0.16300336023E+03  0.77813902750E+03  0.89518919140E+02 0.  0.
         23    2    4    4    0    0 -0.49874053255E+02 -0.43588962872E+03 -0.57436864922E+02  0.45167075079E+03  0.90665782120E+02 0.  0.
          3    1    3    3  502    0  0.76283684730E+03  0.21423634835E+03  0.63736486964E+03  0.10168831032E+04  0.00000000000E+00 0. -1.
         -4    1    3    3    0  502  0.14472234661E+02  0.17313140424E+02  0.19122276036E+02  0.29577894587E+02  0.00000000000E+00 0.  1.
         13    1    5    5    0    0 -0.34107647595E+03  0.10409167956E+03 -0.32004823951E+02  0.35803987062E+03  0.00000000000E+00 0. -1.
        -13    1    5    5    0    0 -0.38635855276E+03  0.10024846038E+03 -0.13099853628E+03  0.42009915688E+03  0.00000000000E+00 0.  1.
          3    1    6    6  503    0 -0.31914814412E+02 -0.60797963394E+02 -0.30649019286E+02  0.75195146885E+02  0.00000000000E+00 0. -1.
         -3    1    6    6    0  503 -0.17959238843E+02 -0.37509166533E+03 -0.26787845636E+02  0.37647560390E+03  0.00000000000E+00 0.  1.
<mgrwt>
<rscale>  0 0.22341154E+04</rscale>
<asrwt>0</asrwt>
<pdfrwt beam="1">  1        1 0.20863982E+00 0.22341154E+04</pdfrwt>
<pdfrwt beam="2">  1       -2 0.14155568E+00 0.22341154E+04</pdfrwt>
<totfact> 0.22969982E+00</totfact>
</mgrwt>
</event>
<event>
12    5  0.5041746E-008  0.1526332E+04  0.7818608E-02  0.8867129E-01
          1   -1    0    0  501    0  0.00000000000E+00  0.00000000000E+00  0.13121113994E+04  0.13121113994E+04  0.00000000000E+00 0. -1.
         -2   -1    0    0    0  501 -0.00000000000E+00 -0.00000000000E+00 -0.44388196468E+03  0.44388196468E+03  0.00000000000E+00 0.  1.
        -24    2    1    2    0    0 -0.68955480623E+02  0.58466146076E+02 -0.26310320767E+03  0.28922623875E+03  0.79090901823E+02 0.  0.
        254    2    1    2    0    0  0.68955480623E+02 -0.58466146076E+02  0.11313326424E+04  0.14667671253E+04  0.92914966698E+03 0.  0.
         23    2    4    4    0    0 -0.21998317430E+03 -0.34198654095E+03  0.23480781737E+03  0.47898143274E+03  0.94557446290E+02 0.  0.
         23    2    4    4    0    0  0.28893865492E+03  0.28352039487E+03  0.89652482503E+03  0.98778569259E+03  0.89969172353E+02 0.  0.
          3    1    3    3  502    0 -0.16719912515E+02  0.22014292002E+02 -0.11940655227E+02  0.30112518561E+02  0.00000000000E+00 0. -1.
         -4    1    3    3    0  502 -0.52235568108E+02  0.36451854074E+02 -0.25116255244E+03  0.25911372019E+03  0.00000000000E+00 0.  1.
         13    1    5    5    0    0 -0.51742161012E+02 -0.97015341895E+02  0.18693152903E+02  0.11152874856E+03  0.00000000000E+00 0. -1.
        -13    1    5    5    0    0 -0.16824101329E+03 -0.24497119905E+03  0.21611466446E+03  0.36745268418E+03  0.00000000000E+00 0.  1.
          4    1    6    6  503    0  0.77974616463E+01  0.30844064386E+02  0.36895407080E+02  0.48717838413E+02  0.00000000000E+00 0. -1.
         -4    1    6    6    0  503  0.28114119327E+03  0.25267633049E+03  0.85962941795E+03  0.93906785418E+03  0.00000000000E+00 0.  1.
<mgrwt>
<rscale>  0 0.15263323E+04</rscale>
<asrwt>0</asrwt>
<pdfrwt beam="1">  1        1 0.20186329E+00 0.15263323E+04</pdfrwt>
<pdfrwt beam="2">  1       -2 0.68289533E-01 0.15263323E+04</pdfrwt>
<totfact> 0.14731171E+01</totfact>
</mgrwt>
</event>
<event>
12    5  0.5041746E-008  0.2656748E+04  0.7818608E-02  0.8349177E-01
         -2   -1    0    0    0  501 -0.00000000000E+00  0.00000000000E+00  0.10909007895E+04  0.10909007895E+04  0.00000000000E+00 0.  1.
          1   -1    0    0  501    0  0.00000000000E+00 -0.00000000000E+00 -0.16175413685E+04  0.16175413685E+04  0.00000000000E+00 0. -1.
        -24    2    1    2    0    0  0.70059700891E+03  0.12634882410E+03 -0.11869005660E+04  0.13863100690E+04  0.79513896021E+02 0.  0.
        254    2    1    2    0    0 -0.70059700891E+03 -0.12634882410E+03  0.66025998704E+03  0.13221320890E+04  0.89737941584E+03 0.  0.
         23    2    4    4    0    0 -0.32682952717E+03  0.25376017400E+03 -0.52917192628E+02  0.42678270338E+03  0.90174724272E+02 0.  0.
         23    2    4    4    0    0 -0.37376748174E+03 -0.38010899810E+03  0.71317717967E+03  0.89534938560E+03  0.94041755832E+02 0.  0.
          1    1    3    3  502    0  0.57943513198E+03  0.81575345979E+02 -0.10101407528E+04  0.11673833774E+04  0.00000000000E+00 0. -1.
         -2    1    3    3    0  502  0.12116187693E+03  0.44773478123E+02 -0.17675981317E+03  0.21892669165E+03  0.00000000000E+00 0.  1.
         13    1    5    5    0    0 -0.22677370755E+03  0.12043246727E+03 -0.34340348434E+02  0.25905511603E+03  0.00000000000E+00 0. -1.
        -13    1    5    5    0    0 -0.10005581961E+03  0.13332770673E+03 -0.18576844194E+02  0.16772758736E+03  0.00000000000E+00 0.  1.
          4    1    6    6  503    0 -0.15763435835E+03 -0.97844282748E+02  0.23100464706E+03  0.29628574310E+03  0.00000000000E+00 0. -1.
         -4    1    6    6    0  503 -0.21613312338E+03 -0.28226471535E+03  0.48217253261E+03  0.59906364250E+03  0.00000000000E+00 0.  1.
<mgrwt>
<rscale>  0 0.26567478E+04</rscale>
<asrwt>0</asrwt>
<pdfrwt beam="1">  1        1 0.24885252E+00 0.26567478E+04</pdfrwt>
<pdfrwt beam="2">  1       -2 0.16783089E+00 0.26567478E+04</pdfrwt>
<totfact> 0.92292256E-01</totfact>
</mgrwt>
</event>
<event>
12    5  0.5041746E-008  0.1517704E+04  0.7818608E-02  0.8872764E-01
          1   -1    0    0  501    0  0.00000000000E+00  0.00000000000E+00  0.63023986940E+03  0.63023986940E+03  0.00000000000E+00 0. -1.
         -2   -1    0    0    0  501 -0.00000000000E+00 -0.00000000000E+00 -0.91371015740E+03  0.91371015740E+03  0.00000000000E+00 0.  1.
        -24    2    1    2    0    0 -0.36421945918E+03  0.25621975446E+03 -0.29971243395E+03  0.54253491605E+03  0.78817606223E+02 0.  0.
        254    2    1    2    0    0  0.36421945918E+03 -0.25621975446E+03  0.16242145951E+02  0.10014151108E+04  0.89680769383E+03 0.  0.
         23    2    4    4    0    0  0.45311214842E+03 -0.52621186011E+03  0.41861932926E+02  0.70172695040E+03  0.91971466885E+02 0.  0.
         23    2    4    4    0    0 -0.88892689238E+02  0.26999210565E+03 -0.25619786975E+02  0.29968816035E+03  0.91427417408E+02 0.  0.
          1    1    3    3  502    0 -0.36320604543E+03  0.24688860909E+03 -0.30185655216E+03  0.53290711650E+03  0.00000000000E+00 0. -1.
         -2    1    3    3    0  502 -0.10134137491E+01  0.93311453698E+01  0.21441182068E+01  0.96277995526E+01  0.00000000000E+00 0.  1.
         13    1    5    5    0    0  0.20237099084E+03 -0.27291673382E+03  0.59261038392E+02  0.34489046406E+03  0.00000000000E+00 0.  1.
        -13    1    5    5    0    0  0.25074115758E+03 -0.25329512629E+03 -0.17399105465E+02  0.35683648634E+03  0.00000000000E+00 0. -1.
          3    1    6    6  503    0 -0.11552755367E+02 -0.28829535276E+01  0.76001530765E+01  0.14125859421E+02  0.00000000000E+00 0. -1.
         -3    1    6    6    0  503 -0.77339933871E+02  0.27287505918E+03 -0.33219940052E+02  0.28556230093E+03  0.00000000000E+00 0.  1.
<mgrwt>
<rscale>  0 0.15177043E+04</rscale>
<asrwt>0</asrwt>
<pdfrwt beam="1">  1        1 0.96959980E-01 0.15177043E+04</pdfrwt>
<pdfrwt beam="2">  1       -2 0.14057079E+00 0.15177043E+04</pdfrwt>
<totfact> 0.95729599E+00</totfact>
</mgrwt>
</event>
<event>
12    5  0.5041746E-008  0.2341497E+04  0.7818608E-02  0.8461737E-01
         -2   -1    0    0    0  501 -0.00000000000E+00  0.00000000000E+00  0.58100808033E+03  0.58100808033E+03  0.00000000000E+00 0.  1.
          1   -1    0    0  501    0  0.00000000000E+00 -0.00000000000E+00 -0.23590924348E+04  0.23590924348E+04  0.00000000000E+00 0. -1.
        -24    2    1    2    0    0  0.11335718909E+03  0.46665020481E+03  0.33531743011E+03  0.59129963239E+03  0.81149309064E+02 0.  0.
        254    2    1    2    0    0 -0.11335718909E+03 -0.46665020481E+03 -0.21134017846E+04  0.23488008827E+04  0.90542046459E+03 0.  0.
         23    2    4    4    0    0  0.64822899672E+02 -0.11459862400E+03 -0.18684162031E+04  0.18753799616E+04  0.93466782462E+02 0.  0.
         23    2    4    4    0    0 -0.17818008876E+03 -0.35205158082E+03 -0.24498558154E+03  0.47342092119E+03  0.91765864427E+02 0.  0.
          3    1    3    3  502    0 -0.71216138708E+00  0.32602132385E+02  0.27600807808E+01  0.32726506929E+02  0.00000000000E+00 0. -1.
         -4    1    3    3    0  502  0.11406935048E+03  0.43404807243E+03  0.33255734933E+03  0.55857312546E+03  0.00000000000E+00 0.  1.
         13    1    5    5    0    0  0.17332449081E+01  0.15626217182E+02 -0.12882747897E+03  0.12978328914E+03  0.00000000000E+00 0. -1.
        -13    1    5    5    0    0  0.63089654764E+02 -0.13022484118E+03 -0.17395887241E+04  0.17455966724E+04  0.00000000000E+00 0.  1.
          2    1    6    6  503    0 -0.12277006130E+03 -0.31480380404E+03 -0.19617115488E+03  0.39071350757E+03  0.00000000000E+00 0.  1.
         -2    1    6    6    0  503 -0.55410027466E+02 -0.37247776776E+02 -0.48814426653E+02  0.82707413621E+02  0.00000000000E+00 0. -1.
<mgrwt>
<rscale>  0 0.23414968E+04</rscale>
<asrwt>0</asrwt>
<pdfrwt beam="1">  1        1 0.36293730E+00 0.23414968E+04</pdfrwt>
<pdfrwt beam="2">  1       -2 0.89385859E-01 0.23414968E+04</pdfrwt>
<totfact> 0.14404213E+00</totfact>
</mgrwt>
</event>
<event>
12    5  0.5041746E-008  0.2033941E+04  0.7818608E-02  0.8590914E-01
          1   -1    0    0  501    0  0.00000000000E+00  0.00000000000E+00  0.20826626438E+04  0.20826626438E+04  0.00000000000E+00 0. -1.
         -2   -1    0    0    0  501 -0.00000000000E+00 -0.00000000000E+00 -0.49658986697E+03  0.49658986697E+03  0.00000000000E+00 0.  1.
        -24    2    1    2    0    0  0.75075649702E+03 -0.47300039676E+02  0.23735689777E+03  0.79304049297E+03  0.81867667635E+02 0.  0.
        254    2    1    2    0    0 -0.75075649702E+03  0.47300039676E+02  0.13487158791E+04  0.17862120178E+04  0.89757798465E+03 0.  0.
         23    2    4    4    0    0 -0.13428972329E+03 -0.36093382550E+03  0.28472447148E+03  0.48761414213E+03  0.91610975157E+02 0.  0.
         23    2    4    4    0    0 -0.61646677373E+03  0.40823386518E+03  0.10639914076E+04  0.12985978757E+04  0.87135271296E+02 0.  0.
          3    1    3    3  502    0  0.22108441477E+03 -0.27237239747E+02  0.10737212398E+03  0.24728315488E+03  0.00000000000E+00 0. -1.
         -4    1    3    3    0  502  0.52967208226E+03 -0.20062799929E+02  0.12998477379E+03  0.54575733809E+03  0.00000000000E+00 0.  1.
         13    1    5    5    0    0  0.84096322807E+01 -0.64303981906E+02  0.30302924223E+02  0.71582059348E+02  0.00000000000E+00 0.  1.
        -13    1    5    5    0    0 -0.14269935557E+03 -0.29662984360E+03  0.25442154726E+03  0.41603208278E+03  0.00000000000E+00 0. -1.
          4    1    6    6  503    0 -0.23019359377E+03  0.10743059817E+03  0.39397942768E+03  0.46877522703E+03  0.00000000000E+00 0.  1.
         -4    1    6    6    0  503 -0.38627317996E+03  0.30080326701E+03  0.67001197990E+03  0.82982264864E+03  0.00000000000E+00 0. -1.
<mgrwt>
<rscale>  0 0.20339412E+04</rscale>
<asrwt>0</asrwt>
<pdfrwt beam="1">  1        1 0.32040963E+00 0.20339412E+04</pdfrwt>
<pdfrwt beam="2">  1       -2 0.76398442E-01 0.20339412E+04</pdfrwt>
<totfact> 0.32601558E+00</totfact>
</mgrwt>
</event>
<event>
12    5  0.5041746E-008  0.3121908E+04  0.7818608E-02  0.8209751E-01
          1   -1    0    0  501    0  0.00000000000E+00  0.00000000000E+00  0.16223658955E+04  0.16223658955E+04  0.00000000000E+00 0. -1.
         -2   -1    0    0    0  501 -0.00000000000E+00 -0.00000000000E+00 -0.15018667895E+04  0.15018667895E+04  0.00000000000E+00 0.  1.
        -24    2    1    2    0    0 -0.94073672617E+03 -0.12877055852E+03  0.11210649520E+04  0.14712899847E+04  0.79625044719E+02 0.  0.
        254    2    1    2    0    0  0.94073672617E+03  0.12877055852E+03 -0.10005658460E+04  0.16529427003E+04  0.91077994787E+03 0.  0.
         23    2    4    4    0    0  0.10605897664E+03  0.12177621807E+03 -0.75592399655E+03  0.77835625816E+03  0.91320437157E+02 0.  0.
         23    2    4    4    0    0  0.83467774953E+03  0.69943404553E+01 -0.24464184950E+03  0.87458644213E+03  0.91191797172E+02 0.  0.
          3    1    3    3  502    0 -0.94199137088E+03 -0.13018412020E+03  0.11190873596E+04  0.14685544479E+04  0.00000000000E+00 0. -1.
         -4    1    3    3    0  502  0.12546447088E+01  0.14135616789E+01  0.19775923861E+01  0.27355368050E+01  0.00000000000E+00 0.  1.
         13    1    5    5    0    0  0.15142647205E+02 -0.14899418016E+02 -0.96045840670E+02  0.98367148640E+02  0.00000000000E+00 0.  1.
        -13    1    5    5    0    0  0.90916329439E+02  0.13667563608E+03 -0.65987815588E+03  0.67998910952E+03  0.00000000000E+00 0. -1.
          2    1    6    6  503    0  0.54204082457E+03 -0.37964691795E+02 -0.16821228108E+03  0.56881011316E+03  0.00000000000E+00 0. -1.
         -2    1    6    6    0  503  0.29263692496E+03  0.44959032250E+02 -0.76429568413E+02  0.30577632897E+03  0.00000000000E+00 0.  1.
<mgrwt>
<rscale>  0 0.31219080E+04</rscale>
<asrwt>0</asrwt>
<pdfrwt beam="1">  1        1 0.24959475E+00 0.31219080E+04</pdfrwt>
<pdfrwt beam="2">  1       -2 0.23105643E+00 0.31219080E+04</pdfrwt>
<totfact> 0.33561834E-01</totfact>
</mgrwt>
</event>
<event>
12    5  0.5041746E-008  0.1476753E+04  0.7818608E-02  0.8900061E-01
         -4   -1    0    0    0  501 -0.00000000000E+00  0.00000000000E+00  0.47841188731E+03  0.47841188731E+03  0.00000000000E+00 0.  1.
          1   -1    0    0  501    0  0.00000000000E+00 -0.00000000000E+00 -0.11396033125E+04  0.11396033125E+04  0.00000000000E+00 0. -1.
        -24    2    1    2    0    0  0.29721323949E+02 -0.35155524202E+03  0.11030888131E+03  0.37792895033E+03  0.78662550852E+02 0.  0.
        254    2    1    2    0    0 -0.29721323949E+02  0.35155524202E+03 -0.77150030648E+03  0.12400862495E+04  0.90450358645E+03 0.  0.
         23    2    4    4    0    0  0.23835248896E+02  0.54586830436E+03 -0.14038441241E+03  0.57138355027E+03  0.90725153516E+02 0.  0.
         23    2    4    4    0    0 -0.53556572845E+02 -0.19431306234E+03 -0.63111589408E+03  0.66870269918E+03  0.90720204200E+02 0.  0.
          3    1    3    3  502    0 -0.16194884985E+02 -0.66498031041E+02  0.44979469769E+02  0.81898810325E+02  0.00000000000E+00 0. -1.
         -4    1    3    3    0  502  0.45916208934E+02 -0.28505721098E+03  0.65329411542E+02  0.29603014000E+03  0.00000000000E+00 0.  1.
         13    1    5    5    0    0  0.39422992631E+02  0.30579063692E+03 -0.40819263195E+02  0.31101173326E+03  0.00000000000E+00 0.  1.
        -13    1    5    5    0    0 -0.15587743735E+02  0.24007766744E+03 -0.99565149213E+02  0.26037181702E+03  0.00000000000E+00 0. -1.
          1    1    6    6  503    0 -0.43815499674E+02 -0.19811112059E+03 -0.62373027177E+03  0.65590187227E+03  0.00000000000E+00 0. -1.
         -1    1    6    6    0  503 -0.97410731718E+01  0.37980582524E+01 -0.73856223027E+01  0.12800826920E+02  0.00000000000E+00 0.  1.
<mgrwt>
<rscale>  0 0.14767529E+04</rscale>
<asrwt>0</asrwt>
<pdfrwt beam="1">  1        1 0.17532359E+00 0.14767529E+04</pdfrwt>
<pdfrwt beam="2">  1       -4 0.73601829E-01 0.14767529E+04</pdfrwt>
<totfact> 0.93787703E+00</totfact>
</mgrwt>
</event>
<event>
12    5  0.5041746E-008  0.2388901E+04  0.7818608E-02  0.8443671E-01
          3   -1    0    0  501    0  0.00000000000E+00  0.00000000000E+00  0.11779235839E+04  0.11779235839E+04  0.00000000000E+00 0. -1.
         -4   -1    0    0    0  501 -0.00000000000E+00 -0.00000000000E+00 -0.12112089007E+04  0.12112089007E+04  0.00000000000E+00 0.  1.
        -24    2    1    2    0    0  0.78162151498E+03  0.32551914715E+03  0.55217143230E+03  0.10139155012E+04  0.78971166553E+02 0.  0.
        254    2    1    2    0    0 -0.78162151498E+03 -0.32551914715E+03 -0.58545674909E+03  0.13752169835E+04  0.91190308624E+03 0.  0.
         23    2    4    4    0    0 -0.34029290958E+03  0.30194102563E+03 -0.14862478400E+03  0.48781045431E+03  0.94350758587E+02 0.  0.
         23    2    4    4    0    0 -0.44132860540E+03 -0.62746017278E+03 -0.43683196510E+03  0.88740652915E+03  0.90504010246E+02 0.  0.
          3    1    3    3  502    0  0.63254858504E+03  0.23078542894E+03  0.42450676788E+03  0.79598091850E+03  0.00000000000E+00 0. -1.
         -4    1    3    3    0  502  0.14907292994E+03  0.94733718208E+02  0.12766466442E+03  0.21793458272E+03  0.00000000000E+00 0.  1.
         13    1    5    5    0    0 -0.31725998124E+03  0.23965822975E+03 -0.11847362719E+03  0.41488066130E+03  0.00000000000E+00 0.  1.
        -13    1    5    5    0    0 -0.23032928334E+02  0.62282795888E+02 -0.30151156806E+02  0.72929793006E+02  0.00000000000E+00 0. -1.
          1    1    6    6  503    0 -0.34714653081E+03 -0.42282267483E+03 -0.31584789869E+03  0.63170374648E+03  0.00000000000E+00 0. -1.
         -1    1    6    6    0  503 -0.94182074591E+02 -0.20463749795E+03 -0.12098406640E+03  0.25570278267E+03  0.00000000000E+00 0.  1.
<mgrwt>
<rscale>  0 0.23889006E+04</rscale>
<asrwt>0</asrwt>
<pdfrwt beam="1">  1        3 0.18121901E+00 0.23889006E+04</pdfrwt>
<pdfrwt beam="2">  1       -4 0.18633983E+00 0.23889006E+04</pdfrwt>
<totfact> 0.65067241E-02</totfact>
</mgrwt>
</event>
<event>
12    5  0.5041746E-008  0.1936196E+04  0.7818608E-02  0.8637046E-01
          1   -1    0    0  501    0  0.00000000000E+00  0.00000000000E+00  0.76665666411E+03  0.76665666411E+03  0.00000000000E+00 0. -1.
         -2   -1    0    0    0  501 -0.00000000000E+00 -0.00000000000E+00 -0.12224686928E+04  0.12224686928E+04  0.00000000000E+00 0.  1.
        -24    2    1    2    0    0 -0.24701497180E+02  0.88309441283E+02 -0.94166272228E+03  0.94944580487E+03  0.79435083348E+02 0.  0.
        254    2    1    2    0    0  0.24701497180E+02 -0.88309441283E+02  0.48585069361E+03  0.10396795520E+04  0.91458949975E+03 0.  0.
         23    2    4    4    0    0 -0.23833442201E+03  0.28052215205E+03  0.43191483490E+03  0.57468921061E+03  0.90671327786E+02 0.  0.
         23    2    4    4    0    0  0.26303591919E+03 -0.36883159333E+03  0.53935858705E+02  0.46499034142E+03  0.89901622579E+02 0.  0.
          3    1    3    3  502    0  0.24513422776E+02  0.28479758688E+02 -0.18171609827E+03  0.18556062330E+03  0.00000000000E+00 0. -1.
         -4    1    3    3    0  502 -0.49214919956E+02  0.59829682595E+02 -0.75994662401E+03  0.76388518157E+03  0.00000000000E+00 0.  1.
         13    1    5    5    0    0 -0.80919409587E+02  0.13160010178E+03  0.12363683407E+03  0.19787017050E+03  0.00000000000E+00 0.  1.
        -13    1    5    5    0    0 -0.15741501242E+03  0.14892205027E+03  0.30827800083E+03  0.37681904011E+03  0.00000000000E+00 0. -1.
          4    1    6    6  503    0  0.17586027586E+03 -0.18821816766E+03  0.10879737052E+01  0.25759289382E+03  0.00000000000E+00 0. -1.
         -4    1    6    6    0  503  0.87175643330E+02 -0.18061342567E+03  0.52847884999E+02  0.20739744760E+03  0.00000000000E+00 0.  1.
<mgrwt>
<rscale>  0 0.19361960E+04</rscale>
<asrwt>0</asrwt>
<pdfrwt beam="1">  1        1 0.11794718E+00 0.19361960E+04</pdfrwt>
<pdfrwt beam="2">  1       -2 0.18807211E+00 0.19361960E+04</pdfrwt>
<totfact> 0.30861191E+00</totfact>
</mgrwt>
</event>
<event>
12    5  0.5041746E-008  0.1659126E+04  0.7818608E-02  0.8785026E-01
          1   -1    0    0  501    0  0.00000000000E+00  0.00000000000E+00  0.24608823193E+04  0.24608823193E+04  0.00000000000E+00 0. -1.
         -2   -1    0    0    0  501 -0.00000000000E+00 -0.00000000000E+00 -0.27964556547E+03  0.27964556547E+03  0.00000000000E+00 0.  1.
        -24    2    1    2    0    0 -0.20547076912E+03 -0.53220092230E+03  0.65269179754E+03  0.87046389429E+03  0.79023730781E+02 0.  0.
        254    2    1    2    0    0  0.20547076912E+03  0.53220092230E+03  0.15285449563E+04  0.18700639904E+04  0.91391114798E+03 0.  0.
         23    2    4    4    0    0  0.19189096172E+03  0.54507470348E+03  0.16297557187E+04  0.17315243878E+04  0.90246493361E+02 0.  0.
         23    2    4    4    0    0  0.13579807401E+02 -0.12873781184E+02 -0.10121076240E+03  0.13853960262E+03  0.92733260786E+02 0.  0.
          3    1    3    3  502    0 -0.83122393215E+02 -0.28353469232E+03  0.38339543840E+03  0.48403854824E+03  0.00000000000E+00 0. -1.
         -4    1    3    3    0  502 -0.12234837591E+03 -0.24866622998E+03  0.26929635915E+03  0.38642534605E+03  0.00000000000E+00 0.  1.
         13    1    5    5    0    0  0.27323188401E+02  0.14764808283E+03  0.33304591948E+03  0.36533012122E+03  0.00000000000E+00 0. -1.
        -13    1    5    5    0    0  0.16456777332E+03  0.39742662065E+03  0.12967097992E+04  0.13661942666E+04  0.00000000000E+00 0.  1.
          1    1    6    6  503    0  0.10424804944E+02 -0.46023206296E+02 -0.20921644848E+02  0.51619059455E+02  0.00000000000E+00 0. -1.
         -1    1    6    6    0  503  0.31550024563E+01  0.33149425112E+02 -0.80289117556E+02  0.86920543163E+02  0.00000000000E+00 0.  1.
<mgrwt>
<rscale>  0 0.16591261E+04</rscale>
<asrwt>0</asrwt>
<pdfrwt beam="1">  1        1 0.37859727E+00 0.16591261E+04</pdfrwt>
<pdfrwt beam="2">  1       -2 0.43022396E-01 0.16591261E+04</pdfrwt>
<totfact> 0.62035763E+00</totfact>
</mgrwt>
</event>
<event>
12    5  0.5041746E-008  0.2025387E+04  0.7818608E-02  0.8594843E-01
          1   -1    0    0  501    0  0.00000000000E+00  0.00000000000E+00  0.46729745792E+03  0.46729745792E+03  0.00000000000E+00 0. -1.
         -2   -1    0    0    0  501 -0.00000000000E+00 -0.00000000000E+00 -0.21946359307E+04  0.21946359307E+04  0.00000000000E+00 0.  1.
        -24    2    1    2    0    0  0.48661762183E+03 -0.62790286922E+03 -0.56989150757E+03  0.97950823506E+03  0.60011074886E+02 0.  0.
        254    2    1    2    0    0 -0.48661762183E+03  0.62790286922E+03 -0.11574469652E+04  0.16824251536E+04  0.92726058744E+03 0.  0.
         23    2    4    4    0    0 -0.64242309112E+03  0.32453788440E+03 -0.35874579719E+03  0.80930679202E+03  0.90811178840E+02 0.  0.
         23    2    4    4    0    0  0.15580546929E+03  0.30336498482E+03 -0.79870116804E+03  0.87311836155E+03  0.90035877151E+02 0.  0.
          3    1    3    3  502    0  0.42127839256E+03 -0.57183336533E+03 -0.49980108068E+03  0.86848719161E+03  0.00000000000E+00 0. -1.
         -4    1    3    3    0  502  0.65339229270E+02 -0.56069503890E+02 -0.70090426888E+02  0.11102104345E+03  0.00000000000E+00 0.  1.
         13    1    5    5    0    0 -0.32862317063E+03  0.15528896877E+03 -0.23058776893E+03  0.43043997407E+03  0.00000000000E+00 0.  1.
        -13    1    5    5    0    0 -0.31379992049E+03  0.16924891562E+03 -0.12815802826E+03  0.37886681795E+03  0.00000000000E+00 0. -1.
          4    1    6    6  503    0  0.11364913278E+02 -0.41203256452E+00 -0.81762651305E+01  0.14006510491E+02  0.00000000000E+00 0. -1.
         -4    1    6    6    0  503  0.14444055601E+03  0.30377701739E+03 -0.79052490291E+03  0.85911185106E+03  0.00000000000E+00 0.  1.
<mgrwt>
<rscale>  0 0.20253867E+04</rscale>
<asrwt>0</asrwt>
<pdfrwt beam="1">  1        1 0.71891917E-01 0.20253867E+04</pdfrwt>
<pdfrwt beam="2">  1       -2 0.33763629E+00 0.20253867E+04</pdfrwt>
<totfact> 0.73457706E-01</totfact>
</mgrwt>
</event>
<event>
12    5  0.5041746E-008  0.1137637E+04  0.7818608E-02  0.9169265E-01
         -2   -1    0    0    0  501 -0.00000000000E+00  0.00000000000E+00  0.26634347881E+03  0.26634347881E+03  0.00000000000E+00 0.  1.
          1   -1    0    0  501    0  0.00000000000E+00 -0.00000000000E+00 -0.12148023421E+04  0.12148023421E+04  0.00000000000E+00 0. -1.
        -24    2    1    2    0    0 -0.29108238680E+02  0.20607101660E+03 -0.17701195291E+03  0.28424792510E+03  0.78428936028E+02 0.  0.
        254    2    1    2    0    0  0.29108238680E+02 -0.20607101660E+03 -0.77144691038E+03  0.11968978958E+04  0.89113505377E+03 0.  0.
         23    2    4    4    0    0  0.24702557029E+03  0.27164254271E+03 -0.39247194946E+03  0.54368527045E+03  0.82147055958E+02 0.  0.
         23    2    4    4    0    0 -0.21791733161E+03 -0.47771355931E+03 -0.37897496093E+03  0.65321262538E+03  0.85828344867E+02 0.  0.
          1    1    3    3  502    0 -0.41789712886E+02  0.51361553428E+02 -0.65331886714E+02  0.93019593072E+02  0.00000000000E+00 0. -1.
         -2    1    3    3    0  502  0.12681474207E+02  0.15470946317E+03 -0.11168006620E+03  0.19122833202E+03  0.00000000000E+00 0.  1.
         13    1    5    5    0    0  0.11877082364E+03  0.17360531654E+03 -0.26284709291E+03  0.33665101920E+03  0.00000000000E+00 0. -1.
        -13    1    5    5    0    0  0.12825474665E+03  0.98037226171E+02 -0.12962485655E+03  0.20703425124E+03  0.00000000000E+00 0.  1.
          2    1    6    6  503    0 -0.10188841505E+02 -0.10172051104E+03 -0.80832360346E+02  0.13032553601E+03  0.00000000000E+00 0. -1.
         -2    1    6    6    0  503 -0.20772849010E+03 -0.37599304827E+03 -0.29814260058E+03  0.52288708937E+03  0.00000000000E+00 0.  1.
<mgrwt>
<rscale>  0 0.11376373E+04</rscale>
<asrwt>0</asrwt>
<pdfrwt beam="1">  1        1 0.18689267E+00 0.11376373E+04</pdfrwt>
<pdfrwt beam="2">  1       -2 0.40975920E-01 0.11376373E+04</pdfrwt>
<totfact> 0.51237031E+01</totfact>
</mgrwt>
</event>
<event>
12    5  0.5041746E-008  0.2529706E+04  0.7818608E-02  0.8392478E-01
         -2   -1    0    0    0  501 -0.00000000000E+00  0.00000000000E+00  0.48950895348E+03  0.48950895348E+03  0.00000000000E+00 0.  1.
          1   -1    0    0  501    0  0.00000000000E+00 -0.00000000000E+00 -0.32682826047E+04  0.32682826047E+04  0.00000000000E+00 0. -1.
        -24    2    1    2    0    0  0.31793473896E+03 -0.69561566335E+03 -0.35052227864E+02  0.77070388589E+03  0.88273278604E+02 0.  0.
        254    2    1    2    0    0 -0.31793473896E+03  0.69561566335E+03 -0.27437214233E+04  0.29870876723E+04  0.89984546654E+03 0.  0.
         23    2    4    4    0    0  0.27267450695E+03  0.44036341407E+03 -0.10939524109E+04  0.12139697537E+04  0.93377526108E+02 0.  0.
         23    2    4    4    0    0 -0.59060924591E+03  0.25525224928E+03 -0.16497690124E+04  0.17731179185E+04  0.90754430630E+02 0.  0.
          3    1    3    3  502    0  0.10900807702E+02 -0.31091265389E+02 -0.19961303793E+02  0.38522046171E+02  0.00000000000E+00 0. -1.
         -4    1    3    3    0  502  0.30703393126E+03 -0.66452439796E+03 -0.15090924072E+02  0.73218183972E+03  0.00000000000E+00 0.  1.
         13    1    5    5    0    0  0.20628449885E+03  0.30932994885E+03 -0.87028484026E+03  0.94637942439E+03  0.00000000000E+00 0.  1.
        -13    1    5    5    0    0  0.66390008105E+02  0.13103346522E+03 -0.22366757066E+03  0.26759032932E+03  0.00000000000E+00 0. -1.
          3    1    6    6  503    0 -0.11109307925E+03  0.45869496069E+02 -0.41519622652E+03  0.43224251230E+03  0.00000000000E+00 0. -1.
         -3    1    6    6    0  503 -0.47951616666E+03  0.20938275322E+03 -0.12345727859E+04  0.13408754062E+04  0.00000000000E+00 0.  1.
<mgrwt>
<rscale>  0 0.25297064E+04</rscale>
<asrwt>0</asrwt>
<pdfrwt beam="1">  1        1 0.50281271E+00 0.25297064E+04</pdfrwt>
<pdfrwt beam="2">  1       -2 0.75309070E-01 0.25297064E+04</pdfrwt>
<totfact> 0.46561542E-01</totfact>
</mgrwt>
</event>
<event>
12    5  0.5041746E-008  0.1134256E+04  0.7818608E-02  0.9172433E-01
         -2   -1    0    0    0  501 -0.00000000000E+00  0.00000000000E+00  0.20003832993E+03  0.20003832993E+03  0.00000000000E+00 0.  1.
          1   -1    0    0  501    0  0.00000000000E+00 -0.00000000000E+00 -0.16078616098E+04  0.16078616098E+04  0.00000000000E+00 0. -1.
        -24    2    1    2    0    0  0.48189912350E+02 -0.62362968667E+02 -0.53335690938E+03  0.54496034717E+03  0.79377450816E+02 0.  0.
        254    2    1    2    0    0 -0.48189912350E+02  0.62362968667E+02 -0.87446637048E+03  0.12629395925E+04  0.90780701352E+03 0.  0.
         23    2    4    4    0    0 -0.32796881153E+02  0.33993218137E+03 -0.90162477168E+03  0.96859312974E+03  0.92821865600E+02 0.  0.
         23    2    4    4    0    0 -0.15393031197E+02 -0.27756921270E+03  0.27158401201E+02  0.29434646280E+03  0.92847445620E+02 0.  0.
          3    1    3    3  502    0  0.41266531497E+02 -0.74903523354E+02 -0.32342485978E+03  0.33454013863E+03  0.00000000000E+00 0. -1.
         -4    1    3    3    0  502  0.69233808530E+01  0.12540554688E+02 -0.20993204960E+03  0.21042020854E+03  0.00000000000E+00 0.  1.
         13    1    5    5    0    0 -0.36064055165E+02  0.30580836496E+03 -0.70958936569E+03  0.77352210056E+03  0.00000000000E+00 0.  1.
        -13    1    5    5    0    0  0.32671740119E+01  0.34123816406E+02 -0.19203540599E+03  0.19507102918E+03  0.00000000000E+00 0. -1.
          1    1    6    6  503    0 -0.10601826826E+02 -0.27048378161E+02 -0.25094497405E+02  0.38389416422E+02  0.00000000000E+00 0. -1.
         -1    1    6    6    0  503 -0.47912043704E+01 -0.25052083454E+03  0.52252898605E+02  0.25595704638E+03  0.00000000000E+00 0.  1.
<mgrwt>
<rscale>  0 0.11342556E+04</rscale>
<asrwt>0</asrwt>
<pdfrwt beam="1">  1        1 0.24736332E+00 0.11342556E+04</pdfrwt>
<pdfrwt beam="2">  1       -2 0.30775128E-01 0.11342556E+04</pdfrwt>
<totfact> 0.47020265E+01</totfact>
</mgrwt>
</event>
<event>
12    5  0.5041746E-008  0.1819229E+04  0.7818608E-02  0.8696140E-01
          1   -1    0    0  501    0  0.00000000000E+00  0.00000000000E+00  0.13586977615E+04  0.13586977615E+04  0.00000000000E+00 0. -1.
         -2   -1    0    0    0  501 -0.00000000000E+00 -0.00000000000E+00 -0.60896465834E+03  0.60896465834E+03  0.00000000000E+00 0.  1.
        -24    2    1    2    0    0 -0.12337810001E+03  0.52375203789E+03 -0.19031916210E+03  0.57636444554E+03  0.80226166963E+02 0.  0.
        254    2    1    2    0    0  0.12337810001E+03 -0.52375203789E+03  0.94005226525E+03  0.13912979743E+04  0.87319725098E+03 0.  0.
         23    2    4    4    0    0 -0.96686055233E+02 -0.17353337203E+03  0.94330813511E+03  0.96801413062E+03  0.88085724328E+02 0.  0.
         23    2    4    4    0    0  0.22006415524E+03 -0.35021866585E+03 -0.32558698540E+01  0.42328384368E+03  0.89873607322E+02 0.  0.
          1    1    3    3  502    0 -0.31608832203E+02  0.18773671646E+03 -0.29279066943E+02  0.19261738432E+03  0.00000000000E+00 0. -1.
         -2    1    3    3    0  502 -0.91769267807E+02  0.33601532143E+03 -0.16104009515E+03  0.38374706122E+03  0.00000000000E+00 0.  1.
         13    1    5    5    0    0 -0.43427096196E+02 -0.41639935831E+02  0.14264008822E+03  0.15480953364E+03  0.00000000000E+00 0.  1.
        -13    1    5    5    0    0 -0.53258959037E+02 -0.13189343620E+03  0.80066804689E+03  0.81320459697E+03  0.00000000000E+00 0. -1.
          4    1    6    6  503    0  0.22340901036E+03 -0.35358619385E+03 -0.15945429471E+01  0.41825509556E+03  0.00000000000E+00 0. -1.
         -4    1    6    6    0  503 -0.33448551190E+01  0.33675279945E+01 -0.16613269069E+01  0.50287481199E+01  0.00000000000E+00 0.  1.
<mgrwt>
<rscale>  0 0.18192294E+04</rscale>
<asrwt>0</asrwt>
<pdfrwt beam="1">  1        1 0.20903042E+00 0.18192294E+04</pdfrwt>
<pdfrwt beam="2">  1       -2 0.93686871E-01 0.18192294E+04</pdfrwt>
<totfact> 0.65386252E+00</totfact>
</mgrwt>
</event>
<event>
12    5  0.5041746E-008  0.2448625E+04  0.7818608E-02  0.8421520E-01
         -2   -1    0    0    0  501 -0.00000000000E+00  0.00000000000E+00  0.10217352138E+04  0.10217352138E+04  0.00000000000E+00 0.  1.
          1   -1    0    0  501    0  0.00000000000E+00 -0.00000000000E+00 -0.14670539789E+04  0.14670539789E+04  0.00000000000E+00 0. -1.
        -24    2    1    2    0    0 -0.41578069416E+03 -0.93119209949E+03 -0.47944721718E+03  0.11297016738E+04  0.79774218738E+02 0.  0.
        254    2    1    2    0    0  0.41578069416E+03  0.93119209949E+03  0.34128452061E+02  0.13590875188E+04  0.89775376404E+03 0.  0.
         23    2    4    4    0    0 -0.16837986820E+03  0.29925953017E+03 -0.26553308052E+03  0.44344891834E+03  0.90725299212E+02 0.  0.
         23    2    4    4    0    0  0.58416056236E+03  0.63193256932E+03  0.29966153258E+03  0.91563860050E+03  0.89524733063E+02 0.  0.
          1    1    3    3  502    0 -0.22390755405E+03 -0.57534922132E+03 -0.26223061207E+03  0.67076539352E+03  0.00000000000E+00 0. -1.
         -2    1    3    3    0  502 -0.19187314011E+03 -0.35584287817E+03 -0.21721660511E+03  0.45893628030E+03  0.00000000000E+00 0.  1.
         13    1    5    5    0    0 -0.31457345803E+02  0.15449822093E+02 -0.67434599914E+01  0.35689436257E+02  0.00000000000E+00 0.  1.
        -13    1    5    5    0    0 -0.13692252239E+03  0.28380970807E+03 -0.25878962053E+03  0.40775948208E+03  0.00000000000E+00 0. -1.
          2    1    6    6  503    0  0.55888402373E+03  0.58213632171E+03  0.26270898862E+03  0.84867547493E+03  0.00000000000E+00 0. -1.
         -2    1    6    6    0  503  0.25276538624E+02  0.49796247613E+02  0.36952543968E+02  0.66963125575E+02  0.00000000000E+00 0.  1.
<mgrwt>
<rscale>  0 0.24486247E+04</rscale>
<asrwt>0</asrwt>
<pdfrwt beam="1">  1        1 0.22570061E+00 0.24486247E+04</pdfrwt>
<pdfrwt beam="2">  1       -2 0.15719003E+00 0.24486247E+04</pdfrwt>
<totfact> 0.14281156E+00</totfact>
</mgrwt>
</event>
<event>
12    5  0.5041746E-008  0.1461741E+04  0.7818608E-02  0.8910301E-01
         -2   -1    0    0    0  501 -0.00000000000E+00  0.00000000000E+00  0.36261546346E+03  0.36261546346E+03  0.00000000000E+00 0.  1.
          1   -1    0    0  501    0  0.00000000000E+00 -0.00000000000E+00 -0.14731083677E+04  0.14731083677E+04  0.00000000000E+00 0. -1.
        -24    2    1    2    0    0  0.19013624192E+03 -0.31388337766E+03 -0.29719419436E+02  0.37746968058E+03  0.83219893097E+02 0.  0.
        254    2    1    2    0    0 -0.19013624192E+03  0.31388337766E+03 -0.10807734848E+04  0.14582541505E+04  0.90761185367E+03 0.  0.
         23    2    4    4    0    0 -0.19265230939E+03 -0.21045707876E+03 -0.58898677920E+02  0.30596589281E+03  0.93482506347E+02 0.  0.
         23    2    4    4    0    0  0.25160674671E+01  0.52434045642E+03 -0.10218748069E+04  0.11522882577E+04  0.92740838831E+02 0.  0.
          1    1    3    3  502    0  0.50385715928E+02 -0.27601185280E+02  0.64994937907E+00  0.57454053231E+02  0.00000000000E+00 0. -1.
         -2    1    3    3    0  502  0.13975052599E+03 -0.28628219238E+03 -0.30369368816E+02  0.32001562735E+03  0.00000000000E+00 0.  1.
         13    1    5    5    0    0 -0.13435291504E+03 -0.19981510770E+03 -0.51655098054E+02  0.24626212092E+03  0.00000000000E+00 0. -1.
        -13    1    5    5    0    0 -0.58299394347E+02 -0.10641971060E+02 -0.72435798661E+01  0.59703771895E+02  0.00000000000E+00 0.  1.
          3    1    6    6  503    0  0.28414153188E+02  0.46411048690E+03 -0.86026963626E+03  0.97789046177E+03  0.00000000000E+00 0. -1.
         -3    1    6    6    0  503 -0.25898085721E+02  0.60229969510E+02 -0.16160517060E+03  0.17439779596E+03  0.00000000000E+00 0.  1.
<mgrwt>
<rscale>  0 0.14617413E+04</rscale>
<asrwt>0</asrwt>
<pdfrwt beam="1">  1        1 0.22663206E+00 0.14617413E+04</pdfrwt>
<pdfrwt beam="2">  1       -2 0.55786994E-01 0.14617413E+04</pdfrwt>
<totfact> 0.17548985E+01</totfact>
</mgrwt>
</event>
<event>
12    5  0.5041746E-008  0.2868810E+04  0.7818608E-02  0.8282218E-01
         -2   -1    0    0    0  501 -0.00000000000E+00  0.00000000000E+00  0.10670936087E+04  0.10670936087E+04  0.00000000000E+00 0.  1.
          1   -1    0    0  501    0  0.00000000000E+00 -0.00000000000E+00 -0.19281515413E+04  0.19281515413E+04  0.00000000000E+00 0. -1.
        -24    2    1    2    0    0 -0.42542140863E+03 -0.32360913394E+03 -0.16190311884E+04  0.17069367827E+04  0.81639113348E+02 0.  0.
        254    2    1    2    0    0  0.42542140863E+03  0.32360913394E+03  0.75797325576E+03  0.12883083673E+04  0.89415252968E+03 0.  0.
         23    2    4    4    0    0  0.14268675797E+03  0.24769199150E+03  0.90186671527E+03  0.95048441632E+03  0.91357648802E+02 0.  0.
         23    2    4    4    0    0  0.28273465066E+03  0.75917142433E+02 -0.14389345951E+03  0.33782395099E+03  0.87848727777E+02 0.  0.
          3    1    3    3  502    0 -0.20913295048E+03 -0.11018742381E+03 -0.67325626462E+03  0.71354877703E+03  0.00000000000E+00 0. -1.
         -4    1    3    3    0  502 -0.21628845815E+03 -0.21342171013E+03 -0.94577492374E+03  0.99338800569E+03  0.00000000000E+00 0.  1.
         13    1    5    5    0    0  0.59455348519E+02  0.15820141388E+03  0.63249795055E+03  0.65468792816E+03  0.00000000000E+00 0.  1.
        -13    1    5    5    0    0  0.83231409450E+02  0.89490577624E+02  0.26936876472E+03  0.29579648816E+03  0.00000000000E+00 0. -1.
          3    1    6    6  503    0  0.91645410195E+02  0.13311287080E+02 -0.91146179909E+02  0.12993728366E+03  0.00000000000E+00 0. -1.
         -3    1    6    6    0  503  0.19108924047E+03  0.62605855353E+02 -0.52747279599E+02  0.20788666733E+03  0.00000000000E+00 0.  1.
<mgrwt>
<rscale>  0 0.28688103E+04</rscale>
<asrwt>0</asrwt>
<pdfrwt beam="1">  1        1 0.29663870E+00 0.28688103E+04</pdfrwt>
<pdfrwt beam="2">  1       -2 0.16416825E+00 0.28688103E+04</pdfrwt>
<totfact> 0.59213271E-01</totfact>
</mgrwt>
</event>
<event>
12    5  0.5041746E-008  0.1323310E+04  0.7818608E-02  0.9011281E-01
          1   -1    0    0  501    0  0.00000000000E+00  0.00000000000E+00  0.13379849978E+04  0.13379849978E+04  0.00000000000E+00 0. -1.
         -2   -1    0    0    0  501 -0.00000000000E+00 -0.00000000000E+00 -0.32719916851E+03  0.32719916851E+03  0.00000000000E+00 0.  1.
        -24    2    1    2    0    0  0.48529740899E+02 -0.17802699525E+03 -0.97728759659E+02  0.22318680406E+03  0.78820633441E+02 0.  0.
        254    2    1    2    0    0 -0.48529740899E+02  0.17802699525E+03  0.11085145889E+04  0.14419973622E+04  0.90360558433E+03 0.  0.
         23    2    4    4    0    0  0.33320496961E+02  0.31815138489E+02  0.12183833650E+04  0.12226656400E+04  0.91273132121E+02 0.  0.
         23    2    4    4    0    0 -0.81850237860E+02  0.14621185676E+03 -0.10986877608E+03  0.21933172220E+03  0.89206994749E+02 0.  0.
          3    1    3    3  502    0  0.44907460248E+02 -0.38067075631E+02 -0.15735284310E+02  0.60937520506E+02  0.00000000000E+00 0. -1.
         -4    1    3    3    0  502  0.36222806511E+01 -0.13995991961E+03 -0.81993475349E+02  0.16224928356E+03  0.00000000000E+00 0.  1.
         13    1    5    5    0    0  0.34426561462E+02  0.29594645792E+02  0.12192068659E+04  0.12200518076E+04  0.00000000000E+00 0.  1.
        -13    1    5    5    0    0 -0.11060645014E+01  0.22204926976E+01 -0.82350091729E+00  0.26138324854E+01  0.00000000000E+00 0. -1.
          2    1    6    6  503    0 -0.44801000326E+02  0.41819660745E+02  0.27729394485E+01  0.61349024835E+02  0.00000000000E+00 0. -1.
         -2    1    6    6    0  503 -0.37049237535E+02  0.10439219601E+03 -0.11264171552E+03  0.15798269736E+03  0.00000000000E+00 0.  1.
<mgrwt>
<rscale>  0 0.13233104E+04</rscale>
<asrwt>0</asrwt>
<pdfrwt beam="1">  1        1 0.20584384E+00 0.13233104E+04</pdfrwt>
<pdfrwt beam="2">  1       -2 0.50338334E-01 0.13233104E+04</pdfrwt>
<totfact> 0.27290515E+01</totfact>
</mgrwt>
</event>
<event>
12    5  0.5041746E-008  0.1511073E+04  0.7818608E-02  0.8877123E-01
          1   -1    0    0  501    0  0.00000000000E+00  0.00000000000E+00  0.99130728589E+03  0.99130728589E+03  0.00000000000E+00 0. -1.
         -2   -1    0    0    0  501 -0.00000000000E+00 -0.00000000000E+00 -0.57584114568E+03  0.57584114568E+03  0.00000000000E+00 0.  1.
        -24    2    1    2    0    0  0.30032665133E+02 -0.48124488204E+03  0.12759861448E+03  0.50491651889E+03  0.78490044975E+02 0.  0.
        254    2    1    2    0    0 -0.30032665133E+02  0.48124488204E+03  0.28786752573E+03  0.10622319127E+04  0.90164867131E+03 0.  0.
         23    2    4    4    0    0 -0.35859170670E+03  0.35713801866E+02  0.33320814020E+03  0.49930000858E+03  0.91702486959E+02 0.  0.
         23    2    4    4    0    0  0.32855904157E+03  0.44553108018E+03 -0.45340614473E+02  0.56293190410E+03  0.91583678331E+02 0.  0.
          3    1    3    3  502    0  0.21487562544E+02 -0.45235121946E+03  0.99385028730E+02  0.46363857154E+03  0.00000000000E+00 0. -1.
         -4    1    3    3    0  502  0.85451025893E+01 -0.28893662586E+02  0.28213585751E+02  0.41277947343E+02  0.00000000000E+00 0.  1.
         13    1    5    5    0    0 -0.24856834030E+03  0.66776463355E+02  0.23710184628E+03  0.34994656931E+03  0.00000000000E+00 0.  1.
        -13    1    5    5    0    0 -0.11002336640E+03 -0.31062661488E+02  0.96106293916E+02  0.14935343927E+03  0.00000000000E+00 0. -1.
          2    1    6    6  503    0  0.24310969446E+03  0.25644090680E+03 -0.20603228787E+02  0.35396151663E+03  0.00000000000E+00 0.  1.
         -2    1    6    6    0  503  0.85449347110E+02  0.18909017338E+03 -0.24737385685E+02  0.20897038747E+03  0.00000000000E+00 0. -1.
<mgrwt>
<rscale>  0 0.15110732E+04</rscale>
<asrwt>0</asrwt>
<pdfrwt beam="1">  1        1 0.15250881E+00 0.15110732E+04</pdfrwt>
<pdfrwt beam="2">  1       -2 0.88590945E-01 0.15110732E+04</pdfrwt>
<totfact> 0.14273059E+01</totfact>
</mgrwt>
</event>
<event>
12    5  0.5041746E-008  0.1585814E+04  0.7818608E-02  0.8829311E-01
         -2   -1    0    0    0  501 -0.00000000000E+00  0.00000000000E+00  0.49516201953E+03  0.49516201953E+03  0.00000000000E+00 0.  1.
          1   -1    0    0  501    0  0.00000000000E+00 -0.00000000000E+00 -0.12696881089E+04  0.12696881089E+04  0.00000000000E+00 0. -1.
        -24    2    1    2    0    0  0.39877900166E+03  0.31680540737E+03 -0.15265755198E+03  0.54061086582E+03  0.97802974196E+02 0.  0.
        254    2    1    2    0    0 -0.39877900166E+03 -0.31680540737E+03 -0.62186853744E+03  0.12242392627E+04  0.92339099847E+03 0.  0.
         23    2    4    4    0    0  0.27534415273E+03 -0.21221611148E+03 -0.28340237242E+03  0.45763303364E+03  0.90890089504E+02 0.  0.
         23    2    4    4    0    0 -0.67412315439E+03 -0.10458929589E+03 -0.33846616502E+03  0.76660622902E+03  0.88004644190E+02 0.  0.
          1    1    3    3  502    0  0.72275468246E+02  0.15269305649E+02 -0.15422725663E+02  0.75463603625E+02  0.00000000000E+00 0. -1.
         -2    1    3    3    0  502  0.32650353342E+03  0.30153610172E+03 -0.13723482631E+03  0.46514726219E+03  0.00000000000E+00 0.  1.
         13    1    5    5    0    0  0.15269350328E+03 -0.89776959476E+02 -0.19373954146E+03  0.26250755860E+03  0.00000000000E+00 0. -1.
        -13    1    5    5    0    0  0.12265064945E+03 -0.12243915200E+03 -0.89662830959E+02  0.19512547504E+03  0.00000000000E+00 0.  1.
          3    1    6    6  503    0 -0.86715288846E+02  0.12093149476E+02 -0.27321973896E+02  0.91718459655E+02  0.00000000000E+00 0. -1.
         -3    1    6    6    0  503 -0.58740786555E+03 -0.11668244536E+03 -0.31114419113E+03  0.67488776936E+03  0.00000000000E+00 0.  1.
<mgrwt>
<rscale>  0 0.15858138E+04</rscale>
<asrwt>0</asrwt>
<pdfrwt beam="1">  1        1 0.19533663E+00 0.15858138E+04</pdfrwt>
<pdfrwt beam="2">  1       -2 0.76178773E-01 0.15858138E+04</pdfrwt>
<totfact> 0.12360890E+01</totfact>
</mgrwt>
</event>
<event>
12    5  0.5041746E-008  0.1420054E+04  0.7818608E-02  0.8939429E-01
          1   -1    0    0  501    0  0.00000000000E+00  0.00000000000E+00  0.83818867565E+03  0.83818867565E+03  0.00000000000E+00 0. -1.
         -2   -1    0    0    0  501 -0.00000000000E+00 -0.00000000000E+00 -0.60146163038E+03  0.60146163038E+03  0.00000000000E+00 0.  1.
        -24    2    1    2    0    0 -0.37137836907E+03 -0.13899105302E+03 -0.76250200644E+02  0.41124088633E+03  0.77875334079E+02 0.  0.
        254    2    1    2    0    0  0.37137836907E+03  0.13899105302E+03  0.31297724592E+03  0.10284094197E+04  0.89578500336E+03 0.  0.
         23    2    4    4    0    0  0.82551510584E+02  0.10976773485E+03  0.59303257617E+03  0.61498325458E+03  0.87481766704E+02 0.  0.
         23    2    4    4    0    0  0.28882685848E+03  0.29223318170E+02 -0.28005533025E+03  0.41342616512E+03  0.90638013554E+02 0.  0.
          1    1    3    3  502    0 -0.19988101021E+01  0.67340123365E+01 -0.13190878732E+01  0.71471782397E+01  0.00000000000E+00 0. -1.
         -2    1    3    3    0  502 -0.36937955896E+03 -0.14572506536E+03 -0.74931112771E+02  0.40409370809E+03  0.00000000000E+00 0.  1.
         13    1    5    5    0    0  0.15514408815E+02  0.92113610624E+02  0.35131971957E+03  0.36352600939E+03  0.00000000000E+00 0. -1.
        -13    1    5    5    0    0  0.67037101769E+02  0.17654124230E+02  0.24171285660E+03  0.25145724520E+03  0.00000000000E+00 0.  1.
          1    1    6    6  503    0  0.28761556775E+03  0.25603666693E+02 -0.24651154106E+03  0.37966590898E+03  0.00000000000E+00 0. -1.
         -1    1    6    6    0  503  0.12112907297E+01  0.36196514777E+01 -0.33543789187E+02  0.33760256146E+02  0.00000000000E+00 0.  1.
<mgrwt>
<rscale>  0 0.14200540E+04</rscale>
<asrwt>0</asrwt>
<pdfrwt beam="1">  1        1 0.12895210E+00 0.14200540E+04</pdfrwt>
<pdfrwt beam="2">  1       -2 0.92532559E-01 0.14200540E+04</pdfrwt>
<totfact> 0.17326263E+01</totfact>
</mgrwt>
</event>
<event>
12    5  0.5041746E-008  0.1206883E+04  0.7818608E-02  0.9106853E-01
          1   -1    0    0  501    0  0.00000000000E+00  0.00000000000E+00  0.15139190419E+04  0.15139190419E+04  0.00000000000E+00 0. -1.
         -2   -1    0    0    0  501 -0.00000000000E+00 -0.00000000000E+00 -0.24052913794E+03  0.24052913794E+03  0.00000000000E+00 0.  1.
        -24    2    1    2    0    0 -0.57106385656E+02 -0.20569870650E+03  0.61192898383E+02  0.23620990673E+03  0.80482619787E+02 0.  0.
        254    2    1    2    0    0  0.57106385656E+02  0.20569870650E+03  0.12121970056E+04  0.15182382732E+04  0.88884913034E+03 0.  0.
         23    2    4    4    0    0  0.19207950832E+03  0.39829264276E+03  0.23509436347E+03  0.50893618318E+03  0.90637255166E+02 0.  0.
         23    2    4    4    0    0 -0.13497312267E+03 -0.19259393626E+03  0.97710264215E+03  0.10093020900E+04  0.93010576815E+02 0.  0.
          1    1    3    3  502    0  0.16146070368E+02 -0.17752051348E+02 -0.37682355430E+01  0.24290543726E+02  0.00000000000E+00 0. -1.
         -2    1    3    3    0  502 -0.73252456024E+02 -0.18794665515E+03  0.64961133926E+02  0.21191936301E+03  0.00000000000E+00 0.  1.
         13    1    5    5    0    0  0.57480596046E+02  0.12640155961E+03  0.12301941358E+03  0.18551320522E+03  0.00000000000E+00 0. -1.
        -13    1    5    5    0    0  0.13459891228E+03  0.27189108315E+03  0.11207494989E+03  0.32342297797E+03  0.00000000000E+00 0.  1.
          3    1    6    6  503    0 -0.73391123920E+02 -0.17215956626E+03  0.68728482332E+03  0.71231004604E+03  0.00000000000E+00 0. -1.
         -3    1    6    6    0  503 -0.61581998746E+02 -0.20434369999E+02  0.28981781883E+03  0.29699204393E+03  0.00000000000E+00 0.  1.
<mgrwt>
<rscale>  0 0.12068830E+04</rscale>
<asrwt>0</asrwt>
<pdfrwt beam="1">  1        1 0.23291062E+00 0.12068830E+04</pdfrwt>
<pdfrwt beam="2">  1       -2 0.37004484E-01 0.12068830E+04</pdfrwt>
<totfact> 0.38217332E+01</totfact>
</mgrwt>
</event>
<event>
12    5  0.5041746E-008  0.1797241E+04  0.7818608E-02  0.8707768E-01
          1   -1    0    0  501    0  0.00000000000E+00  0.00000000000E+00  0.16990287882E+04  0.16990287882E+04  0.00000000000E+00 0. -1.
         -2   -1    0    0    0  501 -0.00000000000E+00 -0.00000000000E+00 -0.47528239410E+03  0.47528239410E+03  0.00000000000E+00 0.  1.
        -24    2    1    2    0    0 -0.68283854354E+02 -0.51728861845E+03  0.97001397426E+03  0.11043472273E+04  0.80034296944E+02 0.  0.
        254    2    1    2    0    0  0.68283854354E+02  0.51728861845E+03  0.25373241986E+03  0.10699639550E+04  0.89899528617E+03 0.  0.
         23    2    4    4    0    0 -0.18043169239E+03  0.19405492621E+03  0.50879877141E+03  0.58051208939E+03  0.88911113672E+02 0.  0.
         23    2    4    4    0    0  0.24871554674E+03  0.32323369224E+03 -0.25506635155E+03  0.48945186560E+03  0.90359515574E+02 0.  0.
          1    1    3    3  502    0 -0.10580724435E+02 -0.34734150225E+03  0.66967352485E+03  0.75446716350E+03  0.00000000000E+00 0. -1.
         -2    1    3    3    0  502 -0.57703129920E+02 -0.16994711620E+03  0.30034044941E+03  0.34988006383E+03  0.00000000000E+00 0.  1.
         13    1    5    5    0    0 -0.15258848669E+03  0.18599103476E+03  0.49025532403E+03  0.54610090095E+03  0.00000000000E+00 0.  1.
        -13    1    5    5    0    0 -0.27843205702E+02  0.80638914463E+01  0.18543447385E+02  0.34411188441E+02  0.00000000000E+00 0. -1.
          4    1    6    6  503    0  0.12117009922E+03  0.16865202069E+03 -0.77376272312E+02  0.22161404410E+03  0.00000000000E+00 0. -1.
         -4    1    6    6    0  503  0.12754544752E+03  0.15458167156E+03 -0.17769007924E+03  0.26783782150E+03  0.00000000000E+00 0.  1.
<mgrwt>
<rscale>  0 0.17972406E+04</rscale>
<asrwt>0</asrwt>
<pdfrwt beam="1">  1        1 0.26138904E+00 0.17972406E+04</pdfrwt>
<pdfrwt beam="2">  1       -2 0.73120369E-01 0.17972406E+04</pdfrwt>
<totfact> 0.66795478E+00</totfact>
</mgrwt>
</event>
<event>
12    5  0.5041746E-008  0.1538794E+04  0.7818608E-02  0.8859057E-01
          1   -1    0    0  501    0  0.00000000000E+00  0.00000000000E+00  0.17193853164E+04  0.17193853164E+04  0.00000000000E+00 0. -1.
         -2   -1    0    0    0  501 -0.00000000000E+00 -0.00000000000E+00 -0.34429266825E+03  0.34429266825E+03  0.00000000000E+00 0.  1.
        -24    2    1    2    0    0 -0.30330502047E+03  0.33207849597E+03  0.15912013677E+03  0.48387114103E+03  0.80882632700E+02 0.  0.
        254    2    1    2    0    0  0.30330502047E+03 -0.33207849597E+03  0.12159725114E+04  0.15798068436E+04  0.90273498426E+03 0.  0.
         23    2    4    4    0    0  0.14027224157E+03  0.22771910554E+03  0.82471227009E+03  0.87175490137E+03  0.90961458032E+02 0.  0.
         23    2    4    4    0    0  0.16303277889E+03 -0.55979760151E+03  0.39126024131E+03  0.70805194227E+03  0.91103978365E+02 0.  0.
          1    1    3    3  502    0 -0.39059329555E+02  0.25220696253E+02 -0.53321636917E+01  0.46799003348E+02  0.00000000000E+00 0. -1.
         -2    1    3    3    0  502 -0.26424569091E+03  0.30685779972E+03  0.16445230047E+03  0.43707213769E+03  0.00000000000E+00 0.  1.
         13    1    5    5    0    0  0.59756737840E+02  0.16809216266E+03  0.45547377667E+03  0.48916480260E+03  0.00000000000E+00 0. -1.
        -13    1    5    5    0    0  0.80515503734E+02  0.59626942876E+02  0.36923849342E+03  0.38259009877E+03  0.00000000000E+00 0.  1.
          1    1    6    6  503    0  0.55980315713E+02 -0.31044894680E+03  0.24754062814E+03  0.40098467164E+03  0.00000000000E+00 0. -1.
         -1    1    6    6    0  503  0.10705246318E+03 -0.24934865471E+03  0.14371961318E+03  0.30706727063E+03  0.00000000000E+00 0.  1.
<mgrwt>
<rscale>  0 0.15387940E+04</rscale>
<asrwt>0</asrwt>
<pdfrwt beam="1">  1        1 0.26452081E+00 0.15387940E+04</pdfrwt>
<pdfrwt beam="2">  1       -2 0.52968104E-01 0.15387940E+04</pdfrwt>
<totfact> 0.13153831E+01</totfact>
</mgrwt>
</event>
<event>
12    5  0.7791030E-008  0.1636523E+04  0.7818608E-02  0.8798419E-01
          1   -1    0    0  501    0  0.00000000000E+00  0.00000000000E+00  0.12156406435E+04  0.12156406435E+04  0.00000000000E+00 0. -1.
         -2   -1    0    0    0  501 -0.00000000000E+00 -0.00000000000E+00 -0.55078136565E+03  0.55078136565E+03  0.00000000000E+00 0.  1.
        -24    2    1    2    0    0 -0.10640554119E+03 -0.24931847227E+02 -0.36637852656E+03  0.39185862743E+03  0.85884940266E+02 0.  0.
        254    2    1    2    0    0  0.10640554119E+03  0.24931847227E+02  0.10312378044E+04  0.13745633817E+04  0.90223574799E+03 0.  0.
         23    2    4    4    0    0 -0.30892616890E+03  0.20967337729E+02  0.85256641751E+03  0.91214182787E+03  0.96219596807E+02 0.  0.
         23    2    4    4    0    0  0.41533171008E+03  0.39645094988E+01  0.17867138691E+03  0.46242155387E+03  0.96923073854E+02 0.  0.
          3    1    3    3  502    0  0.59576538286E+01 -0.19940680092E+02 -0.10913120619E+03  0.11109790513E+03  0.00000000000E+00 0. -1.
         -4    1    3    3    0  502 -0.11236319502E+03 -0.49911671352E+01 -0.25724732037E+03  0.28076072229E+03  0.00000000000E+00 0.  1.
         13    1    5    5    0    0 -0.27705104478E+03  0.15381301072E+02  0.64622876719E+03  0.70328193875E+03  0.00000000000E+00 0.  1.
        -13    1    5    5    0    0 -0.31875124121E+02  0.55860366567E+01  0.20633765032E+03  0.20885988912E+03  0.00000000000E+00 0. -1.
          4    1    6    6  503    0 -0.28805665686E+01  0.63505155311E+01  0.82766691083E+01  0.10822659691E+02  0.00000000000E+00 0. -1.
         -4    1    6    6    0  503  0.41821227665E+03 -0.23860060323E+01  0.17039471781E+03  0.45159889418E+03  0.00000000000E+00 0.  1.
<mgrwt>
<rscale>  0 0.16365234E+04</rscale>
<asrwt>0</asrwt>
<pdfrwt beam="1">  1        1 0.18702164E+00 0.16365234E+04</pdfrwt>
<pdfrwt beam="2">  1       -2 0.84735595E-01 0.16365234E+04</pdfrwt>
<totfact> 0.10597917E+01</totfact>
</mgrwt>
</event>
<event>
12    5  0.5041746E-008  0.2495116E+04  0.7818608E-02  0.8404728E-01
          1   -1    0    0  501    0  0.00000000000E+00  0.00000000000E+00  0.23518035585E+04  0.23518035585E+04  0.00000000000E+00 0. -1.
         -2   -1    0    0    0  501 -0.00000000000E+00 -0.00000000000E+00 -0.66179012702E+03  0.66179012702E+03  0.00000000000E+00 0.  1.
        -24    2    1    2    0    0 -0.26751739093E+03 -0.73219282705E+03 -0.16627847117E+03  0.80110952012E+03  0.80349504214E+02 0.  0.
        254    2    1    2    0    0  0.26751739093E+03  0.73219282705E+03  0.18562919026E+04  0.22124841654E+04  0.91738468698E+03 0.  0.
         23    2    4    4    0    0  0.28842362583E+03 -0.10219963786E+03  0.81080285481E+03  0.87153722187E+03  0.92427841168E+02 0.  0.
         23    2    4    4    0    0 -0.20906234907E+02  0.83439246491E+03  0.10454890478E+04  0.13409469435E+04  0.91888519762E+02 0.  0.
          3    1    3    3  502    0 -0.17717968817E+02 -0.28119248215E+02 -0.23005940210E+02  0.40421427784E+02  0.00000000000E+00 0. -1.
         -4    1    3    3    0  502 -0.24979942211E+03 -0.70407357883E+03 -0.14327253096E+03  0.76068809234E+03  0.00000000000E+00 0.  1.
         13    1    5    5    0    0  0.50816028501E+02 -0.56710060300E+02  0.15919076810E+03  0.17646529500E+03  0.00000000000E+00 0.  1.
        -13    1    5    5    0    0  0.23760759733E+03 -0.45489577563E+02  0.65161208671E+03  0.69507192687E+03  0.00000000000E+00 0. -1.
          3    1    6    6  503    0 -0.22371635652E+02  0.71889280891E+03  0.84586631093E+03  0.11103139992E+04  0.00000000000E+00 0. -1.
         -3    1    6    6    0  503  0.14654007457E+01  0.11549965600E+03  0.19962273691E+03  0.23063294436E+03  0.00000000000E+00 0.  1.
<mgrwt>
<rscale>  0 0.24951155E+04</rscale>
<asrwt>0</asrwt>
<pdfrwt beam="1">  1        1 0.36181593E+00 0.24951155E+04</pdfrwt>
<pdfrwt beam="2">  1       -2 0.10181387E+00 0.24951155E+04</pdfrwt>
<totfact> 0.10600702E+00</totfact>
</mgrwt>
</event>
<event>
12    5  0.5041746E-008  0.1577829E+04  0.7818608E-02  0.8834285E-01
          1   -1    0    0  501    0  0.00000000000E+00  0.00000000000E+00  0.37204420137E+04  0.37204420137E+04  0.00000000000E+00 0. -1.
         -2   -1    0    0    0  501 -0.00000000000E+00 -0.00000000000E+00 -0.16728825140E+03  0.16728825140E+03  0.00000000000E+00 0.  1.
        -24    2    1    2    0    0  0.41380875675E+03 -0.21535364346E+03  0.18480705573E+04  0.19077280513E+04  0.80291057211E+02 0.  0.
        254    2    1    2    0    0 -0.41380875675E+03  0.21535364346E+03  0.17050832050E+04  0.19800022139E+04  0.89189974320E+03 0.  0.
         23    2    4    4    0    0  0.23730893384E+03 -0.92909421519E+02  0.59585999111E+03  0.65430259223E+03  0.90083641756E+02 0.  0.
         23    2    4    4    0    0 -0.65111769059E+03  0.30826306498E+03  0.11092232139E+04  0.13256996216E+04  0.90127599890E+02 0.  0.
          3    1    3    3  502    0  0.33991572971E+03 -0.13996009419E+03  0.14573933937E+04  0.15030392660E+04  0.00000000000E+00 0. -1.
         -4    1    3    3    0  502  0.73893027045E+02 -0.75393549266E+02  0.39067716361E+03  0.40468878522E+03  0.00000000000E+00 0.  1.
         13    1    5    5    0    0  0.21842168336E+03 -0.10334818470E+03  0.49091910462E+03  0.54716583073E+03  0.00000000000E+00 0. -1.
        -13    1    5    5    0    0  0.18887250483E+02  0.10438763183E+02  0.10494088649E+03  0.10713676150E+03  0.00000000000E+00 0.  1.
          4    1    6    6  503    0 -0.47347764103E+03  0.17917973684E+03  0.75981650676E+03  0.91302112714E+03  0.00000000000E+00 0. -1.
         -4    1    6    6    0  503 -0.17764004956E+03  0.12908332813E+03  0.34940670715E+03  0.41267849449E+03  0.00000000000E+00 0.  1.
<mgrwt>
<rscale>  0 0.15778292E+04</rscale>
<asrwt>0</asrwt>
<pdfrwt beam="1">  1        1 0.57237563E+00 0.15778292E+04</pdfrwt>
<pdfrwt beam="2">  1       -2 0.25736657E-01 0.15778292E+04</pdfrwt>
<totfact> 0.19314099E+00</totfact>
</mgrwt>
</event>
<event>
12    5  0.5041746E-008  0.2389530E+04  0.7818608E-02  0.8443434E-01
         -2   -1    0    0    0  501 -0.00000000000E+00  0.00000000000E+00  0.12956723880E+04  0.12956723880E+04  0.00000000000E+00 0.  1.
          1   -1    0    0  501    0  0.00000000000E+00 -0.00000000000E+00 -0.11017161749E+04  0.11017161749E+04  0.00000000000E+00 0. -1.
        -24    2    1    2    0    0  0.83199963522E+03  0.50482409583E+03 -0.22771183817E+03  0.10028327077E+04  0.82158369332E+02 0.  0.
        254    2    1    2    0    0 -0.83199963522E+03 -0.50482409583E+03  0.42166805132E+03  0.13945558552E+04  0.90548955106E+03 0.  0.
         23    2    4    4    0    0 -0.26136537917E+03 -0.40118867729E+03 -0.21123605040E+03  0.53110778624E+03  0.90501908288E+02 0.  0.
         23    2    4    4    0    0 -0.57063425605E+03 -0.10363541854E+03  0.63290410172E+03  0.86344806897E+03  0.92796614595E+02 0.  0.
          3    1    3    3  502    0  0.44705682115E+03  0.26645703671E+03 -0.16358561302E+03  0.54554505454E+03  0.00000000000E+00 0. -1.
         -4    1    3    3    0  502  0.38494281407E+03  0.23836705912E+03 -0.64126225158E+02  0.45728765316E+03  0.00000000000E+00 0.  1.
         13    1    5    5    0    0 -0.17773699453E+03 -0.31686222205E+03 -0.19159374766E+03  0.41073138562E+03  0.00000000000E+00 0. -1.
        -13    1    5    5    0    0 -0.83628384644E+02 -0.84326455237E+02 -0.19642302743E+02  0.12037640063E+03  0.00000000000E+00 0.  1.
          4    1    6    6  503    0 -0.31610873559E+03 -0.82257985963E+02  0.29710069377E+03  0.44154267201E+03  0.00000000000E+00 0. -1.
         -4    1    6    6    0  503 -0.25452552046E+03 -0.21377432579E+02  0.33580340795E+03  0.42190539696E+03  0.00000000000E+00 0.  1.
<mgrwt>
<rscale>  0 0.23895299E+04</rscale>
<asrwt>0</asrwt>
<pdfrwt beam="1">  1        1 0.16949480E+00 0.23895299E+04</pdfrwt>
<pdfrwt beam="2">  1       -2 0.19933421E+00 0.23895299E+04</pdfrwt>
<totfact> 0.13360297E+00</totfact>
</mgrwt>
</event>
<event>
12    5  0.5041746E-008  0.2092242E+04  0.7818608E-02  0.8564669E-01
         -2   -1    0    0    0  501 -0.00000000000E+00  0.00000000000E+00  0.62879047686E+03  0.62879047686E+03  0.00000000000E+00 0.  1.
          1   -1    0    0  501    0  0.00000000000E+00 -0.00000000000E+00 -0.17404349042E+04  0.17404349042E+04  0.00000000000E+00 0. -1.
        -24    2    1    2    0    0 -0.47999604726E+02 -0.39184176023E+03 -0.13037906993E+04  0.13646081197E+04  0.80257122038E+02 0.  0.
        254    2    1    2    0    0  0.47999604726E+02  0.39184176023E+03  0.19214627195E+03  0.10046172614E+04  0.90359931658E+03 0.  0.
         23    2    4    4    0    0 -0.17645266338E+03  0.55033599870E+03  0.34321416828E+03  0.67825418284E+03  0.90705663317E+02 0.  0.
         23    2    4    4    0    0  0.22445226810E+03 -0.15849423847E+03 -0.15106789632E+03  0.32636307854E+03  0.90510250523E+02 0.  0.
          1    1    3    3  502    0 -0.56990608577E+02 -0.28826821225E+03 -0.10501771805E+04  0.10905129995E+04  0.00000000000E+00 0. -1.
         -2    1    3    3    0  502  0.89910038506E+01 -0.10357354797E+03 -0.25361351887E+03  0.27409512025E+03  0.00000000000E+00 0.  1.
         13    1    5    5    0    0 -0.46723351719E+02  0.12287801088E+03  0.36669971798E+02  0.13647990323E+03  0.00000000000E+00 0. -1.
        -13    1    5    5    0    0 -0.12972931166E+03  0.42745798782E+03  0.30654419648E+03  0.54177427961E+03  0.00000000000E+00 0.  1.
          1    1    6    6  503    0  0.29707522502E+01 -0.29604549292E+02 -0.18090765017E+01  0.29808177830E+02  0.00000000000E+00 0. -1.
         -1    1    6    6    0  503  0.22148151585E+03 -0.12888968918E+03 -0.14925881982E+03  0.29655490071E+03  0.00000000000E+00 0.  1.
<mgrwt>
<rscale>  0 0.20922418E+04</rscale>
<asrwt>0</asrwt>
<pdfrwt beam="1">  1        1 0.26775921E+00 0.20922418E+04</pdfrwt>
<pdfrwt beam="2">  1       -2 0.96736999E-01 0.20922418E+04</pdfrwt>
<totfact> 0.32285012E+00</totfact>
</mgrwt>
</event>
<event>
12    5  0.5041746E-008  0.1514422E+04  0.7818608E-02  0.8874919E-01
         -2   -1    0    0    0  501 -0.00000000000E+00  0.00000000000E+00  0.23650012292E+03  0.23650012292E+03  0.00000000000E+00 0.  1.
          1   -1    0    0  501    0  0.00000000000E+00 -0.00000000000E+00 -0.24243897850E+04  0.24243897850E+04  0.00000000000E+00 0. -1.
        -24    2    1    2    0    0 -0.93145305087E+02  0.27974997492E+02 -0.15270830145E+04  0.15323376751E+04  0.81348443225E+02 0.  0.
        254    2    1    2    0    0  0.93145305087E+02 -0.27974997492E+02 -0.66080664766E+03  0.11285522328E+04  0.90967360536E+03 0.  0.
         23    2    4    4    0    0 -0.12119095277E+02 -0.16859393269E+03 -0.83973930161E+03  0.86146100351E+03  0.91554242378E+02 0.  0.
         23    2    4    4    0    0  0.10526440036E+03  0.14061893520E+03  0.17893265394E+03  0.26709122932E+03  0.92013864239E+02 0.  0.
          1    1    3    3  502    0 -0.19247846616E+02  0.44522300259E+02 -0.75252037443E+03  0.75408197747E+03  0.00000000000E+00 0. -1.
         -2    1    3    3    0  502 -0.73897458470E+02 -0.16547302767E+02 -0.77456264004E+03  0.77825569767E+03  0.00000000000E+00 0.  1.
         13    1    5    5    0    0  0.49462108312E+01 -0.13686501979E+03 -0.77813647654E+03  0.79009675025E+03  0.00000000000E+00 0. -1.
        -13    1    5    5    0    0 -0.17065306108E+02 -0.31728912902E+02 -0.61602825069E+02  0.71364253258E+02  0.00000000000E+00 0.  1.
          3    1    6    6  503    0  0.10599263492E+03  0.93104431920E+02  0.16598433864E+03  0.21783864343E+03  0.00000000000E+00 0. -1.
         -3    1    6    6    0  503 -0.72823455483E+00  0.47514503279E+02  0.12948315309E+02  0.49252585889E+02  0.00000000000E+00 0.  1.
<mgrwt>
<rscale>  0 0.15144220E+04</rscale>
<asrwt>0</asrwt>
<pdfrwt beam="1">  1        1 0.37298303E+00 0.15144220E+04</pdfrwt>
<pdfrwt beam="2">  1       -2 0.36384636E-01 0.15144220E+04</pdfrwt>
<totfact> 0.92392110E+00</totfact>
</mgrwt>
</event>
<event>
12    5  0.5041746E-008  0.1699050E+04  0.7818608E-02  0.8761906E-01
         -2   -1    0    0    0  501 -0.00000000000E+00  0.00000000000E+00  0.79224616478E+03  0.79224616478E+03  0.00000000000E+00 0.  1.
          1   -1    0    0  501    0  0.00000000000E+00 -0.00000000000E+00 -0.91094540698E+03  0.91094540698E+03  0.00000000000E+00 0. -1.
        -24    2    1    2    0    0 -0.41134214728E+03  0.13087657547E+03 -0.47154311457E+03  0.64413899247E+03  0.78937269932E+02 0.  0.
        254    2    1    2    0    0  0.41134214728E+03 -0.13087657547E+03  0.35284387237E+03  0.10590525793E+04  0.90042352662E+03 0.  0.
         23    2    4    4    0    0  0.17567409046E+03  0.45573218211E+02  0.61895772245E+03  0.65194912572E+03  0.94819281078E+02 0.  0.
         23    2    4    4    0    0  0.23566805682E+03 -0.17644979368E+03 -0.26611385008E+03  0.40710345357E+03  0.90789195425E+02 0.  0.
          1    1    3    3  502    0 -0.29078197891E+03  0.12918106876E+03 -0.33711363900E+03  0.46355961147E+03  0.00000000000E+00 0. -1.
         -2    1    3    3    0  502 -0.12056016837E+03  0.16955067106E+01 -0.13442947558E+03  0.18057938100E+03  0.00000000000E+00 0.  1.
         13    1    5    5    0    0  0.10279584281E+03 -0.16347008340E+02  0.25007929106E+03  0.27087610046E+03  0.00000000000E+00 0.  1.
        -13    1    5    5    0    0  0.72878247648E+02  0.61920226551E+02  0.36887843139E+03  0.38107302526E+03  0.00000000000E+00 0. -1.
          2    1    6    6  503    0  0.23352549060E+03 -0.14927832437E+03 -0.22138489915E+03  0.35472446555E+03  0.00000000000E+00 0. -1.
         -2    1    6    6    0  503  0.21425662194E+01 -0.27171469311E+02 -0.44728950929E+02  0.52378988018E+02  0.00000000000E+00 0.  1.
<mgrwt>
<rscale>  0 0.16990503E+04</rscale>
<asrwt>0</asrwt>
<pdfrwt beam="1">  1        1 0.14014545E+00 0.16990503E+04</pdfrwt>
<pdfrwt beam="2">  1       -2 0.12188403E+00 0.16990503E+04</pdfrwt>
<totfact> 0.75927084E+00</totfact>
</mgrwt>
</event>
<event>
12    5  0.5041746E-008  0.2299871E+04  0.7818608E-02  0.8477972E-01
         -2   -1    0    0    0  501 -0.00000000000E+00  0.00000000000E+00  0.10270675875E+04  0.10270675875E+04  0.00000000000E+00 0.  1.
          1   -1    0    0  501    0  0.00000000000E+00 -0.00000000000E+00 -0.12875016292E+04  0.12875016292E+04  0.00000000000E+00 0. -1.
        -24    2    1    2    0    0 -0.77318093452E+03  0.43238817851E+03  0.28392998040E+03  0.93409363930E+03  0.84536375528E+02 0.  0.
        254    2    1    2    0    0  0.77318093452E+03 -0.43238817851E+03 -0.54436402215E+03  0.13804755774E+04  0.90808167954E+03 0.  0.
         23    2    4    4    0    0 -0.14990985435E+03 -0.22109273618E+03  0.33165881762E+01  0.28270989369E+03  0.92514441065E+02 0.  0.
         23    2    4    4    0    0  0.92309078888E+03 -0.21129544232E+03 -0.54768061033E+03  0.10977656837E+04  0.91613737558E+02 0.  0.
          1    1    3    3  502    0 -0.16492641616E+03  0.10437967753E+03  0.28070002788E+02  0.19718966729E+03  0.00000000000E+00 0. -1.
         -2    1    3    3    0  502 -0.60825451836E+03  0.32800850097E+03  0.25585997761E+03  0.73690397201E+03  0.00000000000E+00 0.  1.
         13    1    5    5    0    0 -0.84107468429E+02 -0.61013103310E+02 -0.26140276898E+02  0.10714466434E+03  0.00000000000E+00 0.  1.
        -13    1    5    5    0    0 -0.65802385926E+02 -0.16007963287E+03  0.29456865074E+02  0.17556522934E+03  0.00000000000E+00 0. -1.
          4    1    6    6  503    0  0.20982162344E+03 -0.94044871893E+01 -0.11571976827E+03  0.23980121520E+03  0.00000000000E+00 0.  1.
         -4    1    6    6    0  503  0.71326916544E+03 -0.20189095513E+03 -0.43196084206E+03  0.85796446849E+03  0.00000000000E+00 0. -1.
<mgrwt>
<rscale>  0 0.22998706E+04</rscale>
<asrwt>0</asrwt>
<pdfrwt beam="1">  1        1 0.19807717E+00 0.22998706E+04</pdfrwt>
<pdfrwt beam="2">  1       -2 0.15801040E+00 0.22998706E+04</pdfrwt>
<totfact> 0.19088930E+00</totfact>
</mgrwt>
</event>
<event>
12    5  0.5041746E-008  0.1690065E+04  0.7818608E-02  0.8767051E-01
         -2   -1    0    0    0  501 -0.00000000000E+00  0.00000000000E+00  0.66418681175E+03  0.66418681175E+03  0.00000000000E+00 0.  1.
          1   -1    0    0  501    0  0.00000000000E+00 -0.00000000000E+00 -0.10751195904E+04  0.10751195904E+04  0.00000000000E+00 0. -1.
        -24    2    1    2    0    0 -0.14030324082E+03  0.58162889500E+03 -0.12760059881E+03  0.61691750341E+03  0.79549496008E+02 0.  0.
        254    2    1    2    0    0  0.14030324082E+03 -0.58162889500E+03 -0.28333217980E+03  0.11223888987E+04  0.90636777575E+03 0.  0.
         23    2    4    4    0    0  0.30735941139E+03 -0.12425539292E+02 -0.39656248076E+03  0.51159626747E+03  0.99220652831E+02 0.  0.
         23    2    4    4    0    0 -0.16705617056E+03 -0.56920335571E+03  0.11323030096E+03  0.61079263122E+03  0.91358157993E+02 0.  0.
          1    1    3    3  502    0 -0.66083223305E+02  0.36234755861E+03 -0.11161655244E+03  0.38486491190E+03  0.00000000000E+00 0. -1.
         -2    1    3    3    0  502 -0.74220017518E+02  0.21928133639E+03 -0.15984046371E+02  0.23205259151E+03  0.00000000000E+00 0.  1.
         13    1    5    5    0    0  0.14009074781E+03 -0.31966935480E+02 -0.11732053965E+03  0.18550313100E+03  0.00000000000E+00 0. -1.
        -13    1    5    5    0    0  0.16726866358E+03  0.19541396188E+02 -0.27924194111E+03  0.32609313647E+03  0.00000000000E+00 0.  1.
          4    1    6    6  503    0 -0.35444408047E+00 -0.84124984606E+02 -0.55049063097E+01  0.84305650220E+02  0.00000000000E+00 0. -1.
         -4    1    6    6    0  503 -0.16670172648E+03 -0.48507837110E+03  0.11873520727E+03  0.52648698100E+03  0.00000000000E+00 0.  1.
<mgrwt>
<rscale>  0 0.16900654E+04</rscale>
<asrwt>0</asrwt>
<pdfrwt beam="1">  1        1 0.16540301E+00 0.16900654E+04</pdfrwt>
<pdfrwt beam="2">  1       -2 0.10218259E+00 0.16900654E+04</pdfrwt>
<totfact> 0.86756814E+00</totfact>
</mgrwt>
</event>
<event>
12    5  0.5041746E-008  0.3494411E+04  0.7818608E-02  0.8115116E-01
          1   -1    0    0  501    0  0.00000000000E+00  0.00000000000E+00  0.14020495740E+04  0.14020495740E+04  0.00000000000E+00 0. -1.
         -2   -1    0    0    0  501 -0.00000000000E+00 -0.00000000000E+00 -0.21773321832E+04  0.21773321832E+04  0.00000000000E+00 0.  1.
        -24    2    1    2    0    0  0.10925607168E+04  0.11428894896E+04  0.46883763233E+02  0.15838115773E+04  0.79848104128E+02 0.  0.
        254    2    1    2    0    0 -0.10925607168E+04 -0.11428894896E+04 -0.82216637238E+03  0.19955701800E+04  0.89802978466E+03 0.  0.
         23    2    4    4    0    0 -0.11057717723E+03 -0.69485094040E+03 -0.49210993307E+03  0.86289376478E+03  0.85838928106E+02 0.  0.
         23    2    4    4    0    0 -0.98198353957E+03 -0.44803854917E+03 -0.33005643931E+03  0.11326764152E+04  0.94807145913E+02 0.  0.
          1    1    3    3  502    0  0.10186701217E+04  0.10463724893E+04  0.26616012781E+02  0.14605795478E+04  0.00000000000E+00 0. -1.
         -2    1    3    3    0  502  0.73890595105E+02  0.96517000234E+02  0.20267750452E+02  0.12323202947E+03  0.00000000000E+00 0.  1.
         13    1    5    5    0    0 -0.10227684661E+02 -0.33275569862E+03 -0.22217801677E+03  0.40024246606E+03  0.00000000000E+00 0.  1.
        -13    1    5    5    0    0 -0.10034949257E+03 -0.36209524178E+03 -0.26993191630E+03  0.46265129872E+03  0.00000000000E+00 0. -1.
          3    1    6    6  503    0 -0.18184109045E+03 -0.11299981737E+03 -0.38434686013E+02  0.21751405930E+03  0.00000000000E+00 0. -1.
         -3    1    6    6    0  503 -0.80014244912E+03 -0.33503873180E+03 -0.29162175330E+03  0.91516235592E+03  0.00000000000E+00 0.  1.
<mgrwt>
<rscale>  0 0.34944113E+04</rscale>
<asrwt>0</asrwt>
<pdfrwt beam="1">  1        1 0.21569994E+00 0.34944113E+04</pdfrwt>
<pdfrwt beam="2">  1       -2 0.33497418E+00 0.34944113E+04</pdfrwt>
<totfact> 0.10605522E-01</totfact>
</mgrwt>
</event>
<event>
12    5  0.5041746E-008  0.1585719E+04  0.7818608E-02  0.8829370E-01
          1   -1    0    0  501    0  0.00000000000E+00  0.00000000000E+00  0.26246917597E+04  0.26246917597E+04  0.00000000000E+00 0. -1.
         -2   -1    0    0    0  501 -0.00000000000E+00 -0.00000000000E+00 -0.23950471151E+03  0.23950471151E+03  0.00000000000E+00 0.  1.
        -24    2    1    2    0    0 -0.22565084132E+03 -0.30206190279E+03  0.17563355753E+03  0.42359648152E+03  0.80169428846E+02 0.  0.
        254    2    1    2    0    0  0.22565084132E+03  0.30206190279E+03  0.22095534907E+04  0.24405999897E+04  0.96552679209E+03 0.  0.
         23    2    4    4    0    0 -0.20161683098E+03  0.50336062847E+03  0.13032111198E+04  0.14144687262E+04  0.91330639684E+02 0.  0.
         23    2    4    4    0    0  0.42726767230E+03 -0.20129872568E+03  0.90634237085E+03  0.10261312635E+04  0.91706248212E+02 0.  0.
          3    1    3    3  502    0 -0.10492971516E+03 -0.79283433669E+02  0.49168578998E+02  0.14040533159E+03  0.00000000000E+00 0. -1.
         -4    1    3    3    0  502 -0.12072112616E+03 -0.22277846912E+03  0.12646497853E+03  0.28319114993E+03  0.00000000000E+00 0.  1.
         13    1    5    5    0    0  0.34584054235E+01  0.70080889626E+02  0.18380976305E+03  0.19674684407E+03  0.00000000000E+00 0. -1.
        -13    1    5    5    0    0 -0.20507523641E+03  0.43327973885E+03  0.11194013568E+04  0.12177218821E+04  0.00000000000E+00 0.  1.
          1    1    6    6  503    0  0.11101141666E+03 -0.84727527365E+02  0.20562875996E+03  0.24856684302E+03  0.00000000000E+00 0. -1.
         -1    1    6    6    0  503  0.31625625564E+03 -0.11657119832E+03  0.70071361089E+03  0.77756442048E+03  0.00000000000E+00 0.  1.
<mgrwt>
<rscale>  0 0.15857188E+04</rscale>
<asrwt>0</asrwt>
<pdfrwt beam="1">  1        1 0.40379871E+00 0.15857188E+04</pdfrwt>
<pdfrwt beam="2">  1       -2 0.36846881E-01 0.15857188E+04</pdfrwt>
<totfact> 0.65082650E+00</totfact>
</mgrwt>
</event>
<event>
12    5  0.5041746E-008  0.3592180E+04  0.7818608E-02  0.8092285E-01
         -2   -1    0    0    0  501 -0.00000000000E+00  0.00000000000E+00  0.13803531066E+04  0.13803531066E+04  0.00000000000E+00 0.  1.
          1   -1    0    0  501    0  0.00000000000E+00 -0.00000000000E+00 -0.23370389903E+04  0.23370389903E+04  0.00000000000E+00 0. -1.
        -24    2    1    2    0    0  0.14426717696E+03 -0.48549010683E+03 -0.21075310453E+04  0.21692902269E+04  0.87288712206E+02 0.  0.
        254    2    1    2    0    0 -0.14426717696E+03  0.48549010683E+03  0.11508451617E+04  0.15481018700E+04  0.90313960793E+03 0.  0.
         23    2    4    4    0    0 -0.43263358666E+03  0.13227713945E+03  0.91889188381E+03  0.10285095537E+04  0.93811225301E+02 0.  0.
         23    2    4    4    0    0  0.28836640970E+03  0.35321296737E+03  0.23195327788E+03  0.51959231626E+03  0.90880500832E+02 0.  0.
          1    1    3    3  502    0  0.11207527725E+03 -0.36056382286E+03 -0.13961556256E+04  0.14463117468E+04  0.00000000000E+00 0. -1.
         -4    1    3    3    0  502  0.32191899716E+02 -0.12492628397E+03 -0.71137541978E+03  0.72297848011E+03  0.00000000000E+00 0.  1.
         13    1    5    5    0    0 -0.31387498923E+03  0.12627048458E+03  0.74040163049E+03  0.81403704988E+03  0.00000000000E+00 0.  1.
        -13    1    5    5    0    0 -0.11875859743E+03  0.60066548785E+01  0.17849025332E+03  0.21447250382E+03  0.00000000000E+00 0. -1.
          1    1    6    6  503    0  0.95704987679E+02  0.18832513805E+03  0.11103761611E+03  0.23865279064E+03  0.00000000000E+00 0. -1.
         -1    1    6    6    0  503  0.19266142202E+03  0.16488782932E+03  0.12091566177E+03  0.28093952562E+03  0.00000000000E+00 0.  1.
<mgrwt>
<rscale>  0 0.35921799E+04</rscale>
<asrwt>0</asrwt>
<pdfrwt beam="1">  1        1 0.35954445E+00 0.35921799E+04</pdfrwt>
<pdfrwt beam="2">  1       -2 0.21236202E+00 0.35921799E+04</pdfrwt>
<totfact> 0.13823258E-01</totfact>
</mgrwt>
</event>
<event>
12    5  0.5041746E-008  0.1167679E+04  0.7818608E-02  0.9141627E-01
         -2   -1    0    0    0  501 -0.00000000000E+00  0.00000000000E+00  0.24947428048E+03  0.24947428048E+03  0.00000000000E+00 0.  1.
          1   -1    0    0  501    0  0.00000000000E+00 -0.00000000000E+00 -0.13663473811E+04  0.13663473811E+04  0.00000000000E+00 0. -1.
        -24    2    1    2    0    0 -0.95917129065E+02  0.12424687985E+03 -0.30890516931E+03  0.35538953600E+03  0.79005923025E+02 0.  0.
        254    2    1    2    0    0  0.95917129065E+02 -0.12424687985E+03 -0.80796793134E+03  0.12604321256E+04  0.95458869803E+03 0.  0.
         23    2    4    4    0    0 -0.66967050661E+02  0.29822979477E+03 -0.72523783367E+03  0.79244977946E+03  0.92634449401E+02 0.  0.
         23    2    4    4    0    0  0.16288417973E+03 -0.42247667462E+03 -0.82730097672E+02  0.46798234616E+03  0.84530530879E+02 0.  0.
          3    1    3    3  502    0 -0.52372279424E+02  0.90486916464E+02 -0.26519027784E+03  0.28505547032E+03  0.00000000000E+00 0. -1.
         -4    1    3    3    0  502 -0.43544849641E+02  0.33759963391E+02 -0.43714891472E+02  0.70334065678E+02  0.00000000000E+00 0.  1.
         13    1    5    5    0    0 -0.52844822155E+02  0.30029545619E+03 -0.68653677673E+03  0.75120082670E+03  0.00000000000E+00 0.  1.
        -13    1    5    5    0    0 -0.14122228506E+02 -0.20656614228E+01 -0.38701056946E+02  0.41248952760E+02  0.00000000000E+00 0. -1.
          2    1    6    6  503    0  0.15886281533E+03 -0.31271281506E+03 -0.61021149927E+02  0.35602005497E+03  0.00000000000E+00 0. -1.
         -2    1    6    6    0  503  0.40213643941E+01 -0.10976385956E+03 -0.21708947744E+02  0.11196229119E+03  0.00000000000E+00 0.  1.
<mgrwt>
<rscale>  0 0.11676789E+04</rscale>
<asrwt>0</asrwt>
<pdfrwt beam="1">  1        1 0.21020729E+00 0.11676789E+04</pdfrwt>
<pdfrwt beam="2">  1       -2 0.38380659E-01 0.11676789E+04</pdfrwt>
<totfact> 0.45261587E+01</totfact>
</mgrwt>
</event>
<event>
12    5  0.5041746E-008  0.1698297E+04  0.7818608E-02  0.8762336E-01
          1   -1    0    0  501    0  0.00000000000E+00  0.00000000000E+00  0.61485303140E+03  0.61485303140E+03  0.00000000000E+00 0. -1.
         -4   -1    0    0    0  501 -0.00000000000E+00 -0.00000000000E+00 -0.11727243917E+04  0.11727243917E+04  0.00000000000E+00 0.  1.
        -24    2    1    2    0    0  0.56366082448E+03  0.18636576228E+03 -0.59884677476E+02  0.60194743186E+03  0.79428041181E+02 0.  0.
        254    2    1    2    0    0 -0.56366082448E+03 -0.18636576228E+03 -0.49798668286E+03  0.11856299913E+04  0.89737507067E+03 0.  0.
         23    2    4    4    0    0  0.12781466500E+01  0.18387800639E+03 -0.45947798030E+03  0.50306789346E+03  0.90247083922E+02 0.  0.
         23    2    4    4    0    0 -0.56493897113E+03 -0.37024376868E+03 -0.38508702558E+02  0.68256209780E+03  0.90396945949E+02 0.  0.
          1    1    3    3  502    0  0.84953029204E+02  0.34510395635E+02 -0.37992262547E+02  0.99254201882E+02  0.00000000000E+00 0. -1.
         -2    1    3    3    0  502  0.47870779528E+03  0.15185536665E+03 -0.21892414930E+02  0.50269322998E+03  0.00000000000E+00 0.  1.
         13    1    5    5    0    0  0.35070540695E+01 -0.84809231724E+01 -0.74936194440E+01  0.11848198955E+02  0.00000000000E+00 0. -1.
        -13    1    5    5    0    0 -0.22289074195E+01  0.19235892957E+03 -0.45198436085E+03  0.49121969450E+03  0.00000000000E+00 0.  1.
          3    1    6    6  503    0 -0.50249540288E+02 -0.53988832373E+02 -0.26447729188E+02  0.78353638712E+02  0.00000000000E+00 0. -1.
         -3    1    6    6    0  503 -0.51468943084E+03 -0.31625493630E+03 -0.12060973371E+02  0.60420845909E+03  0.00000000000E+00 0.  1.
<mgrwt>
<rscale>  0 0.16982970E+04</rscale>
<asrwt>0</asrwt>
<pdfrwt beam="1">  1        1 0.94592776E-01 0.16982970E+04</pdfrwt>
<pdfrwt beam="2">  1       -4 0.18041913E+00 0.16982970E+04</pdfrwt>
<totfact> 0.26964321E+00</totfact>
</mgrwt>
</event>
<event>
12    5  0.5041746E-008  0.1734151E+04  0.7818608E-02  0.8742123E-01
          1   -1    0    0  501    0  0.00000000000E+00  0.00000000000E+00  0.28328359417E+04  0.28328359417E+04  0.00000000000E+00 0. -1.
         -2   -1    0    0    0  501 -0.00000000000E+00 -0.00000000000E+00 -0.26539476971E+03  0.26539476971E+03  0.00000000000E+00 0.  1.
        -24    2    1    2    0    0  0.38142039039E+03  0.18910271209E+03  0.95862787578E+02  0.44402111237E+03  0.81998318695E+02 0.  0.
        254    2    1    2    0    0 -0.38142039039E+03 -0.18910271209E+03  0.24715783844E+04  0.26542095990E+04  0.86884264133E+03 0.  0.
         23    2    4    4    0    0  0.10301066759E+03 -0.31912118512E+03  0.44488986669E+03  0.56438187879E+03  0.90279472727E+02 0.  0.
         23    2    4    4    0    0 -0.48443105798E+03  0.13001847304E+03  0.20266885177E+04  0.20898277202E+04  0.91297859521E+02 0.  0.
          3    1    3    3  502    0  0.14541375306E+03  0.32060265495E+02  0.17649795563E+02  0.14994844276E+03  0.00000000000E+00 0. -1.
         -4    1    3    3    0  502  0.23600663733E+03  0.15704244659E+03  0.78212992015E+02  0.29407266962E+03  0.00000000000E+00 0.  1.
         13    1    5    5    0    0  0.25094654554E+02 -0.13194298318E+03  0.11327584027E+03  0.17569891430E+03  0.00000000000E+00 0.  1.
        -13    1    5    5    0    0  0.77916013038E+02 -0.18717820194E+03  0.33161402641E+03  0.38868296449E+03  0.00000000000E+00 0. -1.
          3    1    6    6  503    0 -0.38166450579E+03  0.11083554673E+03  0.14371090392E+04  0.14910515430E+04  0.00000000000E+00 0. -1.
         -3    1    6    6    0  503 -0.10276655219E+03  0.19182926310E+02  0.58957947851E+03  0.59877617721E+03  0.00000000000E+00 0.  1.
<mgrwt>
<rscale>  0 0.17341509E+04</rscale>
<asrwt>0</asrwt>
<pdfrwt beam="1">  1        1 0.43582089E+00 0.17341509E+04</pdfrwt>
<pdfrwt beam="2">  1       -2 0.40829967E-01 0.17341509E+04</pdfrwt>
<totfact> 0.37481407E+00</totfact>
</mgrwt>
</event>
<event>
12    5  0.5041746E-008  0.1708512E+04  0.7818608E-02  0.8756525E-01
         -2   -1    0    0    0  501 -0.00000000000E+00  0.00000000000E+00  0.16195596683E+03  0.16195596683E+03  0.00000000000E+00 0.  1.
          1   -1    0    0  501    0  0.00000000000E+00 -0.00000000000E+00 -0.45058741565E+04  0.45058741565E+04  0.00000000000E+00 0. -1.
        -24    2    1    2    0    0 -0.13704254755E+03  0.76470149335E+02 -0.32045357268E+04  0.32088775396E+04  0.56722976003E+02 0.  0.
        254    2    1    2    0    0  0.13704254755E+03 -0.76470149335E+02 -0.11393824629E+04  0.14589525838E+04  0.89762013201E+03 0.  0.
         23    2    4    4    0    0  0.24503914843E+03  0.45971245866E+02  0.36535742651E+02  0.26824672817E+03  0.91999494431E+02 0.  0.
         23    2    4    4    0    0 -0.10799660087E+03 -0.12244139520E+03 -0.11759182055E+04  0.11907058556E+04  0.91332619607E+02 0.  0.
          3    1    3    3  502    0 -0.81350265898E+02  0.74497936102E+02 -0.22752730696E+04  0.22779454229E+04  0.00000000000E+00 0. -1.
         -4    1    3    3    0  502 -0.55692281657E+02  0.19722132327E+01 -0.92926265722E+03  0.93093211673E+03  0.00000000000E+00 0.  1.
         13    1    5    5    0    0  0.16350414828E+03 -0.14507777264E+02  0.19302647394E+02  0.16527756745E+03  0.00000000000E+00 0. -1.
        -13    1    5    5    0    0  0.81535000149E+02  0.60479023129E+02  0.17233095257E+02  0.10296916072E+03  0.00000000000E+00 0.  1.
          3    1    6    6  503    0 -0.12003111015E+03 -0.11717095288E+03 -0.11433281970E+04  0.11555673349E+04  0.00000000000E+00 0. -1.
         -3    1    6    6    0  503  0.12034509281E+02 -0.52704423220E+01 -0.32590008554E+02  0.35138520650E+02  0.00000000000E+00 0.  1.
<mgrwt>
<rscale>  0 0.17085119E+04</rscale>
<asrwt>0</asrwt>
<pdfrwt beam="1">  1        1 0.69321144E+00 0.17085119E+04</pdfrwt>
<pdfrwt beam="2">  1       -2 0.24916302E-01 0.17085119E+04</pdfrwt>
<totfact> 0.39141529E-01</totfact>
</mgrwt>
</event>
<event>
12    5  0.5041746E-008  0.1961153E+04  0.7818608E-02  0.8625001E-01
         -2   -1    0    0    0  501 -0.00000000000E+00  0.00000000000E+00  0.96468224646E+03  0.96468224646E+03  0.00000000000E+00 0.  1.
          1   -1    0    0  501    0  0.00000000000E+00 -0.00000000000E+00 -0.99673279626E+03  0.99673279626E+03  0.00000000000E+00 0. -1.
        -24    2    1    2    0    0 -0.81204811670E+02 -0.20812081099E+03 -0.75076249786E+03  0.78768705693E+03  0.83054669048E+02 0.  0.
        254    2    1    2    0    0  0.81204811670E+02  0.20812081099E+03  0.71871194806E+03  0.11737279858E+04  0.90065644223E+03 0.  0.
         23    2    4    4    0    0 -0.63242437278E+02 -0.26873115025E+03 -0.54857023661E+01  0.29004080179E+03  0.88755488779E+02 0.  0.
         23    2    4    4    0    0  0.14444724895E+03  0.47685196123E+03  0.72419765043E+03  0.88368718400E+03  0.90487577122E+02 0.  0.
          3    1    3    3  502    0 -0.69857530765E+02 -0.19959996033E+03 -0.74068586058E+03  0.77028291090E+03  0.00000000000E+00 0. -1.
         -4    1    3    3    0  502 -0.11347280905E+02 -0.85208506596E+01 -0.10076637283E+02  0.17404146024E+02  0.00000000000E+00 0.  1.
         13    1    5    5    0    0  0.18653943978E+02 -0.59739919873E+02 -0.18316402819E+02  0.65209801906E+02  0.00000000000E+00 0. -1.
        -13    1    5    5    0    0 -0.81896381256E+02 -0.20899123038E+03  0.12830700453E+02  0.22483099989E+03  0.00000000000E+00 0.  1.
          3    1    6    6  503    0  0.13812135295E+02  0.24733741321E+01  0.25798700128E+02  0.29367764459E+02  0.00000000000E+00 0. -1.
         -3    1    6    6    0  503  0.13063511365E+03  0.47437858710E+03  0.69839895030E+03  0.85431941954E+03  0.00000000000E+00 0.  1.
<mgrwt>
<rscale>  0 0.19611532E+04</rscale>
<asrwt>0</asrwt>
<pdfrwt beam="1">  1        1 0.15334351E+00 0.19611532E+04</pdfrwt>
<pdfrwt beam="2">  1       -2 0.14841265E+00 0.19611532E+04</pdfrwt>
<totfact> 0.38268806E+00</totfact>
</mgrwt>
</event>
<event>
12    5  0.8034945E-008  0.2402180E+04  0.7818608E-02  0.8438688E-01
          1   -1    0    0  501    0  0.00000000000E+00  0.00000000000E+00  0.32698379251E+04  0.32698379251E+04  0.00000000000E+00 0. -1.
         -2   -1    0    0    0  501 -0.00000000000E+00 -0.00000000000E+00 -0.44118916100E+03  0.44118916100E+03  0.00000000000E+00 0.  1.
        -24    2    1    2    0    0 -0.61419391772E+03 -0.14190080991E+03 -0.41129327287E+02  0.63669269045E+03  0.79472964475E+02 0.  0.
        254    2    1    2    0    0  0.61419391772E+03  0.14190080991E+03  0.28697780913E+04  0.30743343956E+04  0.90472961380E+03 0.  0.
         23    2    4    4    0    0  0.50128387200E+03  0.24427156417E+03  0.28400636701E+04  0.28956571436E+04  0.88963621527E+02 0.  0.
         23    2    4    4    0    0  0.11291004572E+03 -0.10237075426E+03  0.29714421270E+02  0.17867725199E+03  0.88397758995E+02 0.  0.
          1    1    3    3  502    0 -0.85857282442E+02 -0.13964725046E+02 -0.32974275747E+02  0.93025745656E+02  0.00000000000E+00 0. -1.
         -2    1    3    3    0  502 -0.52833663528E+03 -0.12793608487E+03 -0.81550515406E+01  0.54366694479E+03  0.00000000000E+00 0.  1.
         13    1    5    5    0    0  0.48762192967E+03  0.25121847697E+03  0.27331431139E+04  0.27876436555E+04  0.00000000000E+00 0. -1.
        -13    1    5    5    0    0  0.13661942332E+02 -0.69469127976E+01  0.10692055620E+03  0.10801348807E+03  0.00000000000E+00 0.  1.
          4    1    6    6  503    0  0.11096659836E+03 -0.74425015847E+02 -0.54422760338E+01  0.13372466977E+03  0.00000000000E+00 0. -1.
         -4    1    6    6    0  503  0.19434473559E+01 -0.27945738413E+02  0.35156697304E+02  0.44952582222E+02  0.00000000000E+00 0.  1.
<mgrwt>
<rscale>  0 0.24021799E+04</rscale>
<asrwt>0</asrwt>
<pdfrwt beam="1">  1        1 0.50305197E+00 0.24021799E+04</pdfrwt>
<pdfrwt beam="2">  1       -2 0.67875258E-01 0.24021799E+04</pdfrwt>
<totfact> 0.59006374E-01</totfact>
</mgrwt>
</event>
<event>
12    5  0.5041746E-008  0.1754398E+04  0.7818608E-02  0.8730933E-01
          1   -1    0    0  501    0  0.00000000000E+00  0.00000000000E+00  0.62263532625E+03  0.62263532625E+03  0.00000000000E+00 0. -1.
         -2   -1    0    0    0  501 -0.00000000000E+00 -0.00000000000E+00 -0.12358404273E+04  0.12358404273E+04  0.00000000000E+00 0.  1.
        -24    2    1    2    0    0 -0.38734320285E+02  0.39154515976E+03  0.34650775352E+03  0.53028299012E+03  0.79526515455E+02 0.  0.
        254    2    1    2    0    0  0.38734320285E+02 -0.39154515976E+03 -0.95971285460E+03  0.13281927635E+04  0.82960188881E+03 0.  0.
         23    2    4    4    0    0  0.21782183217E+03 -0.40739804310E+03 -0.10149203814E+04  0.11188161738E+04  0.90921581978E+02 0.  0.
         23    2    4    4    0    0 -0.17908751188E+03  0.15852883334E+02  0.55207526772E+02  0.20937658969E+03  0.92016490248E+02 0.  0.
          1    1    3    3  502    0 -0.60696091713E+02  0.31812988160E+03  0.29381688604E+03  0.43728594722E+03  0.00000000000E+00 0. -1.
         -2    1    3    3    0  502  0.21961771428E+02  0.73415278165E+02  0.52690867478E+02  0.92997042899E+02  0.00000000000E+00 0.  1.
         13    1    5    5    0    0  0.28742926161E+02 -0.12946217503E+03 -0.24182941455E+03  0.27580441677E+03  0.00000000000E+00 0. -1.
        -13    1    5    5    0    0  0.18907890600E+03 -0.27793586807E+03 -0.77309096682E+03  0.84301175700E+03  0.00000000000E+00 0.  1.
          1    1    6    6  503    0  0.76426275116E+01 -0.10731225775E+02  0.14609401378E+01  0.13255312445E+02  0.00000000000E+00 0. -1.
         -1    1    6    6    0  503 -0.18673013939E+03  0.26584109109E+02  0.53746586634E+02  0.19612127725E+03  0.00000000000E+00 0.  1.
<mgrwt>
<rscale>  0 0.17543978E+04</rscale>
<asrwt>0</asrwt>
<pdfrwt beam="1">  1        1 0.95790050E-01 0.17543978E+04</pdfrwt>
<pdfrwt beam="2">  1       -2 0.19012930E+00 0.17543978E+04</pdfrwt>
<totfact> 0.41593615E+00</totfact>
</mgrwt>
</event>
<event>
12    5  0.5041746E-008  0.1626816E+04  0.7818608E-02  0.8804241E-01
          1   -1    0    0  501    0  0.00000000000E+00  0.00000000000E+00  0.83348069329E+03  0.83348069329E+03  0.00000000000E+00 0. -1.
         -2   -1    0    0    0  501 -0.00000000000E+00 -0.00000000000E+00 -0.79381867730E+03  0.79381867730E+03  0.00000000000E+00 0.  1.
        -24    2    1    2    0    0 -0.18130933300E+03 -0.13524991574E+03 -0.49809469435E+03  0.55272162212E+03  0.78976281738E+02 0.  0.
        254    2    1    2    0    0  0.18130933300E+03  0.13524991574E+03  0.53775671035E+03  0.10745777485E+04  0.90242420403E+03 0.  0.
         23    2    4    4    0    0 -0.23767894028E+02  0.28660512622E+03 -0.14864774309E+03  0.33642399082E+03  0.91528896576E+02 0.  0.
         23    2    4    4    0    0  0.20507722703E+03 -0.15135521048E+03  0.68640445344E+03  0.73815375764E+03  0.93567234841E+02 0.  0.
          3    1    3    3  502    0 -0.84914490531E+01  0.49752286090E+01 -0.36447233978E+01  0.10494837559E+02  0.00000000000E+00 0. -1.
         -4    1    3    3    0  502 -0.17281788395E+03 -0.14022514435E+03 -0.49444997096E+03  0.54222678457E+03  0.00000000000E+00 0.  1.
         13    1    5    5    0    0  0.14330991041E+02  0.10172858457E+02 -0.26540157696E+02  0.31831498927E+02  0.00000000000E+00 0. -1.
        -13    1    5    5    0    0 -0.38098885069E+02  0.27643226777E+03 -0.12210758540E+03  0.30459249189E+03  0.00000000000E+00 0.  1.
          1    1    6    6  503    0  0.91299655014E+02 -0.22499290823E+02  0.31813979266E+03  0.33174504181E+03  0.00000000000E+00 0. -1.
         -1    1    6    6    0  503  0.11377757202E+03 -0.12885591966E+03  0.36826466078E+03  0.40640871583E+03  0.00000000000E+00 0.  1.
<mgrwt>
<rscale>  0 0.16268160E+04</rscale>
<asrwt>0</asrwt>
<pdfrwt beam="1">  1        1 0.12822780E+00 0.16268160E+04</pdfrwt>
<pdfrwt beam="2">  1       -2 0.12212595E+00 0.16268160E+04</pdfrwt>
<totfact> 0.88175050E+00</totfact>
</mgrwt>
</event>
<event>
12    5  0.5041746E-008  0.2206176E+04  0.7818608E-02  0.8515862E-01
          1   -1    0    0  501    0  0.00000000000E+00  0.00000000000E+00  0.10806125186E+04  0.10806125186E+04  0.00000000000E+00 0. -1.
         -2   -1    0    0    0  501 -0.00000000000E+00 -0.00000000000E+00 -0.11260310191E+04  0.11260310191E+04  0.00000000000E+00 0.  1.
        -24    2    1    2    0    0  0.41036682734E+03 -0.78867592152E+03 -0.24902457458E+03  0.92675287789E+03  0.80293310932E+02 0.  0.
        254    2    1    2    0    0 -0.41036682734E+03  0.78867592152E+03  0.20360607403E+03  0.12798906598E+04  0.89791649144E+03 0.  0.
         23    2    4    4    0    0 -0.71567508501E+02  0.39990034032E+03 -0.33079119317E+03  0.53158884742E+03  0.90120468036E+02 0.  0.
         23    2    4    4    0    0 -0.33879931883E+03  0.38877558120E+03  0.53439726720E+03  0.74830181242E+03  0.91889783472E+02 0.  0.
          3    1    3    3  502    0  0.66802494939E+02 -0.86566161927E+02 -0.49506502626E+02  0.12002986096E+03  0.00000000000E+00 0. -1.
         -4    1    3    3    0  502  0.34356433240E+03 -0.70210975959E+03 -0.19951807195E+03  0.80672301693E+03  0.00000000000E+00 0.  1.
         13    1    5    5    0    0 -0.20999829445E+02  0.42047367688E+02 -0.93619689736E+01  0.47923067819E+02  0.00000000000E+00 0.  1.
        -13    1    5    5    0    0 -0.50567679057E+02  0.35785297263E+03 -0.32142922420E+03  0.48366577960E+03  0.00000000000E+00 0. -1.
          4    1    6    6  503    0 -0.26031475566E+03  0.34488534362E+03  0.41777654227E+03  0.60103819473E+03  0.00000000000E+00 0. -1.
         -4    1    6    6    0  503 -0.78484563177E+02  0.43890237576E+02  0.11662072493E+03  0.14726361769E+03  0.00000000000E+00 0.  1.
<mgrwt>
<rscale>  0 0.22061761E+04</rscale>
<asrwt>0</asrwt>
<pdfrwt beam="1">  1        1 0.16624808E+00 0.22061761E+04</pdfrwt>
<pdfrwt beam="2">  1       -2 0.17323554E+00 0.22061761E+04</pdfrwt>
<totfact> 0.21187483E+00</totfact>
</mgrwt>
</event>
<event>
12    5  0.5041746E-008  0.1277297E+04  0.7818608E-02  0.9047765E-01
          1   -1    0    0  501    0  0.00000000000E+00  0.00000000000E+00  0.34665366763E+03  0.34665366763E+03  0.00000000000E+00 0. -1.
         -2   -1    0    0    0  501 -0.00000000000E+00 -0.00000000000E+00 -0.11765980026E+04  0.11765980026E+04  0.00000000000E+00 0.  1.
        -24    2    1    2    0    0 -0.23674509285E+01  0.24139207640E+03 -0.43409638031E+03  0.50331428509E+03  0.81301062772E+02 0.  0.
        254    2    1    2    0    0  0.23674509285E+01 -0.24139207640E+03 -0.39584795464E+03  0.10199373851E+04  0.90846074599E+03 0.  0.
         23    2    4    4    0    0 -0.35930758168E+03 -0.28739579339E+03  0.86819943795E+01  0.46825308085E+03  0.86529130332E+02 0.  0.
         23    2    4    4    0    0  0.36167503261E+03  0.46003716985E+02 -0.40452994902E+03  0.55168430427E+03  0.88237864525E+02 0.  0.
          3    1    3    3  502    0 -0.16528583515E+02  0.60933292836E+01 -0.18669903567E+02  0.25668814425E+02  0.00000000000E+00 0. -1.
         -4    1    3    3    0  502  0.14161132587E+02  0.23529874712E+03 -0.41542647674E+03  0.47764547067E+03  0.00000000000E+00 0.  1.
         13    1    5    5    0    0 -0.33694754431E+03 -0.24245840348E+03  0.23906425242E+02  0.41580192664E+03  0.00000000000E+00 0.  1.
        -13    1    5    5    0    0 -0.22360037367E+02 -0.44937389907E+02 -0.15224430863E+02  0.52451154208E+02  0.00000000000E+00 0. -1.
          3    1    6    6  503    0  0.21232500330E+03  0.58114194571E+01 -0.17658134590E+03  0.27621848479E+03  0.00000000000E+00 0. -1.
         -3    1    6    6    0  503  0.14935002931E+03  0.40192297528E+02 -0.22794860312E+03  0.27546581948E+03  0.00000000000E+00 0.  1.
<mgrwt>
<rscale>  0 0.12772972E+04</rscale>
<asrwt>0</asrwt>
<pdfrwt beam="1">  1        1 0.53331335E-01 0.12772972E+04</pdfrwt>
<pdfrwt beam="2">  1       -2 0.18101507E+00 0.12772972E+04</pdfrwt>
<totfact> 0.11110598E+01</totfact>
</mgrwt>
</event>
<event>
12    5  0.5041746E-008  0.1616231E+04  0.7818608E-02  0.8810638E-01
          1   -1    0    0  501    0  0.00000000000E+00  0.00000000000E+00  0.40241446905E+03  0.40241446905E+03  0.00000000000E+00 0. -1.
         -2   -1    0    0    0  501 -0.00000000000E+00 -0.00000000000E+00 -0.16228312700E+04  0.16228312700E+04  0.00000000000E+00 0.  1.
        -24    2    1    2    0    0 -0.35768599039E+03  0.21178201495E+03  0.37314932266E+02  0.42505168689E+03  0.80533488537E+02 0.  0.
        254    2    1    2    0    0  0.35768599039E+03 -0.21178201495E+03 -0.12577317332E+04  0.16001940521E+04  0.89774216913E+03 0.  0.
         23    2    4    4    0    0 -0.23295126199E+03 -0.11557794506E+03 -0.99496150116E+02  0.29308635004E+03  0.91518155804E+02 0.  0.
         23    2    4    4    0    0  0.59063725238E+03 -0.96204069898E+02 -0.11582355831E+04  0.13071077021E+04  0.94410232597E+02 0.  0.
          3    1    3    3  502    0 -0.33649718215E+03  0.19642510817E+03  0.54960901261E+02  0.39348936121E+03  0.00000000000E+00 0. -1.
         -4    1    3    3    0  502 -0.21188808236E+02  0.15356906784E+02 -0.17645968994E+02  0.31562325677E+02  0.00000000000E+00 0.  1.
         13    1    5    5    0    0 -0.14022583922E+03 -0.21283375191E+02 -0.67231335276E+02  0.15695961419E+03  0.00000000000E+00 0. -1.
        -13    1    5    5    0    0 -0.92725422771E+02 -0.94294569865E+02 -0.32264814840E+02  0.13612673584E+03  0.00000000000E+00 0.  1.
          3    1    6    6  503    0  0.42397214695E+03 -0.70252066518E+02 -0.73377195074E+03  0.85035816568E+03  0.00000000000E+00 0. -1.
         -3    1    6    6    0  503  0.16666510543E+03 -0.25952003380E+02 -0.42446363232E+03  0.45674953641E+03  0.00000000000E+00 0.  1.
<mgrwt>
<rscale>  0 0.16162312E+04</rscale>
<asrwt>0</asrwt>
<pdfrwt beam="1">  1        1 0.61909918E-01 0.16162312E+04</pdfrwt>
<pdfrwt beam="2">  1       -2 0.24966635E+00 0.16162312E+04</pdfrwt>
<totfact> 0.32201851E+00</totfact>
</mgrwt>
</event>
<event>
12    5  0.5041746E-008  0.2204802E+04  0.7818608E-02  0.8516432E-01
          1   -1    0    0  501    0  0.00000000000E+00  0.00000000000E+00  0.78552375365E+03  0.78552375365E+03  0.00000000000E+00 0. -1.
         -2   -1    0    0    0  501 -0.00000000000E+00 -0.00000000000E+00 -0.15471050971E+04  0.15471050971E+04  0.00000000000E+00 0.  1.
        -24    2    1    2    0    0  0.42095707396E+03  0.43241665164E+03  0.42241847731E+03  0.74112486755E+03  0.81484235214E+02 0.  0.
        254    2    1    2    0    0 -0.42095707396E+03 -0.43241665164E+03 -0.11839998208E+04  0.15915039832E+04  0.87569420134E+03 0.  0.
         23    2    4    4    0    0 -0.30261403566E+03 -0.67797777361E+03 -0.67494690268E+03  0.10076022716E+04  0.92086373646E+02 0.  0.
         23    2    4    4    0    0 -0.11834303830E+03  0.24556112197E+03 -0.50905291808E+03  0.58390171160E+03  0.86608290983E+02 0.  0.
          3    1    3    3  502    0  0.34748237091E+03  0.39392706969E+03  0.35199442812E+03  0.63231527876E+03  0.00000000000E+00 0. -1.
         -4    1    3    3    0  502  0.73474703050E+02  0.38489581953E+02  0.70424049198E+02  0.10880958879E+03  0.00000000000E+00 0.  1.
         13    1    5    5    0    0 -0.80938812280E+02 -0.28193546732E+03 -0.28997764025E+03  0.41246300551E+03  0.00000000000E+00 0. -1.
        -13    1    5    5    0    0 -0.22167522338E+03 -0.39604230629E+03 -0.38496926243E+03  0.59513926610E+03  0.00000000000E+00 0.  1.
          4    1    6    6  503    0 -0.93888674668E+02  0.97087958161E+02 -0.22386868161E+03  0.26145428177E+03  0.00000000000E+00 0. -1.
         -4    1    6    6    0  503 -0.24454363631E+02  0.14847316381E+03 -0.28518423648E+03  0.32244742984E+03  0.00000000000E+00 0.  1.
<mgrwt>
<rscale>  0 0.22048019E+04</rscale>
<asrwt>0</asrwt>
<pdfrwt beam="1">  1        1 0.12084981E+00 0.22048019E+04</pdfrwt>
<pdfrwt beam="2">  1       -2 0.23801617E+00 0.22048019E+04</pdfrwt>
<totfact> 0.13852596E+00</totfact>
</mgrwt>
</event>
<event>
12    5  0.5041746E-008  0.2152316E+04  0.7818608E-02  0.8538541E-01
         -2   -1    0    0    0  501 -0.00000000000E+00  0.00000000000E+00  0.34391792615E+03  0.34391792615E+03  0.00000000000E+00 0.  1.
          1   -1    0    0  501    0  0.00000000000E+00 -0.00000000000E+00 -0.33674205063E+04  0.33674205063E+04  0.00000000000E+00 0. -1.
        -24    2    1    2    0    0 -0.28308973598E+03  0.65828641600E+03 -0.21546566256E+04  0.22719926616E+04  0.76971917505E+02 0.  0.
        254    2    1    2    0    0  0.28308973598E+03 -0.65828641600E+03 -0.86884595463E+03  0.14393457709E+04  0.89629356309E+03 0.  0.
         23    2    4    4    0    0 -0.25775455369E+03 -0.42402313386E+03 -0.19858069555E+03  0.54225144232E+03  0.91483911456E+02 0.  0.
         23    2    4    4    0    0  0.54084428967E+03 -0.23426328215E+03 -0.67026525908E+03  0.89709432859E+03  0.90171424690E+02 0.  0.
          1    1    3    3  502    0 -0.10265478393E+03  0.33378188271E+03 -0.10181246822E+04  0.10763485581E+04  0.00000000000E+00 0. -1.
         -2    1    3    3    0  502 -0.18043495205E+03  0.32450453329E+03 -0.11365319433E+04  0.11956441035E+04  0.00000000000E+00 0.  1.
         13    1    5    5    0    0 -0.12211440859E+03 -0.16869529644E+03 -0.38536864985E+02  0.21179027784E+03  0.00000000000E+00 0.  1.
        -13    1    5    5    0    0 -0.13564014510E+03 -0.25532783742E+03 -0.16004383057E+03  0.33046116448E+03  0.00000000000E+00 0. -1.
          3    1    6    6  503    0  0.52004096337E+03 -0.20213880124E+03 -0.62465335767E+03  0.83755269434E+03  0.00000000000E+00 0. -1.
         -3    1    6    6    0  503  0.20803326295E+02 -0.32124480911E+02 -0.45611901404E+02  0.59541634244E+02  0.00000000000E+00 0.  1.
<mgrwt>
<rscale>  0 0.21523162E+04</rscale>
<asrwt>0</asrwt>
<pdfrwt beam="1">  1        1 0.51806470E+00 0.21523162E+04</pdfrwt>
<pdfrwt beam="2">  1       -2 0.52910449E-01 0.21523162E+04</pdfrwt>
<totfact> 0.86150719E-01</totfact>
</mgrwt>
</event>
<event>
12    5  0.5041746E-008  0.1084130E+04  0.7818608E-02  0.9220800E-01
          1   -1    0    0  501    0  0.00000000000E+00  0.00000000000E+00  0.86837943412E+03  0.86837943412E+03  0.00000000000E+00 0. -1.
         -2   -1    0    0    0  501 -0.00000000000E+00 -0.00000000000E+00 -0.33837077424E+03  0.33837077424E+03  0.00000000000E+00 0.  1.
        -24    2    1    2    0    0 -0.34912696125E+02  0.13221692512E+03  0.14708780891E+03  0.21597547860E+03  0.79437851104E+02 0.  0.
        254    2    1    2    0    0  0.34912696125E+02 -0.13221692512E+03  0.38292085098E+03  0.99077472976E+03  0.90349652760E+03 0.  0.
         23    2    4    4    0    0  0.33227328595E+03 -0.24503821014E+03  0.48534628388E+03  0.64379156340E+03  0.91963584346E+02 0.  0.
         23    2    4    4    0    0 -0.29736058982E+03  0.11282128502E+03 -0.10242543291E+03  0.34698316636E+03  0.93564874261E+02 0.  0.
          3    1    3    3  502    0 -0.20858648480E+02  0.10749351793E+03  0.15177684043E+03  0.18715274218E+03  0.00000000000E+00 0. -1.
         -4    1    3    3    0  502 -0.14054047645E+02  0.24723407187E+02 -0.46890315223E+01  0.28822736420E+02  0.00000000000E+00 0.  1.
         13    1    5    5    0    0  0.20617989696E+02 -0.98688166976E+01  0.70509819698E+02  0.74122396858E+02  0.00000000000E+00 0. -1.
        -13    1    5    5    0    0  0.31165529625E+03 -0.23516939344E+03  0.41483646419E+03  0.56966916654E+03  0.00000000000E+00 0.  1.
          4    1    6    6  503    0 -0.39782967789E+02 -0.16004576196E+02 -0.20690535662E+02  0.47612280467E+02  0.00000000000E+00 0. -1.
         -4    1    6    6    0  503 -0.25757762203E+03  0.12882586122E+03 -0.81734897246E+02  0.29937088589E+03  0.00000000000E+00 0.  1.
<mgrwt>
<rscale>  0 0.10841296E+04</rscale>
<asrwt>0</asrwt>
<pdfrwt beam="1">  1        1 0.13359684E+00 0.10841296E+04</pdfrwt>
<pdfrwt beam="2">  1       -2 0.52057043E-01 0.10841296E+04</pdfrwt>
<totfact> 0.58864214E+01</totfact>
</mgrwt>
</event>
<event>
12    5  0.5041746E-008  0.1262618E+04  0.7818608E-02  0.9059747E-01
         -2   -1    0    0    0  501 -0.00000000000E+00  0.00000000000E+00  0.92365761947E+03  0.92365761947E+03  0.00000000000E+00 0.  1.
          1   -1    0    0  501    0  0.00000000000E+00 -0.00000000000E+00 -0.43149188035E+03  0.43149188035E+03  0.00000000000E+00 0. -1.
        -24    2    1    2    0    0 -0.82752572683E+02  0.17562857802E+03 -0.12548796989E+03  0.24406599385E+03  0.78278943934E+02 0.  0.
        254    2    1    2    0    0  0.82752572683E+02 -0.17562857802E+03  0.61765370901E+03  0.11110835060E+04  0.90294909451E+03 0.  0.
         23    2    4    4    0    0  0.10746481336E+03  0.57625986336E+00 -0.21375368539E+03  0.25592413018E+03  0.90870810529E+02 0.  0.
         23    2    4    4    0    0 -0.24712240680E+02 -0.17620483789E+03  0.83140739439E+03  0.85515937578E+03  0.91654038647E+02 0.  0.
          3    1    3    3  502    0 -0.90946068093E+02  0.14541477945E+03 -0.12589457724E+03  0.21275829000E+03  0.00000000000E+00 0. -1.
         -4    1    3    3    0  502  0.81934954094E+01  0.30213798574E+02  0.40660734601E+00  0.31307703857E+02  0.00000000000E+00 0.  1.
         13    1    5    5    0    0 -0.13087825974E+02  0.14121833862E+02 -0.33800947574E+02  0.38900147008E+02  0.00000000000E+00 0. -1.
        -13    1    5    5    0    0  0.12055263934E+03 -0.13545573999E+02 -0.17995273781E+03  0.21702398317E+03  0.00000000000E+00 0.  1.
          4    1    6    6  503    0  0.21349755709E+02 -0.12973569600E+03  0.62297415634E+03  0.63669770091E+03  0.00000000000E+00 0. -1.
         -4    1    6    6    0  503 -0.46061996389E+02 -0.46469141890E+02  0.20843323806E+03  0.21846167487E+03  0.00000000000E+00 0.  1.
<mgrwt>
<rscale>  0 0.12626175E+04</rscale>
<asrwt>0</asrwt>
<pdfrwt beam="1">  1        1 0.66383366E-01 0.12626175E+04</pdfrwt>
<pdfrwt beam="2">  1       -2 0.14210117E+00 0.12626175E+04</pdfrwt>
<totfact> 0.16109417E+01</totfact>
</mgrwt>
</event>
<event>
12    5  0.5041746E-008  0.2726054E+04  0.7818608E-02  0.8326600E-01
         -2   -1    0    0    0  501 -0.00000000000E+00  0.00000000000E+00  0.83249021715E+03  0.83249021715E+03  0.00000000000E+00 0.  1.
          1   -1    0    0  501    0  0.00000000000E+00 -0.00000000000E+00 -0.22316697571E+04  0.22316697571E+04  0.00000000000E+00 0. -1.
        -24    2    1    2    0    0  0.57706189172E+03 -0.10178653884E+04 -0.26708535953E+03  0.12027853204E+04  0.79420160062E+02 0.  0.
        254    2    1    2    0    0 -0.57706189172E+03  0.10178653884E+04 -0.11320941804E+04  0.18613746538E+04  0.90223499871E+03 0.  0.
         23    2    4    4    0    0 -0.70526757022E+03  0.43797112226E+03 -0.86883575496E+03  0.12050961494E+04  0.90333330172E+02 0.  0.
         23    2    4    4    0    0  0.12820567850E+03  0.57989426615E+03 -0.26325842542E+03  0.65627850448E+03  0.93179509460E+02 0.  0.
          1    1    3    3  502    0  0.49769480512E+03 -0.92566983968E+03 -0.24464670826E+03  0.10790814534E+04  0.00000000000E+00 0. -1.
         -2    1    3    3    0  502  0.79367086595E+02 -0.92195548728E+02 -0.22438651262E+02  0.12370386700E+03  0.00000000000E+00 0.  1.
         13    1    5    5    0    0 -0.56959801022E+03  0.36675691378E+03 -0.65755501186E+03  0.94410334216E+03  0.00000000000E+00 0. -1.
        -13    1    5    5    0    0 -0.13566956000E+03  0.71214208483E+02 -0.21128074311E+03  0.26099280720E+03  0.00000000000E+00 0.  1.
          2    1    6    6  503    0  0.13558336889E+03  0.54449809490E+03 -0.22769413562E+03  0.60556225498E+03  0.00000000000E+00 0. -1.
         -2    1    6    6    0  503 -0.73776903861E+01  0.35396171252E+02 -0.35564289795E+02  0.50716249500E+02  0.00000000000E+00 0.  1.
<mgrwt>
<rscale>  0 0.27260545E+04</rscale>
<asrwt>0</asrwt>
<pdfrwt beam="1">  1        1 0.34333380E+00 0.27260545E+04</pdfrwt>
<pdfrwt beam="2">  1       -2 0.12807542E+00 0.27260545E+04</pdfrwt>
<totfact> 0.71594569E-01</totfact>
</mgrwt>
</event>
<event>
12    5  0.5041746E-008  0.1461350E+04  0.7818608E-02  0.8910570E-01
          1   -1    0    0  501    0  0.00000000000E+00  0.00000000000E+00  0.14428809293E+04  0.14428809293E+04  0.00000000000E+00 0. -1.
         -2   -1    0    0    0  501 -0.00000000000E+00 -0.00000000000E+00 -0.37001378080E+03  0.37001378080E+03  0.00000000000E+00 0.  1.
        -24    2    1    2    0    0  0.14179043425E+03  0.24727915957E+03  0.77580959077E+03  0.83045930382E+03  0.80812277333E+02 0.  0.
        254    2    1    2    0    0 -0.14179043425E+03 -0.24727915957E+03  0.29705755773E+03  0.98243540627E+03  0.89201156096E+03 0.  0.
         23    2    4    4    0    0 -0.15604386426E+02 -0.30546263248E+03 -0.25249831382E+03  0.40840128990E+03  0.97392496633E+02 0.  0.
         23    2    4    4    0    0 -0.12618604783E+03  0.58183472909E+02  0.54955587154E+03  0.57403411637E+03  0.90527761579E+02 0.  0.
          3    1    3    3  502    0  0.67529180531E+02  0.82465259126E+02  0.19579099321E+03  0.22292335501E+03  0.00000000000E+00 0. -1.
         -4    1    3    3    0  502  0.74261253722E+02  0.16481390044E+03  0.58001859756E+03  0.60753594881E+03  0.00000000000E+00 0.  1.
         13    1    5    5    0    0 -0.18771902599E+02 -0.28234930312E+03 -0.18778853450E+03  0.33961455651E+03  0.00000000000E+00 0. -1.
        -13    1    5    5    0    0  0.31675161732E+01 -0.23113329352E+02 -0.64709779314E+02  0.68786733396E+02  0.00000000000E+00 0.  1.
          4    1    6    6  503    0 -0.55255868799E+01  0.18317699706E+01  0.19823375339E+03  0.19831920854E+03  0.00000000000E+00 0. -1.
         -4    1    6    6    0  503 -0.12066046095E+03  0.56351702939E+02  0.35132211815E+03  0.37571490783E+03  0.00000000000E+00 0.  1.
<mgrwt>
<rscale>  0 0.14613498E+04</rscale>
<asrwt>0</asrwt>
<pdfrwt beam="1">  1        1 0.22198168E+00 0.14613498E+04</pdfrwt>
<pdfrwt beam="2">  1       -2 0.56925198E-01 0.14613498E+04</pdfrwt>
<totfact> 0.17659616E+01</totfact>
</mgrwt>
</event>
<event>
12    5  0.5041746E-008  0.1511762E+04  0.7818608E-02  0.8876669E-01
         -2   -1    0    0    0  501 -0.00000000000E+00  0.00000000000E+00  0.23300904286E+03  0.23300904286E+03  0.00000000000E+00 0.  1.
          1   -1    0    0  501    0  0.00000000000E+00 -0.00000000000E+00 -0.24520759229E+04  0.24520759229E+04  0.00000000000E+00 0. -1.
        -24    2    1    2    0    0  0.36150860299E+02  0.25719671781E+03  0.57559509870E+01  0.27151533360E+03  0.78932940246E+02 0.  0.
        254    2    1    2    0    0 -0.36150860299E+02 -0.25719671781E+03 -0.22248228310E+04  0.24135696321E+04  0.89890194317E+03 0.  0.
         23    2    4    4    0    0  0.32131373546E+03 -0.23053804141E+03 -0.18236393796E+04  0.18682520714E+04  0.91186130973E+02 0.  0.
         23    2    4    4    0    0 -0.35746459576E+03 -0.26658676407E+02 -0.40118345146E+03  0.54531756075E+03  0.89058733876E+02 0.  0.
          3    1    3    3  502    0 -0.17319896946E+02  0.14771826592E+02  0.47873792601E+01  0.23261657105E+02  0.00000000000E+00 0. -1.
         -4    1    3    3    0  502  0.53470757245E+02  0.24242489122E+03  0.96857172684E+00  0.24825367650E+03  0.00000000000E+00 0.  1.
         13    1    5    5    0    0  0.21437985268E+03 -0.11928363253E+03 -0.12716473301E+04  0.12950962274E+04  0.00000000000E+00 0.  1.
        -13    1    5    5    0    0  0.10693388278E+03 -0.11125440887E+03 -0.55199204951E+03  0.57315584399E+03  0.00000000000E+00 0. -1.
          2    1    6    6  503    0 -0.70162475704E+02  0.25290760245E+02 -0.11058592724E+03  0.13338531724E+03  0.00000000000E+00 0. -1.
         -2    1    6    6    0  503 -0.28730212006E+03 -0.51949436652E+02 -0.29059752422E+03  0.41193224351E+03  0.00000000000E+00 0.  1.
<mgrwt>
<rscale>  0 0.15117617E+04</rscale>
<asrwt>0</asrwt>
<pdfrwt beam="1">  1        1 0.37724244E+00 0.15117617E+04</pdfrwt>
<pdfrwt beam="2">  1       -2 0.35847546E-01 0.15117617E+04</pdfrwt>
<totfact> 0.91012177E+00</totfact>
</mgrwt>
</event>
<event>
12    5  0.5041746E-008  0.4268412E+04  0.7818608E-02  0.7952485E-01
         -2   -1    0    0    0  501 -0.00000000000E+00  0.00000000000E+00  0.18927268525E+04  0.18927268525E+04  0.00000000000E+00 0.  1.
          1   -1    0    0  501    0  0.00000000000E+00 -0.00000000000E+00 -0.24064942617E+04  0.24064942617E+04  0.00000000000E+00 0. -1.
        -24    2    1    2    0    0 -0.13113792195E+04 -0.10869426826E+04  0.88251841214E+03  0.19198861562E+04  0.77228570998E+02 0.  0.
        254    2    1    2    0    0  0.13113792195E+04  0.10869426826E+04 -0.13962858214E+04  0.23793349580E+04  0.90025601631E+03 0.  0.
         23    2    4    4    0    0  0.56960047482E+03  0.10232862750E+04 -0.88852626420E+03  0.14729190861E+04  0.91935905030E+02 0.  0.
         23    2    4    4    0    0  0.74177874472E+03  0.63656407616E+02 -0.50775955717E+03  0.90641587191E+03  0.97376180876E+02 0.  0.
          3    1    3    3  502    0 -0.18134786809E+03 -0.13690350318E+03  0.14548366128E+03  0.26980569701E+03  0.00000000000E+00 0. -1.
         -4    1    3    3    0  502 -0.11300313515E+04 -0.95003917942E+03  0.73703475086E+03  0.16500804592E+04  0.00000000000E+00 0.  1.
         13    1    5    5    0    0  0.48097299996E+03  0.83604945762E+03 -0.68934722340E+03  0.11855434689E+04  0.00000000000E+00 0.  1.
        -13    1    5    5    0    0  0.88627474858E+02  0.18723681736E+03 -0.19917904080E+03  0.28737561721E+03  0.00000000000E+00 0. -1.
          3    1    6    6  503    0  0.17862772146E+03 -0.52459192095E+01 -0.16704270234E+03  0.24461939201E+03  0.00000000000E+00 0. -1.
         -3    1    6    6    0  503  0.56315102327E+03  0.68902326825E+02 -0.34071685483E+03  0.66179647990E+03  0.00000000000E+00 0.  1.
<mgrwt>
<rscale>  0 0.42684125E+04</rscale>
<asrwt>0</asrwt>
<pdfrwt beam="1">  1        1 0.37022988E+00 0.42684125E+04</pdfrwt>
<pdfrwt beam="2">  1       -2 0.29118875E+00 0.42684125E+04</pdfrwt>
<totfact> 0.38103976E-02</totfact>
</mgrwt>
</event>
<event>
12    5  0.5041746E-008  0.1584904E+04  0.7818608E-02  0.8829876E-01
          1   -1    0    0  501    0  0.00000000000E+00  0.00000000000E+00  0.54415620883E+03  0.54415620883E+03  0.00000000000E+00 0. -1.
         -2   -1    0    0    0  501 -0.00000000000E+00 -0.00000000000E+00 -0.11540442293E+04  0.11540442293E+04  0.00000000000E+00 0.  1.
        -24    2    1    2    0    0  0.21885148409E+03 -0.15686575746E+03  0.25311464226E+03  0.37795612905E+03  0.79252605075E+02 0.  0.
        254    2    1    2    0    0 -0.21885148409E+03  0.15686575746E+03 -0.86300266272E+03  0.13202443091E+04  0.96216869717E+03 0.  0.
         23    2    4    4    0    0  0.21789140835E+03 -0.17684742668E+03 -0.66847130648E+03  0.72954109552E+03  0.81391917932E+02 0.  0.
         23    2    4    4    0    0 -0.43674289244E+03  0.33371318413E+03 -0.19453135624E+03  0.59070321355E+03  0.94757556854E+02 0.  0.
          1    1    3    3  502    0  0.16969416813E+03 -0.99446585580E+02  0.22094519098E+03  0.29580823434E+03  0.00000000000E+00 0. -1.
         -4    1    3    3    0  502  0.49157315953E+02 -0.57419171878E+02  0.32169451279E+02  0.82147894717E+02  0.00000000000E+00 0.  1.
         13    1    5    5    0    0  0.21475150876E+03 -0.16144330738E+03 -0.65777060157E+03  0.71052397307E+03  0.00000000000E+00 0.  1.
        -13    1    5    5    0    0  0.31398995914E+01 -0.15404119294E+02 -0.10700704908E+02  0.19017122448E+02  0.00000000000E+00 0. -1.
          4    1    6    6  503    0 -0.10027007699E+03  0.79293491391E+02 -0.41582110725E+01  0.12790166862E+03  0.00000000000E+00 0. -1.
         -4    1    6    6    0  503 -0.33647281545E+03  0.25441969274E+03 -0.19037314517E+03  0.46280154493E+03  0.00000000000E+00 0.  1.
<mgrwt>
<rscale>  0 0.15849042E+04</rscale>
<asrwt>0</asrwt>
<pdfrwt beam="1">  1        1 0.83716341E-01 0.15849042E+04</pdfrwt>
<pdfrwt beam="2">  1       -2 0.17754526E+00 0.15849042E+04</pdfrwt>
<totfact> 0.62365457E+00</totfact>
</mgrwt>
</event>
<event>
12    5  0.5041746E-008  0.2371410E+04  0.7818608E-02  0.8450285E-01
          1   -1    0    0  501    0  0.00000000000E+00  0.00000000000E+00  0.15827576016E+04  0.15827576016E+04  0.00000000000E+00 0. -1.
         -2   -1    0    0    0  501 -0.00000000000E+00 -0.00000000000E+00 -0.88825769931E+03  0.88825769931E+03  0.00000000000E+00 0.  1.
        -24    2    1    2    0    0 -0.39299566279E+03  0.74620218022E+03  0.88721306652E+03  0.12266060864E+04  0.78435839993E+02 0.  0.
        254    2    1    2    0    0  0.39299566279E+03 -0.74620218022E+03 -0.19271316419E+03  0.12444092146E+04  0.89451251804E+03 0.  0.
         23    2    4    4    0    0 -0.15709348283E+03 -0.17863874751E+03  0.22987436399E+03  0.34343015779E+03  0.92259880765E+02 0.  0.
         23    2    4    4    0    0  0.55008914562E+03 -0.56756343271E+03 -0.42258752818E+03  0.90097905679E+03  0.91960445464E+02 0.  0.
          1    1    3    3  502    0  0.68164767416E+00  0.25434560129E+02  0.21468972640E+02  0.33291114111E+02  0.00000000000E+00 0. -1.
         -2    1    3    3    0  502 -0.39367731046E+03  0.72076762009E+03  0.86574409388E+03  0.11933149723E+04  0.00000000000E+00 0.  1.
         13    1    5    5    0    0 -0.11051084159E+03 -0.64591745726E+02  0.14717977194E+03  0.19505544082E+03  0.00000000000E+00 0.  1.
        -13    1    5    5    0    0 -0.46582641235E+02 -0.11404700179E+03  0.82694592051E+02  0.14837471697E+03  0.00000000000E+00 0. -1.
          1    1    6    6  503    0  0.23239254144E+02 -0.21460603765E+02 -0.40521905227E+02  0.51406665427E+02  0.00000000000E+00 0. -1.
         -1    1    6    6    0  503  0.52684989147E+03 -0.54610282894E+03 -0.38206562295E+03  0.84957239136E+03  0.00000000000E+00 0.  1.
<mgrwt>
<rscale>  0 0.23714102E+04</rscale>
<asrwt>0</asrwt>
<pdfrwt beam="1">  1        1 0.24350117E+00 0.23714102E+04</pdfrwt>
<pdfrwt beam="2">  1       -2 0.13665503E+00 0.23714102E+04</pdfrwt>
<totfact> 0.17299180E+00</totfact>
</mgrwt>
</event>
<event>
12    5  0.5041746E-008  0.1990563E+04  0.7818608E-02  0.8611045E-01
         -2   -1    0    0    0  501 -0.00000000000E+00  0.00000000000E+00  0.75730326517E+03  0.75730326517E+03  0.00000000000E+00 0.  1.
          1   -1    0    0  501    0  0.00000000000E+00 -0.00000000000E+00 -0.13080434203E+04  0.13080434203E+04  0.00000000000E+00 0. -1.
        -24    2    1    2    0    0  0.19072145619E+03 -0.74414280377E+03 -0.20603525073E+02  0.77291843661E+03  0.82796244805E+02 0.  0.
        254    2    1    2    0    0 -0.19072145619E+03  0.74414280377E+03 -0.53013663004E+03  0.12924282488E+04  0.89398140118E+03 0.  0.
         23    2    4    4    0    0 -0.97902885692E+02  0.20401671741E+03  0.24030118718E+03  0.34261802155E+03  0.91840362147E+02 0.  0.
         23    2    4    4    0    0 -0.92818570493E+02  0.54012608636E+03 -0.77043781722E+03  0.94981022729E+03  0.90628701185E+02 0.  0.
          3    1    3    3  502    0  0.10764854738E+02 -0.94827055144E+01 -0.80176397219E+01  0.16434304005E+02  0.00000000000E+00 0. -1.
         -4    1    3    3    0  502  0.17995660145E+03 -0.73466009825E+03 -0.12585885351E+02  0.75648413260E+03  0.00000000000E+00 0.  1.
         13    1    5    5    0    0 -0.21169804348E+02  0.14118823888E+03  0.11842870274E+03  0.18549295687E+03  0.00000000000E+00 0. -1.
        -13    1    5    5    0    0 -0.76733081344E+02  0.62828478528E+02  0.12187248445E+03  0.15712506468E+03  0.00000000000E+00 0.  1.
          4    1    6    6  503    0 -0.24468486271E+01  0.12776816264E+03 -0.23992046678E+03  0.27183178775E+03  0.00000000000E+00 0. -1.
         -4    1    6    6    0  503 -0.90371721866E+02  0.41235792372E+03 -0.53051735044E+03  0.67797843954E+03  0.00000000000E+00 0.  1.
<mgrwt>
<rscale>  0 0.19905633E+04</rscale>
<asrwt>0</asrwt>
<pdfrwt beam="1">  1        1 0.20123745E+00 0.19905633E+04</pdfrwt>
<pdfrwt beam="2">  1       -2 0.11650819E+00 0.19905633E+04</pdfrwt>
<totfact> 0.41532250E+00</totfact>
</mgrwt>
</event>
<event>
12    5  0.5041746E-008  0.1423295E+04  0.7818608E-02  0.8937127E-01
         -2   -1    0    0    0  501 -0.00000000000E+00  0.00000000000E+00  0.54862498549E+03  0.54862498549E+03  0.00000000000E+00 0.  1.
          1   -1    0    0  501    0  0.00000000000E+00 -0.00000000000E+00 -0.92311220551E+03  0.92311220551E+03  0.00000000000E+00 0. -1.
        -24    2    1    2    0    0 -0.54593585638E+02  0.12482752083E+03  0.30228699895E+03  0.34064309899E+03  0.78089190091E+02 0.  0.
        254    2    1    2    0    0  0.54593585638E+02 -0.12482752083E+03 -0.67677421897E+03  0.11310940920E+04  0.89598444851E+03 0.  0.
         23    2    4    4    0    0  0.99280327749E+02  0.37238083998E+03 -0.26186760200E+03  0.47570526370E+03  0.95899861687E+02 0.  0.
         23    2    4    4    0    0 -0.44686742111E+02 -0.49720836080E+03 -0.41490661697E+03  0.65538882832E+03  0.90409935853E+02 0.  0.
          3    1    3    3  502    0 -0.37389078372E+02  0.10373130678E+02  0.10462673705E+03  0.11158987018E+03  0.00000000000E+00 0. -1.
         -4    1    3    3    0  502 -0.17204507265E+02  0.11445439015E+03  0.19766026190E+03  0.22905322881E+03  0.00000000000E+00 0.  1.
         13    1    5    5    0    0  0.62335087204E+02  0.75836393282E+02 -0.70179093671E+02  0.12067280900E+03  0.00000000000E+00 0.  1.
        -13    1    5    5    0    0  0.36945240545E+02  0.29654444670E+03 -0.19168850833E+03  0.35503245470E+03  0.00000000000E+00 0. -1.
          1    1    6    6  503    0  0.20815329033E+02 -0.22977953437E+03 -0.21242066425E+03  0.31361513187E+03  0.00000000000E+00 0. -1.
         -1    1    6    6    0  503 -0.65502071144E+02 -0.26742882644E+03 -0.20248595272E+03  0.34177369645E+03  0.00000000000E+00 0.  1.
<mgrwt>
<rscale>  0 0.14232954E+04</rscale>
<asrwt>0</asrwt>
<pdfrwt beam="1">  1        1 0.14201726E+00 0.14232954E+04</pdfrwt>
<pdfrwt beam="2">  1       -2 0.84403845E-01 0.14232954E+04</pdfrwt>
<totfact> 0.18198887E+01</totfact>
</mgrwt>
</event>
<event>
12    5  0.5041746E-008  0.1437174E+04  0.7818608E-02  0.8927341E-01
         -2   -1    0    0    0  501 -0.00000000000E+00  0.00000000000E+00  0.72778633980E+03  0.72778633980E+03  0.00000000000E+00 0.  1.
          1   -1    0    0  501    0  0.00000000000E+00 -0.00000000000E+00 -0.70950437625E+03  0.70950437625E+03  0.00000000000E+00 0. -1.
        -24    2    1    2    0    0 -0.28251707934E+03  0.65027141147E+02 -0.31774065721E+03  0.43749990955E+03  0.80016350870E+02 0.  0.
        254    2    1    2    0    0  0.28251707934E+03 -0.65027141147E+02  0.33602262076E+03  0.99979080650E+03  0.89589398140E+03 0.  0.
         23    2    4    4    0    0 -0.21841399879E+03  0.21260524550E+03  0.26672796920E+03  0.41569933153E+03  0.93575955221E+02 0.  0.
         23    2    4    4    0    0  0.50093107813E+03 -0.27763238664E+03  0.69294651560E+02  0.58409147498E+03  0.91375134794E+02 0.  0.
          1    1    3    3  502    0 -0.12162191368E+03  0.51892416878E+02 -0.19078394588E+03  0.23212760892E+03  0.00000000000E+00 0. -1.
         -2    1    3    3    0  502 -0.16089516566E+03  0.13134724269E+02 -0.12695671133E+03  0.20537230063E+03  0.00000000000E+00 0.  1.
         13    1    5    5    0    0 -0.85224801045E+02  0.27553015051E+02  0.92438991518E+02  0.12871442229E+03  0.00000000000E+00 0.  1.
        -13    1    5    5    0    0 -0.13318919775E+03  0.18505223045E+03  0.17428897769E+03  0.28698490924E+03  0.00000000000E+00 0. -1.
          3    1    6    6  503    0  0.40475085828E+03 -0.23791821974E+03  0.89864524681E+02  0.47802088800E+03  0.00000000000E+00 0. -1.
         -3    1    6    6    0  503  0.96180219842E+02 -0.39714166905E+02 -0.20569873121E+02  0.10607058698E+03  0.00000000000E+00 0.  1.
<mgrwt>
<rscale>  0 0.14371744E+04</rscale>
<asrwt>0</asrwt>
<pdfrwt beam="1">  1        1 0.10915452E+00 0.14371744E+04</pdfrwt>
<pdfrwt beam="2">  1       -2 0.11196713E+00 0.14371744E+04</pdfrwt>
<totfact> 0.14297888E+01</totfact>
</mgrwt>
</event>
<event>
12    5  0.5041746E-008  0.1365932E+04  0.7818608E-02  0.8978854E-01
         -4   -1    0    0    0  501 -0.00000000000E+00  0.00000000000E+00  0.35089862910E+03  0.35089862910E+03  0.00000000000E+00 0.  1.
          3   -1    0    0  501    0  0.00000000000E+00 -0.00000000000E+00 -0.13292805167E+04  0.13292805167E+04  0.00000000000E+00 0. -1.
        -24    2    1    2    0    0 -0.30871169028E+03 -0.96988280822E+02 -0.37843342356E+02  0.33436944878E+03  0.75240782684E+02 0.  0.
        254    2    1    2    0    0  0.30871169028E+03  0.96988280822E+02 -0.94053854521E+03  0.13458096970E+04  0.90657672104E+03 0.  0.
         23    2    4    4    0    0  0.61382166509E+03  0.13242981842E+03 -0.70350986648E+03  0.94735561785E+03  0.90784586260E+02 0.  0.
         23    2    4    4    0    0 -0.30510997480E+03 -0.35441537594E+02 -0.23702867873E+03  0.39845407913E+03  0.90746125690E+02 0.  0.
          1    1    3    3  502    0 -0.10478367422E+03 -0.46947135259E+02 -0.47294234560E+02  0.12417888916E+03  0.00000000000E+00 0. -1.
         -2    1    3    3    0  502 -0.20392801607E+03 -0.50041145563E+02  0.94508922039E+01  0.21019055961E+03  0.00000000000E+00 0.  1.
         13    1    5    5    0    0  0.25998910478E+02 -0.84674030367E+01 -0.51123364821E+02  0.57976190724E+02  0.00000000000E+00 0.  1.
        -13    1    5    5    0    0  0.58782275461E+03  0.14089722145E+03 -0.65238650166E+03  0.88937942712E+03  0.00000000000E+00 0. -1.
          1    1    6    6  503    0 -0.18723329426E+03 -0.49486373017E+02 -0.18835242331E+03  0.27015151853E+03  0.00000000000E+00 0. -1.
         -1    1    6    6    0  503 -0.11787668054E+03  0.14044835423E+02 -0.48676255418E+02  0.12830256061E+03  0.00000000000E+00 0.  1.
<mgrwt>
<rscale>  0 0.13659322E+04</rscale>
<asrwt>0</asrwt>
<pdfrwt beam="1">  1        3 0.20450469E+00 0.13659322E+04</pdfrwt>
<pdfrwt beam="2">  1       -4 0.53984405E-01 0.13659322E+04</pdfrwt>
<totfact> 0.10145056E+00</totfact>
</mgrwt>
</event>
<event>
12    5  0.5041746E-008  0.1526653E+04  0.7818608E-02  0.8866920E-01
         -2   -1    0    0    0  501 -0.00000000000E+00  0.00000000000E+00  0.50433539861E+03  0.50433539861E+03  0.00000000000E+00 0.  1.
          1   -1    0    0  501    0  0.00000000000E+00 -0.00000000000E+00 -0.11553175809E+04  0.11553175809E+04  0.00000000000E+00 0. -1.
        -24    2    1    2    0    0 -0.46857350464E+02  0.27691786332E+03 -0.66910744965E+03  0.73000801606E+03  0.79547533062E+02 0.  0.
        254    2    1    2    0    0  0.46857350464E+02 -0.27691786332E+03  0.18125267389E+02  0.92964496342E+03  0.88602038260E+03 0.  0.
         23    2    4    4    0    0 -0.24329374058E+03  0.11135040771E+03 -0.24084491565E+03  0.37225082463E+03  0.94729327780E+02 0.  0.
         23    2    4    4    0    0  0.29015109104E+03 -0.38826827103E+03  0.25897018304E+03  0.55739413879E+03  0.93181351873E+02 0.  0.
          3    1    3    3  502    0 -0.44582004363E+02  0.19925414241E+03 -0.56000897023E+03  0.59607031055E+03  0.00000000000E+00 0. -1.
         -4    1    3    3    0  502 -0.22753461018E+01  0.77663720912E+02 -0.10909847942E+03  0.13393770551E+03  0.00000000000E+00 0.  1.
         13    1    5    5    0    0 -0.24893185334E+03  0.96367034876E+02 -0.23345107965E+03  0.35461680672E+03  0.00000000000E+00 0. -1.
        -13    1    5    5    0    0  0.56381127601E+01  0.14983372832E+02 -0.73938360013E+01  0.17634017912E+02  0.00000000000E+00 0.  1.
          4    1    6    6  503    0  0.24464944712E+03 -0.37165593990E+03  0.23808204362E+03  0.50464299176E+03  0.00000000000E+00 0. -1.
         -4    1    6    6    0  503  0.45501643919E+02 -0.16612331133E+02  0.20888139419E+02  0.52751147034E+02  0.00000000000E+00 0.  1.
<mgrwt>
<rscale>  0 0.15266533E+04</rscale>
<asrwt>0</asrwt>
<pdfrwt beam="1">  1        1 0.17774117E+00 0.15266533E+04</pdfrwt>
<pdfrwt beam="2">  1       -2 0.77590062E-01 0.15266533E+04</pdfrwt>
<totfact> 0.14446864E+01</totfact>
</mgrwt>
</event>
<event>
12    5  0.5041746E-008  0.1242654E+04  0.7818608E-02  0.9076320E-01
         -2   -1    0    0    0  501 -0.00000000000E+00  0.00000000000E+00  0.23476320295E+03  0.23476320295E+03  0.00000000000E+00 0.  1.
          1   -1    0    0  501    0  0.00000000000E+00 -0.00000000000E+00 -0.16444099455E+04  0.16444099455E+04  0.00000000000E+00 0. -1.
        -24    2    1    2    0    0  0.19468911816E+03 -0.57959336205E+02 -0.66129912747E+03  0.69675033179E+03  0.82953911807E+02 0.  0.
        254    2    1    2    0    0 -0.19468911816E+03  0.57959336205E+02 -0.74834761510E+03  0.11824228167E+04  0.89265694810E+03 0.  0.
         23    2    4    4    0    0  0.28897121890E+03  0.17670210855E+03 -0.52036998056E+03  0.62740200666E+03  0.90113044404E+02 0.  0.
         23    2    4    4    0    0 -0.48366033706E+03 -0.11874277234E+03 -0.22797763454E+03  0.55502081001E+03  0.89705797300E+02 0.  0.
          3    1    3    3  502    0  0.92723671366E+02 -0.60042651908E+01 -0.41336617240E+03  0.42368068509E+03  0.00000000000E+00 0. -1.
         -4    1    3    3    0  502  0.10196544680E+03 -0.51955071014E+02 -0.24793295506E+03  0.27306964670E+03  0.00000000000E+00 0.  1.
         13    1    5    5    0    0  0.19290578739E+03  0.14614526683E+03 -0.42246551072E+03  0.48687594885E+03  0.00000000000E+00 0. -1.
        -13    1    5    5    0    0  0.96065431510E+02  0.30556841716E+02 -0.97904469845E+02  0.14052605781E+03  0.00000000000E+00 0.  1.
          2    1    6    6  503    0 -0.19647068612E+03 -0.86131233365E+02 -0.70137014431E+02  0.22569563722E+03  0.00000000000E+00 0. -1.
         -2    1    6    6    0  503 -0.28718965094E+03 -0.32611538979E+02 -0.15784062011E+03  0.32932517280E+03  0.00000000000E+00 0.  1.
<mgrwt>
<rscale>  0 0.12426535E+04</rscale>
<asrwt>0</asrwt>
<pdfrwt beam="1">  1        1 0.25298614E+00 0.12426535E+04</pdfrwt>
<pdfrwt beam="2">  1       -2 0.36117417E-01 0.12426535E+04</pdfrwt>
<totfact> 0.32492498E+01</totfact>
</mgrwt>
</event>
<event>
12    5  0.5041746E-008  0.1955542E+04  0.7818608E-02  0.8627693E-01
          1   -1    0    0  501    0  0.00000000000E+00  0.00000000000E+00  0.20482726761E+04  0.20482726761E+04  0.00000000000E+00 0. -1.
         -2   -1    0    0    0  501 -0.00000000000E+00 -0.00000000000E+00 -0.46675249991E+03  0.46675249991E+03  0.00000000000E+00 0.  1.
        -24    2    1    2    0    0 -0.43666926238E+03 -0.38540320041E+03 -0.21708598460E+02  0.58806667753E+03  0.78329320033E+02 0.  0.
        254    2    1    2    0    0  0.43666926238E+03  0.38540320041E+03  0.16032287746E+04  0.19269584984E+04  0.89644346136E+03 0.  0.
         23    2    4    4    0    0  0.50977793174E+03  0.55378499448E+03  0.81306907415E+03  0.11115100991E+04  0.88442191862E+02 0.  0.
         23    2    4    4    0    0 -0.73108669364E+02 -0.16838179407E+03  0.79015970046E+03  0.81544839933E+03  0.83104955482E+02 0.  0.
          3    1    3    3  502    0 -0.15827612600E+03 -0.11968374907E+03  0.26556709699E+02  0.20020187482E+03  0.00000000000E+00 0. -1.
         -4    1    3    3    0  502 -0.27839313638E+03 -0.26571945134E+03 -0.48265308159E+02  0.38786480270E+03  0.00000000000E+00 0.  1.
         13    1    5    5    0    0  0.76559520392E+02  0.12171353861E+03  0.18971536620E+03  0.23804929283E+03  0.00000000000E+00 0.  1.
        -13    1    5    5    0    0  0.43321841135E+03  0.43207145587E+03  0.62335370795E+03  0.87346080629E+03  0.00000000000E+00 0. -1.
          1    1    6    6  503    0 -0.15848203419E+02 -0.89718342976E+02  0.52827207148E+03  0.53607082379E+03  0.00000000000E+00 0. -1.
         -1    1    6    6    0  503 -0.57260465945E+02 -0.78663451097E+02  0.26188762898E+03  0.27937757553E+03  0.00000000000E+00 0.  1.
<mgrwt>
<rscale>  0 0.19555423E+04</rscale>
<asrwt>0</asrwt>
<pdfrwt beam="1">  1        1 0.31511887E+00 0.19555423E+04</pdfrwt>
<pdfrwt beam="2">  1       -2 0.71808078E-01 0.19555423E+04</pdfrwt>
<totfact> 0.39725194E+00</totfact>
</mgrwt>
</event>
<event>
12    5  0.5041746E-008  0.1727710E+04  0.7818608E-02  0.8745716E-01
          1   -1    0    0  501    0  0.00000000000E+00  0.00000000000E+00  0.17816701399E+04  0.17816701399E+04  0.00000000000E+00 0. -1.
         -2   -1    0    0    0  501 -0.00000000000E+00 -0.00000000000E+00 -0.41884620125E+03  0.41884620125E+03  0.00000000000E+00 0.  1.
        -24    2    1    2    0    0 -0.46470914867E+03  0.11734819672E+03 -0.19930614036E+02  0.48638376298E+03  0.80291614687E+02 0.  0.
        254    2    1    2    0    0  0.46470914867E+03 -0.11734819672E+03  0.13827545527E+04  0.17141325782E+04  0.89247697474E+03 0.  0.
         23    2    4    4    0    0  0.18096196039E+03 -0.78585966729E+02 -0.70322005027E+02  0.23005782815E+03  0.95175809044E+02 0.  0.
         23    2    4    4    0    0  0.28374718828E+03 -0.38762229992E+02  0.14530765577E+04  0.14840747500E+04  0.95033697988E+02 0.  0.
          1    1    3    3  502    0 -0.34935738039E+03  0.10007814540E+03 -0.47589080804E+02  0.36651184842E+03  0.00000000000E+00 0. -1.
         -2    1    3    3    0  502 -0.11535176827E+03  0.17270051322E+02  0.27658466769E+02  0.11987191456E+03  0.00000000000E+00 0.  1.
         13    1    5    5    0    0  0.87320339151E+02 -0.86697159596E+02 -0.55171850193E+02  0.13485240882E+03  0.00000000000E+00 0.  1.
        -13    1    5    5    0    0  0.93641621235E+02  0.81111928668E+01 -0.15150154834E+02  0.95205419325E+02  0.00000000000E+00 0. -1.
          4    1    6    6  503    0  0.11601819600E+03  0.28401410340E+02  0.65504870565E+03  0.66584958414E+03  0.00000000000E+00 0. -1.
         -4    1    6    6    0  503  0.16772899228E+03 -0.67163640333E+02  0.79802785205E+03  0.81822516588E+03  0.00000000000E+00 0.  1.
<mgrwt>
<rscale>  0 0.17277104E+04</rscale>
<asrwt>0</asrwt>
<pdfrwt beam="1">  1        1 0.27410309E+00 0.17277104E+04</pdfrwt>
<pdfrwt beam="2">  1       -2 0.64437878E-01 0.17277104E+04</pdfrwt>
<totfact> 0.77725899E+00</totfact>
</mgrwt>
</event>
<event>
12    5  0.5041746E-008  0.1894760E+04  0.7818608E-02  0.8657469E-01
          1   -1    0    0  501    0  0.00000000000E+00  0.00000000000E+00  0.18374909665E+04  0.18374909665E+04  0.00000000000E+00 0. -1.
         -2   -1    0    0    0  501 -0.00000000000E+00 -0.00000000000E+00 -0.48845337451E+03  0.48845337451E+03  0.00000000000E+00 0.  1.
        -24    2    1    2    0    0 -0.11517935992E+03 -0.79040817133E+02  0.14192309061E+04  0.14282955377E+04  0.79360208029E+02 0.  0.
        254    2    1    2    0    0  0.11517935992E+03  0.79040817133E+02 -0.70193314148E+02  0.89764880321E+03  0.88393016513E+03 0.  0.
         23    2    4    4    0    0 -0.34223139799E+01 -0.38670392279E+03  0.29874178579E+02  0.39848517190E+03  0.91358248375E+02 0.  0.
         23    2    4    4    0    0  0.11860167390E+03  0.46574473992E+03 -0.10006749273E+03  0.49916363131E+03  0.90367626458E+02 0.  0.
          3    1    3    3  502    0 -0.50123373556E+02 -0.50994117360E+02  0.10433110306E+04  0.10457584134E+04  0.00000000000E+00 0. -1.
         -4    1    3    3    0  502 -0.65055986360E+02 -0.28046699773E+02  0.37591987546E+03  0.38253712433E+03  0.00000000000E+00 0.  1.
         13    1    5    5    0    0  0.11583458736E+02 -0.57323456811E+02 -0.26106572044E+02  0.64044580731E+02  0.00000000000E+00 0. -1.
        -13    1    5    5    0    0 -0.15005772716E+02 -0.32938046597E+03  0.55980750622E+02  0.33444059117E+03  0.00000000000E+00 0.  1.
          3    1    6    6  503    0  0.37737400877E+02  0.13824473065E+03  0.11737184539E+02  0.14378274749E+03  0.00000000000E+00 0. -1.
         -3    1    6    6    0  503  0.80864273019E+02  0.32750000927E+03 -0.11180467727E+03  0.35538088382E+03  0.00000000000E+00 0.  1.
<mgrwt>
<rscale>  0 0.18947598E+04</rscale>
<asrwt>0</asrwt>
<pdfrwt beam="1">  1        1 0.28269092E+00 0.18947598E+04</pdfrwt>
<pdfrwt beam="2">  1       -2 0.75146674E-01 0.18947598E+04</pdfrwt>
<totfact> 0.50197866E+00</totfact>
</mgrwt>
</event>
<event>
12    5  0.5041746E-008  0.1268202E+04  0.7818608E-02  0.9055168E-01
         -2   -1    0    0    0  501 -0.00000000000E+00  0.00000000000E+00  0.24425721543E+03  0.24425721543E+03  0.00000000000E+00 0.  1.
          1   -1    0    0  501    0  0.00000000000E+00 -0.00000000000E+00 -0.16461500168E+04  0.16461500168E+04  0.00000000000E+00 0. -1.
        -24    2    1    2    0    0  0.13581094571E+03 -0.23109041527E+03 -0.53622527380E+03  0.60514744836E+03  0.82574190840E+02 0.  0.
        254    2    1    2    0    0 -0.13581094571E+03  0.23109041527E+03 -0.86566752755E+03  0.12852597838E+04  0.91140827881E+03 0.  0.
         23    2    4    4    0    0 -0.30056870622E+03  0.38775064361E+03 -0.90866609908E+03  0.10368774255E+04  0.93533988975E+02 0.  0.
         23    2    4    4    0    0  0.16475776050E+03 -0.15666022834E+03  0.42998571531E+02  0.24838235835E+03  0.90318170901E+02 0.  0.
          1    1    3    3  502    0  0.14165942386E+03 -0.23421084694E+03 -0.52608923543E+03  0.59303625254E+03  0.00000000000E+00 0. -1.
         -2    1    3    3    0  502 -0.58484781471E+01  0.31204316660E+01 -0.10136038362E+02  0.12111195816E+02  0.00000000000E+00 0.  1.
         13    1    5    5    0    0 -0.26585826637E+03  0.32419027568E+03 -0.69945009586E+03  0.81548169155E+03  0.00000000000E+00 0. -1.
        -13    1    5    5    0    0 -0.34710439845E+02  0.63560367926E+02 -0.20921600322E+03  0.22139573394E+03  0.00000000000E+00 0.  1.
          2    1    6    6  503    0  0.91460816387E+02 -0.27484820408E+02  0.25401484773E+02  0.98821716822E+02  0.00000000000E+00 0.  1.
         -2    1    6    6    0  503  0.73296944118E+02 -0.12917540793E+03  0.17597086758E+02  0.14956064153E+03  0.00000000000E+00 0. -1.
<mgrwt>
<rscale>  0 0.12682019E+04</rscale>
<asrwt>0</asrwt>
<pdfrwt beam="1">  1        1 0.25325385E+00 0.12682019E+04</pdfrwt>
<pdfrwt beam="2">  1       -2 0.37578033E-01 0.12682019E+04</pdfrwt>
<totfact> 0.29956792E+01</totfact>
</mgrwt>
</event>
<event>
12    5  0.5041746E-008  0.1546031E+04  0.7818608E-02  0.8854407E-01
          1   -1    0    0  501    0  0.00000000000E+00  0.00000000000E+00  0.19808620650E+04  0.19808620650E+04  0.00000000000E+00 0. -1.
         -2   -1    0    0    0  501 -0.00000000000E+00 -0.00000000000E+00 -0.30166318954E+03  0.30166318954E+03  0.00000000000E+00 0.  1.
        -24    2    1    2    0    0 -0.33503217582E+03 -0.16092715001E+03  0.42976962716E+02  0.38302471299E+03  0.81956116257E+02 0.  0.
        254    2    1    2    0    0  0.33503217582E+03  0.16092715001E+03  0.16362219127E+04  0.18995005415E+04  0.89035726152E+03 0.  0.
         23    2    4    4    0    0 -0.28149400553E+03 -0.63864745858E+02  0.54837904912E+03  0.62578314191E+03  0.86990679259E+02 0.  0.
         23    2    4    4    0    0  0.61652618135E+03  0.22479189587E+03  0.10878428636E+04  0.12737173996E+04  0.91203012271E+02 0.  0.
          3    1    3    3  502    0 -0.17186641323E+02 -0.16020227829E+02  0.23396108947E+02  0.33157295630E+02  0.00000000000E+00 0. -1.
         -2    1    3    3    0  502 -0.31784553450E+03 -0.14490692218E+03  0.19580853769E+02  0.34986741736E+03  0.00000000000E+00 0.  1.
         13    1    5    5    0    0 -0.81490599045E+02  0.39369757332E+01  0.92335064266E+02  0.12321518414E+03  0.00000000000E+00 0.  1.
        -13    1    5    5    0    0 -0.20000340649E+03 -0.67801721591E+02  0.45604398485E+03  0.50256795777E+03  0.00000000000E+00 0. -1.
          4    1    6    6  503    0  0.40382290421E+03  0.17553784927E+03  0.78994106219E+03  0.90437456633E+03  0.00000000000E+00 0.  1.
         -4    1    6    6    0  503  0.21270327714E+03  0.49254046594E+02  0.29790180141E+03  0.36934283328E+03  0.00000000000E+00 0. -1.
<mgrwt>
<rscale>  0 0.15460313E+04</rscale>
<asrwt>0</asrwt>
<pdfrwt beam="1">  1        1 0.30474800E+00 0.15460313E+04</pdfrwt>
<pdfrwt beam="2">  1       -2 0.46409723E-01 0.15460313E+04</pdfrwt>
<totfact> 0.11440924E+01</totfact>
</mgrwt>
</event>
<event>
12    5  0.5041746E-008  0.1205503E+04  0.7818608E-02  0.9108054E-01
         -2   -1    0    0    0  501 -0.00000000000E+00  0.00000000000E+00  0.24621255699E+03  0.24621255699E+03  0.00000000000E+00 0.  1.
          1   -1    0    0  501    0  0.00000000000E+00 -0.00000000000E+00 -0.14755913636E+04  0.14755913636E+04  0.00000000000E+00 0. -1.
        -24    2    1    2    0    0 -0.12450371203E+03 -0.20993379276E+03 -0.14741037815E+03  0.29572248822E+03  0.78413001487E+02 0.  0.
        254    2    1    2    0    0  0.12450371203E+03  0.20993379276E+03 -0.10819684284E+04  0.14260814323E+04  0.89637001282E+03 0.  0.
         23    2    4    4    0    0  0.44587897018E+03  0.39020375042E+02 -0.26654582948E+03  0.52843554122E+03  0.88694962063E+02 0.  0.
         23    2    4    4    0    0 -0.32137525815E+03  0.17091341771E+03 -0.81542259895E+03  0.89764589111E+03  0.91436743445E+02 0.  0.
          3    1    3    3  502    0 -0.68349095263E+02 -0.49140618126E+02 -0.65891107063E+02  0.10690199794E+03  0.00000000000E+00 0. -1.
         -4    1    3    3    0  502 -0.56154616770E+02 -0.16079317463E+03 -0.81519271091E+02  0.18882049028E+03  0.00000000000E+00 0.  1.
         13    1    5    5    0    0  0.28522978157E+03  0.64773988607E+02 -0.18862186464E+03  0.34803721887E+03  0.00000000000E+00 0. -1.
        -13    1    5    5    0    0  0.16064918861E+03 -0.25753613565E+02 -0.77923964836E+02  0.18039832235E+03  0.00000000000E+00 0.  1.
          3    1    6    6  503    0 -0.21263124177E+02 -0.55472672586E+01 -0.21495830909E+02  0.30740256510E+02  0.00000000000E+00 0. -1.
         -3    1    6    6    0  503 -0.30011213397E+03  0.17646068497E+03 -0.79392676804E+03  0.86690563460E+03  0.00000000000E+00 0.  1.
<mgrwt>
<rscale>  0 0.12055026E+04</rscale>
<asrwt>0</asrwt>
<pdfrwt beam="1">  1        1 0.22701405E+00 0.12055026E+04</pdfrwt>
<pdfrwt beam="2">  1       -2 0.37878856E-01 0.12055026E+04</pdfrwt>
<totfact> 0.38834411E+01</totfact>
</mgrwt>
</event>
<event>
12    5  0.5041746E-008  0.1696999E+04  0.7818608E-02  0.8763078E-01
         -2   -1    0    0    0  501 -0.00000000000E+00  0.00000000000E+00  0.32815699763E+03  0.32815699763E+03  0.00000000000E+00 0.  1.
          1   -1    0    0  501    0  0.00000000000E+00 -0.00000000000E+00 -0.21939240498E+04  0.21939240498E+04  0.00000000000E+00 0. -1.
        -24    2    1    2    0    0 -0.19723586817E+03  0.50748085885E+03 -0.27948618338E+03  0.61710864771E+03  0.79194359574E+02 0.  0.
        254    2    1    2    0    0  0.19723586817E+03 -0.50748085885E+03 -0.15862808688E+04  0.19049723998E+04  0.90343457940E+03 0.  0.
         23    2    4    4    0    0  0.39518909735E+03  0.42266698016E+02 -0.36447069980E+03  0.54678056895E+03  0.90383644220E+02 0.  0.
         23    2    4    4    0    0 -0.19795322918E+03 -0.54974755686E+03 -0.12218101690E+04  0.13581918308E+04  0.10225997717E+03 0.  0.
          1    1    3    3  502    0 -0.52562535813E+02  0.17367786659E+03 -0.54967517440E+02  0.18960023599E+03  0.00000000000E+00 0. -1.
         -2    1    3    3    0  502 -0.14467333236E+03  0.33380299226E+03 -0.22451866594E+03  0.42750841172E+03  0.00000000000E+00 0.  1.
         13    1    5    5    0    0  0.55536651526E+02  0.11417603379E+02 -0.10095328935E+03  0.11578535296E+03  0.00000000000E+00 0.  1.
        -13    1    5    5    0    0  0.33965244582E+03  0.30849094638E+02 -0.26351741045E+03  0.43099521598E+03  0.00000000000E+00 0. -1.
          2    1    6    6  503    0 -0.26987950951E+02 -0.12183990796E+03 -0.35854089614E+03  0.37963783646E+03  0.00000000000E+00 0. -1.
         -2    1    6    6    0  503 -0.17096527823E+03 -0.42790764891E+03 -0.86326927289E+03  0.97855399435E+03  0.00000000000E+00 0.  1.
<mgrwt>
<rscale>  0 0.16969992E+04</rscale>
<asrwt>0</asrwt>
<pdfrwt beam="1">  1        1 0.33752676E+00 0.16969992E+04</pdfrwt>
<pdfrwt beam="2">  1       -2 0.50485695E-01 0.16969992E+04</pdfrwt>
<totfact> 0.68247820E+00</totfact>
</mgrwt>
</event>
<event>
12    5  0.5041746E-008  0.2073536E+04  0.7818608E-02  0.8572991E-01
          1   -1    0    0  501    0  0.00000000000E+00  0.00000000000E+00  0.99732039298E+03  0.99732039298E+03  0.00000000000E+00 0. -1.
         -2   -1    0    0    0  501 -0.00000000000E+00 -0.00000000000E+00 -0.10777763504E+04  0.10777763504E+04  0.00000000000E+00 0.  1.
        -24    2    1    2    0    0  0.79684812448E+03 -0.16382204822E+03  0.17405316218E+03  0.83568287560E+03  0.79162922765E+02 0.  0.
        254    2    1    2    0    0 -0.79684812448E+03  0.16382204822E+03 -0.25450911964E+03  0.12394138678E+04  0.89975954944E+03 0.  0.
         23    2    4    4    0    0 -0.59083510811E+02  0.31278553910E+03 -0.34284249081E+03  0.47552913039E+03  0.85213412232E+02 0.  0.
         23    2    4    4    0    0 -0.73776461367E+03 -0.14896349089E+03  0.88333371173E+02  0.76388473743E+03  0.96074766826E+02 0.  0.
          3    1    3    3  502    0  0.45500855747E+03 -0.11893213594E+03  0.69491098999E+02  0.47540157044E+03  0.00000000000E+00 0. -1.
         -4    1    3    3    0  502  0.34183956700E+03 -0.44889912280E+02  0.10456206318E+03  0.36028130516E+03  0.00000000000E+00 0.  1.
         13    1    5    5    0    0  0.41641788433E+01  0.25280962437E+02 -0.68490937560E+02  0.73126438277E+02  0.00000000000E+00 0. -1.
        -13    1    5    5    0    0 -0.63247689655E+02  0.28750457667E+03 -0.27435155325E+03  0.40240269212E+03  0.00000000000E+00 0.  1.
          1    1    6    6  503    0 -0.46989413245E+03 -0.70059965402E+02  0.15718342905E+02  0.47534825209E+03  0.00000000000E+00 0.  1.
         -1    1    6    6    0  503 -0.26787048121E+03 -0.78903525483E+02  0.72615028269E+02  0.28853648534E+03  0.00000000000E+00 0. -1.
<mgrwt>
<rscale>  0 0.20735364E+04</rscale>
<asrwt>0</asrwt>
<pdfrwt beam="1">  1        1 0.15343391E+00 0.20735364E+04</pdfrwt>
<pdfrwt beam="2">  1       -2 0.16581175E+00 0.20735364E+04</pdfrwt>
<totfact> 0.28060170E+00</totfact>
</mgrwt>
</event>
<event>
12    5  0.5041746E-008  0.1724356E+04  0.7818608E-02  0.8747594E-01
          1   -1    0    0  501    0  0.00000000000E+00  0.00000000000E+00  0.16607682589E+04  0.16607682589E+04  0.00000000000E+00 0. -1.
         -2   -1    0    0    0  501 -0.00000000000E+00 -0.00000000000E+00 -0.44759473110E+03  0.44759473110E+03  0.00000000000E+00 0.  1.
        -24    2    1    2    0    0 -0.27545797711E+03  0.10063051194E+03 -0.23037536461E+03  0.38141146422E+03  0.79989370087E+02 0.  0.
        254    2    1    2    0    0  0.27545797711E+03 -0.10063051194E+03  0.14435488925E+04  0.17269515258E+04  0.90140144805E+03 0.  0.
         23    2    4    4    0    0  0.25716447898E+01  0.29494223000E+03  0.10647280935E+04  0.11085573611E+04  0.90862409501E+02 0.  0.
         23    2    4    4    0    0  0.27288633232E+03 -0.39557274194E+03  0.37882079901E+03  0.61839416473E+03  0.89226681436E+02 0.  0.
          3    1    3    3  502    0 -0.19816788978E+02 -0.13302382409E+02 -0.22236127066E+02  0.32620604686E+02  0.00000000000E+00 0. -1.
         -4    1    3    3    0  502 -0.25564118814E+03  0.11393289435E+03 -0.20813923754E+03  0.34879085953E+03  0.00000000000E+00 0.  1.
         13    1    5    5    0    0  0.31475748894E+02  0.14880996645E+03  0.41567558703E+03  0.44263000637E+03  0.00000000000E+00 0. -1.
        -13    1    5    5    0    0 -0.28904104104E+02  0.14613226355E+03  0.64905250642E+03  0.66592735473E+03  0.00000000000E+00 0.  1.
          1    1    6    6  503    0 -0.36657112466E+01 -0.27048782137E+02  0.13864920449E+02  0.30615520134E+02  0.00000000000E+00 0. -1.
         -1    1    6    6    0  503  0.27655204357E+03 -0.36852395980E+03  0.36495587856E+03  0.58777864460E+03  0.00000000000E+00 0.  1.
<mgrwt>
<rscale>  0 0.17243563E+04</rscale>
<asrwt>0</asrwt>
<pdfrwt beam="1">  1        1 0.25550281E+00 0.17243563E+04</pdfrwt>
<pdfrwt beam="2">  1       -2 0.68860729E-01 0.17243563E+04</pdfrwt>
<totfact> 0.81415934E+00</totfact>
</mgrwt>
</event>
<event>
12    5  0.5041746E-008  0.1517504E+04  0.7818608E-02  0.8872896E-01
         -2   -1    0    0    0  501 -0.00000000000E+00  0.00000000000E+00  0.45663335461E+03  0.45663335461E+03  0.00000000000E+00 0.  1.
          1   -1    0    0  501    0  0.00000000000E+00 -0.00000000000E+00 -0.12607586509E+04  0.12607586509E+04  0.00000000000E+00 0. -1.
        -24    2    1    2    0    0 -0.21776522401E+03 -0.13712634344E+03  0.20178514230E+03  0.33620158184E+03  0.78031616207E+02 0.  0.
        254    2    1    2    0    0  0.21776522401E+03  0.13712634344E+03 -0.10059104386E+04  0.13811904236E+04  0.91082701380E+03 0.  0.
         23    2    4    4    0    0  0.35047266763E+02  0.46278379029E+03 -0.83684711609E+03  0.96140473561E+03  0.92675900118E+02 0.  0.
         23    2    4    4    0    0  0.18271795725E+03 -0.32565744685E+03 -0.16906332246E+03  0.41978568802E+03  0.90548286976E+02 0.  0.
          1    1    3    3  502    0  0.21923727105E+01  0.58431166729E+01  0.74801405988E+01  0.97417151433E+01  0.00000000000E+00 0. -1.
         -2    1    3    3    0  502 -0.21995759672E+03 -0.14296946011E+03  0.19430500170E+03  0.32645986670E+03  0.00000000000E+00 0.  1.
         13    1    5    5    0    0  0.29393878282E+02  0.36756265104E+03 -0.57864479839E+03  0.68614583379E+03  0.00000000000E+00 0. -1.
        -13    1    5    5    0    0  0.56533884811E+01  0.95221139255E+02 -0.25820231771E+03  0.27525890182E+03  0.00000000000E+00 0.  1.
          1    1    6    6  503    0  0.10441178995E+03 -0.24499684464E+03 -0.15032740551E+03  0.30581629226E+03  0.00000000000E+00 0. -1.
         -1    1    6    6    0  503  0.78306167299E+02 -0.80660602209E+02 -0.18735916954E+02  0.11396939576E+03  0.00000000000E+00 0.  1.
<mgrwt>
<rscale>  0 0.15175038E+04</rscale>
<asrwt>0</asrwt>
<pdfrwt beam="1">  1        1 0.19396287E+00 0.15175038E+04</pdfrwt>
<pdfrwt beam="2">  1       -2 0.70251286E-01 0.15175038E+04</pdfrwt>
<totfact> 0.15084797E+01</totfact>
</mgrwt>
</event>
<event>
12    5  0.5041746E-008  0.2714281E+04  0.7818608E-02  0.8330386E-01
         -2   -1    0    0    0  501 -0.00000000000E+00  0.00000000000E+00  0.13783045862E+04  0.13783045862E+04  0.00000000000E+00 0.  1.
          1   -1    0    0  501    0  0.00000000000E+00 -0.00000000000E+00 -0.13363011832E+04  0.13363011832E+04  0.00000000000E+00 0. -1.
        -24    2    1    2    0    0 -0.78452125487E+03  0.15229169246E+03  0.92007500956E+03  0.12209019144E+04  0.73464974702E+02 0.  0.
        254    2    1    2    0    0  0.78452125487E+03 -0.15229169246E+03 -0.87807160652E+03  0.14937038549E+04  0.90635263615E+03 0.  0.
         23    2    4    4    0    0  0.90082577786E+03  0.85311879978E+02 -0.54706819680E+03  0.10612289536E+04  0.90322096101E+02 0.  0.
         23    2    4    4    0    0 -0.11630452299E+03 -0.23760357244E+03 -0.33100340973E+03  0.43247490133E+03  0.86539489979E+02 0.  0.
          1    1    3    3  502    0 -0.40953457407E+03  0.98511888163E+02  0.53230184506E+03  0.67879924405E+03  0.00000000000E+00 0. -1.
         -2    1    3    3    0  502 -0.37498668080E+03  0.53779804299E+02  0.38777316450E+03  0.54210267038E+03  0.00000000000E+00 0.  1.
         13    1    5    5    0    0  0.14766350949E+03  0.19021171008E+02 -0.13056460846E+03  0.19802382171E+03  0.00000000000E+00 0.  1.
        -13    1    5    5    0    0  0.75316226837E+03  0.66290708971E+02 -0.41650358834E+03  0.86320513187E+03  0.00000000000E+00 0. -1.
          2    1    6    6  503    0 -0.26115410440E+02 -0.72157919402E+02 -0.16242735369E+03  0.17964249280E+03  0.00000000000E+00 0. -1.
         -2    1    6    6    0  503 -0.90189112554E+02 -0.16544565304E+03 -0.16857605604E+03  0.25283240853E+03  0.00000000000E+00 0.  1.
<mgrwt>
<rscale>  0 0.27142808E+04</rscale>
<asrwt>0</asrwt>
<pdfrwt beam="1">  1        1 0.20558480E+00 0.27142808E+04</pdfrwt>
<pdfrwt beam="2">  1       -2 0.21204686E+00 0.27142808E+04</pdfrwt>
<totfact> 0.72477982E-01</totfact>
</mgrwt>
</event>
<event>
12    5  0.5041746E-008  0.1831632E+04  0.7818608E-02  0.8689656E-01
          3   -1    0    0  501    0  0.00000000000E+00  0.00000000000E+00  0.81041956700E+03  0.81041956700E+03  0.00000000000E+00 0. -1.
         -4   -1    0    0    0  501 -0.00000000000E+00 -0.00000000000E+00 -0.10349199066E+04  0.10349199066E+04  0.00000000000E+00 0.  1.
        -24    2    1    2    0    0  0.68558243864E+03 -0.12993045332E+03  0.25356990688E+02  0.70263090548E+03  0.78370973518E+02 0.  0.
        254    2    1    2    0    0 -0.68558243864E+03  0.12993045332E+03 -0.24985733033E+03  0.11427085682E+04  0.86974075640E+03 0.  0.
         23    2    4    4    0    0  0.22452973253E+02  0.18687423324E+03  0.20628289104E+03  0.29358462677E+03  0.90626634510E+02 0.  0.
         23    2    4    4    0    0 -0.70803541189E+03 -0.56943779926E+02 -0.45614022137E+03  0.84912394138E+03  0.91601461312E+02 0.  0.
          1    1    3    3  502    0  0.43401346497E+03 -0.10093567418E+03 -0.16795112210E+02  0.44591229394E+03  0.00000000000E+00 0. -1.
         -2    1    3    3    0  502  0.25156897367E+03 -0.28994779142E+02  0.42152102898E+02  0.25671861154E+03  0.00000000000E+00 0.  1.
         13    1    5    5    0    0  0.17524583365E+02  0.99376493007E+01  0.62104500537E+02  0.65290404216E+02  0.00000000000E+00 0. -1.
        -13    1    5    5    0    0  0.49283898879E+01  0.17693658394E+03  0.14417839050E+03  0.22829422256E+03  0.00000000000E+00 0.  1.
          2    1    6    6  503    0 -0.18787643040E+03  0.22015125362E+02 -0.13993096985E+03  0.23529321105E+03  0.00000000000E+00 0. -1.
         -2    1    6    6    0  503 -0.52015898150E+03 -0.78958905288E+02 -0.31620925152E+03  0.61383073033E+03  0.00000000000E+00 0.  1.
<mgrwt>
<rscale>  0 0.18316324E+04</rscale>
<asrwt>0</asrwt>
<pdfrwt beam="1">  1        3 0.12467993E+00 0.18316324E+04</pdfrwt>
<pdfrwt beam="2">  1       -4 0.15921845E+00 0.18316324E+04</pdfrwt>
<totfact> 0.28176089E-01</totfact>
</mgrwt>
</event>
<event>
12    5  0.5041746E-008  0.1593881E+04  0.7818608E-02  0.8824316E-01
         -4   -1    0    0    0  501 -0.00000000000E+00  0.00000000000E+00  0.11230902513E+04  0.11230902513E+04  0.00000000000E+00 0.  1.
          3   -1    0    0  501    0  0.00000000000E+00 -0.00000000000E+00 -0.56550566031E+03  0.56550566031E+03  0.00000000000E+00 0. -1.
        -24    2    1    2    0    0 -0.13821480013E+03  0.35469140636E+03 -0.21407376955E+03  0.44436029391E+03  0.81970526846E+02 0.  0.
        254    2    1    2    0    0  0.13821480013E+03 -0.35469140636E+03  0.77165836052E+03  0.12442356177E+04  0.89875264798E+03 0.  0.
         23    2    4    4    0    0  0.45491263112E+03  0.24906737047E+02  0.28460592083E+03  0.54444392294E+03  0.88616068248E+02 0.  0.
         23    2    4    4    0    0 -0.31669783099E+03 -0.37959814341E+03  0.48705243969E+03  0.69979169475E+03  0.89978166255E+02 0.  0.
          3    1    3    3  502    0 -0.13746554380E+03  0.27127986572E+03 -0.18528068173E+03  0.35611581304E+03  0.00000000000E+00 0. -1.
         -4    1    3    3    0  502 -0.74925633202E+00  0.83411540641E+02 -0.28793087824E+02  0.88244480868E+02  0.00000000000E+00 0.  1.
         13    1    5    5    0    0 -0.28904835517E+01 -0.40232237615E+01  0.76545139038E+00  0.50126979192E+01  0.00000000000E+00 0. -1.
        -13    1    5    5    0    0  0.45780311467E+03  0.28929960809E+02  0.28384046944E+03  0.53943122502E+03  0.00000000000E+00 0.  1.
          4    1    6    6  503    0 -0.14772738160E+02 -0.64051618484E+02  0.61406921390E+02  0.89953619258E+02  0.00000000000E+00 0. -1.
         -4    1    6    6    0  503 -0.30192509283E+03 -0.31554652493E+03  0.42564551830E+03  0.60983807549E+03  0.00000000000E+00 0.  1.
<mgrwt>
<rscale>  0 0.15938807E+04</rscale>
<asrwt>0</asrwt>
<pdfrwt beam="1">  1        3 0.87000871E-01 0.15938807E+04</pdfrwt>
<pdfrwt beam="2">  1       -4 0.17278312E+00 0.15938807E+04</pdfrwt>
<totfact> 0.53435670E-01</totfact>
</mgrwt>
</event>
<event>
12    5  0.5041746E-008  0.2604424E+04  0.7818608E-02  0.8366700E-01
         -2   -1    0    0    0  501 -0.00000000000E+00  0.00000000000E+00  0.73295023691E+03  0.73295023691E+03  0.00000000000E+00 0.  1.
          1   -1    0    0  501    0  0.00000000000E+00 -0.00000000000E+00 -0.23136026617E+04  0.23136026617E+04  0.00000000000E+00 0. -1.
        -24    2    1    2    0    0  0.49034019258E+03 -0.77684454010E+03 -0.14949966143E+04  0.17563343389E+04  0.75990059943E+02 0.  0.
        254    2    1    2    0    0 -0.49034019258E+03  0.77684454010E+03 -0.85655810483E+02  0.12902185597E+04  0.90189027606E+03 0.  0.
         23    2    4    4    0    0 -0.51607850179E+03  0.39013140847E+03  0.31531394314E+03  0.72519128644E+03  0.89106583934E+02 0.  0.
         23    2    4    4    0    0  0.25738309210E+02  0.38671313163E+03 -0.40096975362E+03  0.56502727329E+03  0.90937173374E+02 0.  0.
          1    1    3    3  502    0  0.25853860228E+03 -0.39427139672E+03 -0.83769604431E+03  0.96126313036E+03  0.00000000000E+00 0. -1.
         -2    1    3    3    0  502  0.23180159029E+03 -0.38257314339E+03 -0.65730056998E+03  0.79507120851E+03  0.00000000000E+00 0.  1.
         13    1    5    5    0    0 -0.41343335799E+03  0.29646904092E+03  0.28438808153E+03  0.58283583851E+03  0.00000000000E+00 0.  1.
        -13    1    5    5    0    0 -0.10264514379E+03  0.93662367550E+02  0.30925861606E+02  0.14235544793E+03  0.00000000000E+00 0. -1.
          1    1    6    6  503    0  0.45653582888E+02  0.92479722961E+02 -0.10796139978E+03  0.14930643868E+03  0.00000000000E+00 0. -1.
         -1    1    6    6    0  503 -0.19915273677E+02  0.29423340867E+03 -0.29300835384E+03  0.41572083461E+03  0.00000000000E+00 0.  1.
<mgrwt>
<rscale>  0 0.26044236E+04</rscale>
<asrwt>0</asrwt>
<pdfrwt beam="1">  1        1 0.35593887E+00 0.26044236E+04</pdfrwt>
<pdfrwt beam="2">  1       -2 0.11276158E+00 0.26044236E+04</pdfrwt>
<totfact> 0.87203202E-01</totfact>
</mgrwt>
</event>
<event>
12    5  0.5041746E-008  0.2095908E+04  0.7818608E-02  0.8563048E-01
          1   -1    0    0  501    0  0.00000000000E+00  0.00000000000E+00  0.12459850630E+04  0.12459850630E+04  0.00000000000E+00 0. -1.
         -2   -1    0    0    0  501 -0.00000000000E+00 -0.00000000000E+00 -0.88139693770E+03  0.88139693770E+03  0.00000000000E+00 0.  1.
        -24    2    1    2    0    0 -0.78640996309E+03  0.19924531560E+03 -0.11130409642E+03  0.82272736574E+03  0.79701885924E+02 0.  0.
        254    2    1    2    0    0  0.78640996309E+03 -0.19924531560E+03  0.47589222172E+03  0.13046546350E+04  0.90416314014E+03 0.  0.
         23    2    4    4    0    0  0.89052668849E+03 -0.34799783211E+03  0.23399363809E+03  0.98884558116E+03  0.94457856462E+02 0.  0.
         23    2    4    4    0    0 -0.10411672540E+03  0.14875251651E+03  0.24189858363E+03  0.31580905380E+03  0.90845088062E+02 0.  0.
          3    1    3    3  502    0 -0.14971772891E+03  0.32352970568E+02 -0.52426805013E+02  0.16189713690E+03  0.00000000000E+00 0. -1.
         -4    1    3    3    0  502 -0.63669223418E+03  0.16689234503E+03 -0.58877291405E+02  0.66083022883E+03  0.00000000000E+00 0.  1.
         13    1    5    5    0    0  0.49625084785E+03 -0.14430098025E+03  0.11660320760E+03  0.52979617300E+03  0.00000000000E+00 0.  1.
        -13    1    5    5    0    0  0.39427584063E+03 -0.20369685186E+03  0.11739043050E+03  0.45904940816E+03  0.00000000000E+00 0. -1.
          2    1    6    6  503    0 -0.15594656656E+02  0.71407595992E+02  0.43088171496E+02  0.84845910947E+02  0.00000000000E+00 0. -1.
         -2    1    6    6    0  503 -0.88522068742E+02  0.77344920518E+02  0.19881041213E+03  0.23096314285E+03  0.00000000000E+00 0.  1.
<mgrwt>
<rscale>  0 0.20959078E+04</rscale>
<asrwt>0</asrwt>
<pdfrwt beam="1">  1        1 0.19169001E+00 0.20959078E+04</pdfrwt>
<pdfrwt beam="2">  1       -2 0.13559953E+00 0.20959078E+04</pdfrwt>
<totfact> 0.31147406E+00</totfact>
</mgrwt>
</event>
<event>
12    5  0.5041746E-008  0.2052721E+04  0.7818608E-02  0.8582361E-01
         -2   -1    0    0    0  501 -0.00000000000E+00  0.00000000000E+00  0.47043665282E+03  0.47043665282E+03  0.00000000000E+00 0.  1.
          1   -1    0    0  501    0  0.00000000000E+00 -0.00000000000E+00 -0.22392301828E+04  0.22392301828E+04  0.00000000000E+00 0. -1.
        -24    2    1    2    0    0 -0.55910528663E+03 -0.50083741813E+03 -0.25424752512E+03  0.79653187550E+03  0.79902338665E+02 0.  0.
        254    2    1    2    0    0  0.55910528663E+03  0.50083741813E+03 -0.15145460048E+04  0.19131349601E+04  0.89599047642E+03 0.  0.
         23    2    4    4    0    0  0.96355145545E+02  0.28338754996E+02 -0.11395259994E+04  0.11479096826E+04  0.95340112659E+02 0.  0.
         23    2    4    4    0    0  0.46275014109E+03  0.47249866313E+03 -0.37502000546E+03  0.76522527748E+03  0.86816133646E+02 0.  0.
          3    1    3    3  502    0 -0.47594708786E+03 -0.46002816472E+03 -0.21555024058E+03  0.69614183109E+03  0.00000000000E+00 0. -1.
         -4    1    3    3    0  502 -0.83158198765E+02 -0.40809253409E+02 -0.38697284539E+02  0.10039004441E+03  0.00000000000E+00 0.  1.
         13    1    5    5    0    0  0.30320439936E+02 -0.20552653461E+01 -0.80513783399E+03  0.80571116718E+03  0.00000000000E+00 0.  1.
        -13    1    5    5    0    0  0.66034705609E+02  0.30394020342E+02 -0.33438816538E+03  0.34219851543E+03  0.00000000000E+00 0. -1.
          3    1    6    6  503    0  0.58053926980E+02  0.23821182046E+02 -0.38101273186E+02  0.73412629501E+02  0.00000000000E+00 0. -1.
         -3    1    6    6    0  503  0.40469621411E+03  0.44867748109E+03 -0.33691873227E+03  0.69181264798E+03  0.00000000000E+00 0.  1.
<mgrwt>
<rscale>  0 0.20527211E+04</rscale>
<asrwt>0</asrwt>
<pdfrwt beam="1">  1        1 0.34449696E+00 0.20527211E+04</pdfrwt>
<pdfrwt beam="2">  1       -2 0.72374867E-01 0.20527211E+04</pdfrwt>
<totfact> 0.28706913E+00</totfact>
</mgrwt>
</event>
<event>
12    5  0.5041746E-008  0.1483611E+04  0.7818608E-02  0.8895425E-01
          1   -1    0    0  501    0  0.00000000000E+00  0.00000000000E+00  0.25638473820E+03  0.25638473820E+03  0.00000000000E+00 0. -1.
         -2   -1    0    0    0  501 -0.00000000000E+00 -0.00000000000E+00 -0.21462880711E+04  0.21462880711E+04  0.00000000000E+00 0.  1.
        -24    2    1    2    0    0  0.25929361114E+02 -0.19467461747E+03  0.81879737961E+02  0.22646108539E+03  0.77522856324E+02 0.  0.
        254    2    1    2    0    0 -0.25929361114E+02  0.19467461747E+03 -0.19717830709E+04  0.21762117239E+04  0.89966574367E+03 0.  0.
         23    2    4    4    0    0 -0.21133788532E+03 -0.60938657668E+02 -0.17787286612E+04  0.17945790069E+04  0.90889714941E+02 0.  0.
         23    2    4    4    0    0  0.18540852420E+03  0.25561327513E+03 -0.19305440968E+03  0.38163271698E+03  0.93054061159E+02 0.  0.
          3    1    3    3  502    0  0.25928374742E+02 -0.19803647773E+03  0.88945163487E+02  0.21863661459E+03  0.00000000000E+00 0. -1.
         -4    1    3    3    0  502  0.98637226225E-03  0.33618602678E+01 -0.70654255265E+01  0.78244708003E+01  0.00000000000E+00 0.  1.
         13    1    5    5    0    0 -0.15099163388E+02 -0.36397126922E+02 -0.35499434129E+03  0.35717463226E+03  0.00000000000E+00 0.  1.
        -13    1    5    5    0    0 -0.19623872193E+03 -0.24541530747E+02 -0.14237343199E+04  0.14374043747E+04  0.00000000000E+00 0. -1.
          1    1    6    6  503    0  0.16287988482E+03  0.19389362749E+03 -0.11092932047E+03  0.27645959886E+03  0.00000000000E+00 0. -1.
         -1    1    6    6    0  503  0.22528639387E+02  0.61719647642E+02 -0.82125089207E+02  0.10517311812E+03  0.00000000000E+00 0.  1.
<mgrwt>
<rscale>  0 0.14836111E+04</rscale>
<asrwt>0</asrwt>
<pdfrwt beam="1">  1        1 0.39443807E-01 0.14836111E+04</pdfrwt>
<pdfrwt beam="2">  1       -2 0.33019816E+00 0.14836111E+04</pdfrwt>
<totfact> 0.18948883E+00</totfact>
</mgrwt>
</event>
<event>
12    5  0.5041746E-008  0.1335297E+04  0.7818608E-02  0.9002033E-01
          1   -1    0    0  501    0  0.00000000000E+00  0.00000000000E+00  0.28497311050E+04  0.28497311050E+04  0.00000000000E+00 0. -1.
         -2   -1    0    0    0  501 -0.00000000000E+00 -0.00000000000E+00 -0.15641982961E+03  0.15641982961E+03  0.00000000000E+00 0.  1.
        -24    2    1    2    0    0  0.15563742865E+03 -0.28456774578E+03  0.10443796766E+04  0.10966114350E+04  0.81399750632E+02 0.  0.
        254    2    1    2    0    0 -0.15563742865E+03  0.28456774578E+03  0.16489315988E+04  0.19095394996E+04  0.90673252496E+03 0.  0.
         23    2    4    4    0    0 -0.67540050945E+02  0.27668052041E+03  0.49237721396E+02  0.30458693484E+03  0.96099317457E+02 0.  0.
         23    2    4    4    0    0 -0.88097377710E+02  0.78872253756E+01  0.15996938774E+04  0.16049525647E+04  0.95020405092E+02 0.  0.
          1    1    3    3  502    0  0.11595411708E+03 -0.26384385136E+03  0.93551138337E+03  0.97889758585E+03  0.00000000000E+00 0. -1.
         -2    1    3    3    0  502  0.39683311578E+02 -0.20723894422E+02  0.10886829324E+03  0.11771384919E+03  0.00000000000E+00 0.  1.
         13    1    5    5    0    0  0.11481251018E+02  0.76562750835E+02 -0.17398149399E+02  0.79349666306E+02  0.00000000000E+00 0. -1.
        -13    1    5    5    0    0 -0.79021301963E+02  0.20011776957E+03  0.66635870794E+02  0.22523726854E+03  0.00000000000E+00 0.  1.
          2    1    6    6  503    0 -0.59748704657E+02  0.30005677402E+02  0.47482472727E+03  0.47950888419E+03  0.00000000000E+00 0. -1.
         -2    1    6    6    0  503 -0.28348673053E+02 -0.22118452026E+02  0.11248691501E+04  0.11254436805E+04  0.00000000000E+00 0.  1.
<mgrwt>
<rscale>  0 0.13352969E+04</rscale>
<asrwt>0</asrwt>
<pdfrwt beam="1">  1        1 0.43842013E+00 0.13352969E+04</pdfrwt>
<pdfrwt beam="2">  1       -2 0.24064591E-01 0.13352969E+04</pdfrwt>
<totfact> 0.10232200E+01</totfact>
</mgrwt>
</event>
<event>
12    5  0.5041746E-008  0.1518882E+04  0.7818608E-02  0.8871993E-01
         -2   -1    0    0    0  501 -0.00000000000E+00  0.00000000000E+00  0.10364960189E+04  0.10364960189E+04  0.00000000000E+00 0.  1.
          1   -1    0    0  501    0  0.00000000000E+00 -0.00000000000E+00 -0.55644257032E+03  0.55644257032E+03  0.00000000000E+00 0. -1.
        -24    2    1    2    0    0  0.21959233340E+02  0.22695809986E+03  0.61915202049E+03  0.66471625511E+03  0.80661566535E+02 0.  0.
        254    2    1    2    0    0 -0.21959233340E+02 -0.22695809986E+03 -0.13909857193E+03  0.92822233408E+03  0.88896349854E+03 0.  0.
         23    2    4    4    0    0  0.10147672651E+03 -0.52483882576E+03  0.48317509251E+02  0.54419247568E+03  0.89763855958E+02 0.  0.
         23    2    4    4    0    0 -0.12343595985E+03  0.29788072590E+03 -0.18741608118E+03  0.38402985840E+03  0.91568453114E+02 0.  0.
          1    1    3    3  502    0 -0.32244291942E+01 -0.22140960466E+00 -0.13132868489E+01  0.34886513424E+01  0.00000000000E+00 0. -1.
         -2    1    3    3    0  502  0.25183662534E+02  0.22717950947E+03  0.62046530733E+03  0.66122760377E+03  0.00000000000E+00 0.  1.
         13    1    5    5    0    0  0.11005621484E+03 -0.51906709801E+03  0.42445520867E+02  0.53230127268E+03  0.00000000000E+00 0.  1.
        -13    1    5    5    0    0 -0.85794883237E+01 -0.57717277549E+01  0.58719883834E+01  0.11891202998E+02  0.00000000000E+00 0. -1.
          2    1    6    6  503    0 -0.10839678807E+02  0.50862627733E+02  0.35414280521E+01  0.52125303349E+02  0.00000000000E+00 0. -1.
         -2    1    6    6    0  503 -0.11259628104E+03  0.24701809817E+03 -0.19095750924E+03  0.33190455505E+03  0.00000000000E+00 0.  1.
<mgrwt>
<rscale>  0 0.15188818E+04</rscale>
<asrwt>0</asrwt>
<pdfrwt beam="1">  1        1 0.85606549E-01 0.15188818E+04</pdfrwt>
<pdfrwt beam="2">  1       -2 0.15946093E+00 0.15188818E+04</pdfrwt>
<totfact> 0.81900952E+00</totfact>
</mgrwt>
</event>
<event>
12    5  0.5041746E-008  0.1765208E+04  0.7818608E-02  0.8725023E-01
         -2   -1    0    0    0  501 -0.00000000000E+00  0.00000000000E+00  0.37526278814E+03  0.37526278814E+03  0.00000000000E+00 0.  1.
          1   -1    0    0  501    0  0.00000000000E+00 -0.00000000000E+00 -0.20758518652E+04  0.20758518652E+04  0.00000000000E+00 0. -1.
        -24    2    1    2    0    0  0.24857953668E+02  0.19748775409E+03  0.22811601962E+03  0.31294988179E+03  0.79255152716E+02 0.  0.
        254    2    1    2    0    0 -0.24857953668E+02 -0.19748775409E+03 -0.19287050967E+04  0.21381647715E+04  0.90123576798E+03 0.  0.
         23    2    4    4    0    0 -0.45367554015E+03 -0.14190340536E+03 -0.10198443687E+04  0.11283923405E+04  0.85021559133E+02 0.  0.
         23    2    4    4    0    0  0.42881758648E+03 -0.55584348733E+02 -0.90886072798E+03  0.10097724311E+04  0.81476360923E+02 0.  0.
          1    1    3    3  502    0  0.71540338395E+01 -0.42215991784E+01  0.24171855877E+02  0.25559356728E+02  0.00000000000E+00 0. -1.
         -2    1    3    3    0  502  0.17703919828E+02  0.20170935327E+03  0.20394416374E+03  0.28739052507E+03  0.00000000000E+00 0.  1.
         13    1    5    5    0    0 -0.28061814939E+03 -0.69664244560E+02 -0.52752949722E+03  0.60157046402E+03  0.00000000000E+00 0.  1.
        -13    1    5    5    0    0 -0.17305739075E+03 -0.72239160800E+02 -0.49231487146E+03  0.52682187645E+03  0.00000000000E+00 0. -1.
          2    1    6    6  503    0  0.18230829898E+03 -0.85813521843E+01 -0.29904217131E+03  0.35033723139E+03  0.00000000000E+00 0. -1.
         -2    1    6    6    0  503  0.24650928750E+03 -0.47002996549E+02 -0.60981855667E+03  0.65943519968E+03  0.00000000000E+00 0.  1.
<mgrwt>
<rscale>  0 0.17652082E+04</rscale>
<asrwt>0</asrwt>
<pdfrwt beam="1">  1        1 0.31936182E+00 0.17652082E+04</pdfrwt>
<pdfrwt beam="2">  1       -2 0.57732737E-01 0.17652082E+04</pdfrwt>
<totfact> 0.61800665E+00</totfact>
</mgrwt>
</event>
<event>
12    5  0.5041746E-008  0.1533113E+04  0.7818608E-02  0.8862727E-01
         -2   -1    0    0    0  501 -0.00000000000E+00  0.00000000000E+00  0.15924286045E+04  0.15924286045E+04  0.00000000000E+00 0.  1.
          1   -1    0    0  501    0  0.00000000000E+00 -0.00000000000E+00 -0.36900176666E+03  0.36900176666E+03  0.00000000000E+00 0. -1.
        -24    2    1    2    0    0 -0.19945214369E+03 -0.26384575434E+03 -0.67664876200E+02  0.34777268469E+03  0.83495898319E+02 0.  0.
        254    2    1    2    0    0  0.19945214369E+03  0.26384575434E+03  0.12910917141E+04  0.16136576865E+04  0.90971290821E+03 0.  0.
         23    2    4    4    0    0  0.10787790831E+03 -0.11338297629E+03 -0.70720177452E+02  0.19463724113E+03  0.91591319047E+02 0.  0.
         23    2    4    4    0    0  0.91574235385E+02  0.37722873063E+03  0.13618118915E+04  0.14190204454E+04  0.91651735926E+02 0.  0.
          3    1    3    3  502    0 -0.17509470549E+03 -0.24628047629E+03 -0.83932756434E+02  0.31361909460E+03  0.00000000000E+00 0. -1.
         -4    1    3    3    0  502 -0.24357438202E+02 -0.17565278048E+02  0.16267880234E+02  0.34153590089E+02  0.00000000000E+00 0.  1.
         13    1    5    5    0    0  0.81933849897E+02 -0.31356202422E+02 -0.78460879942E+01  0.88079102437E+02  0.00000000000E+00 0.  1.
        -13    1    5    5    0    0  0.25944058411E+02 -0.82026773864E+02 -0.62874089458E+02  0.10655813870E+03  0.00000000000E+00 0. -1.
          1    1    6    6  503    0  0.86823457982E+02  0.19092414376E+03  0.80361823797E+03  0.83053754516E+03  0.00000000000E+00 0. -1.
         -1    1    6    6    0  503  0.47507774028E+01  0.18630458687E+03  0.55819365354E+03  0.58848290020E+03  0.00000000000E+00 0.  1.
<mgrwt>
<rscale>  0 0.15331131E+04</rscale>
<asrwt>0</asrwt>
<pdfrwt beam="1">  1        1 0.56769503E-01 0.15331131E+04</pdfrwt>
<pdfrwt beam="2">  1       -2 0.24498901E+00 0.15331131E+04</pdfrwt>
<totfact> 0.38862988E+00</totfact>
</mgrwt>
</event>
<event>
12    5  0.5041746E-008  0.1446198E+04  0.7818608E-02  0.8921041E-01
         -2   -1    0    0    0  501 -0.00000000000E+00  0.00000000000E+00  0.26764831875E+03  0.26764831875E+03  0.00000000000E+00 0.  1.
          1   -1    0    0  501    0  0.00000000000E+00 -0.00000000000E+00 -0.19535785666E+04  0.19535785666E+04  0.00000000000E+00 0. -1.
        -24    2    1    2    0    0  0.27165005476E+03  0.30646347599E+02 -0.49649344963E+01  0.28502447242E+03  0.80506822276E+02 0.  0.
        254    2    1    2    0    0 -0.27165005476E+03 -0.30646347599E+02 -0.16809653134E+04  0.19362024129E+04  0.92114192624E+03 0.  0.
         23    2    4    4    0    0 -0.37151226605E+03 -0.31131845911E+03 -0.45659199707E+03  0.67270208820E+03  0.95453134397E+02 0.  0.
         23    2    4    4    0    0  0.99862211291E+02  0.28067211151E+03 -0.12243733163E+04  0.12635003247E+04  0.92702521903E+02 0.  0.
          3    1    3    3  502    0  0.20999080216E+03  0.37763704478E+02 -0.34764237729E+02  0.21617304780E+03  0.00000000000E+00 0. -1.
         -4    1    3    3    0  502  0.61659252594E+02 -0.71173568795E+01  0.29799303233E+02  0.68851424623E+02  0.00000000000E+00 0.  1.
         13    1    5    5    0    0 -0.35943268113E+03 -0.26613465254E+03 -0.41460907044E+03  0.60985259435E+03  0.00000000000E+00 0.  1.
        -13    1    5    5    0    0 -0.12079584920E+02 -0.45183806569E+02 -0.41982926632E+02  0.62849493844E+02  0.00000000000E+00 0. -1.
          3    1    6    6  503    0 -0.17713334507E+02  0.25650411265E+02 -0.12001500412E+03  0.12399720574E+03  0.00000000000E+00 0. -1.
         -3    1    6    6    0  503  0.11757554580E+03  0.25502170024E+03 -0.11043583122E+04  0.11395031190E+04  0.00000000000E+00 0.  1.
<mgrwt>
<rscale>  0 0.14461978E+04</rscale>
<asrwt>0</asrwt>
<pdfrwt beam="1">  1        1 0.30055054E+00 0.14461978E+04</pdfrwt>
<pdfrwt beam="2">  1       -2 0.41176665E-01 0.14461978E+04</pdfrwt>
<totfact> 0.15276789E+01</totfact>
</mgrwt>
</event>
<event>
12    5  0.5041746E-008  0.2200705E+04  0.7818608E-02  0.8518135E-01
          1   -1    0    0  501    0  0.00000000000E+00  0.00000000000E+00  0.16959404783E+04  0.16959404783E+04  0.00000000000E+00 0. -1.
         -2   -1    0    0    0  501 -0.00000000000E+00 -0.00000000000E+00 -0.71392575733E+03  0.71392575733E+03  0.00000000000E+00 0.  1.
        -24    2    1    2    0    0 -0.23179237158E+03  0.59265568257E+03 -0.29998745687E+03  0.70802475326E+03  0.79612281301E+02 0.  0.
        254    2    1    2    0    0  0.23179237158E+03 -0.59265568257E+03  0.12820021778E+04  0.17018414824E+04  0.92074230136E+03 0.  0.
         23    2    4    4    0    0  0.55038894246E+03 -0.25454561910E+03  0.91682644830E+03  0.11026894121E+04  0.87359848489E+02 0.  0.
         23    2    4    4    0    0 -0.31859657088E+03 -0.33811006347E+03  0.36517572952E+03  0.59915207023E+03  0.99033831741E+02 0.  0.
          3    1    3    3  502    0 -0.48638318910E+02  0.22922228349E+03 -0.10629506320E+03  0.25730756261E+03  0.00000000000E+00 0. -1.
         -2    1    3    3    0  502 -0.18315405267E+03  0.36343339908E+03 -0.19369239367E+03  0.45071719064E+03  0.00000000000E+00 0.  1.
         13    1    5    5    0    0  0.39375382863E+03 -0.22320523444E+03  0.66220517093E+03  0.80210868506E+03  0.00000000000E+00 0. -1.
        -13    1    5    5    0    0  0.15663511383E+03 -0.31340384669E+02  0.25462127736E+03  0.30058072706E+03  0.00000000000E+00 0.  1.
          3    1    6    6  503    0 -0.26010759003E+03 -0.32193281930E+03  0.32684857890E+03  0.52737718197E+03  0.00000000000E+00 0. -1.
         -3    1    6    6    0  503 -0.58488980847E+02 -0.16177244172E+02  0.38327150621E+02  0.71774888256E+02  0.00000000000E+00 0.  1.
<mgrwt>
<rscale>  0 0.22007050E+04</rscale>
<asrwt>0</asrwt>
<pdfrwt beam="1">  1        1 0.26091392E+00 0.22007050E+04</pdfrwt>
<pdfrwt beam="2">  1       -2 0.10983473E+00 0.22007050E+04</pdfrwt>
<totfact> 0.25321452E+00</totfact>
</mgrwt>
</event>
<event>
12    5  0.5041746E-008  0.1194947E+04  0.7818608E-02  0.9117291E-01
         -2   -1    0    0    0  501 -0.00000000000E+00  0.00000000000E+00  0.21563064471E+03  0.21563064471E+03  0.00000000000E+00 0.  1.
          1   -1    0    0  501    0  0.00000000000E+00 -0.00000000000E+00 -0.16554903596E+04  0.16554903596E+04  0.00000000000E+00 0. -1.
        -24    2    1    2    0    0 -0.18035985912E+03  0.16734113439E+03 -0.25049360143E+03  0.35972470811E+03  0.78243767951E+02 0.  0.
        254    2    1    2    0    0  0.18035985912E+03 -0.16734113439E+03 -0.11893661134E+04  0.15113962962E+04  0.89955226547E+03 0.  0.
         23    2    4    4    0    0  0.10847761034E+03 -0.69649259139E+02  0.11627244937E+03  0.19706569940E+03  0.93258759133E+02 0.  0.
         23    2    4    4    0    0  0.71882248778E+02 -0.97691875247E+02 -0.13056385628E+04  0.13143305968E+04  0.89789201984E+02 0.  0.
          3    1    3    3  502    0 -0.92751788875E+02  0.82612842159E+02 -0.18071874623E+03  0.21928757664E+03  0.00000000000E+00 0. -1.
         -4    1    3    3    0  502 -0.87608070247E+02  0.84728292227E+02 -0.69774855201E+02  0.14043713147E+03  0.00000000000E+00 0.  1.
         13    1    5    5    0    0 -0.54797625957E+01 -0.41306482909E+02  0.31489238925E+02  0.52228588881E+02  0.00000000000E+00 0. -1.
        -13    1    5    5    0    0  0.11395737294E+03 -0.28342776230E+02  0.84783210441E+02  0.14483711052E+03  0.00000000000E+00 0.  1.
          3    1    6    6  503    0  0.59943870405E+02 -0.31248016267E+02 -0.36043668906E+03  0.36672102876E+03  0.00000000000E+00 0. -1.
         -3    1    6    6    0  503  0.11938378374E+02 -0.66443858980E+02 -0.94520187376E+03  0.94760956804E+03  0.00000000000E+00 0.  1.
<mgrwt>
<rscale>  0 0.11949468E+04</rscale>
<asrwt>0</asrwt>
<pdfrwt beam="1">  1        1 0.25469084E+00 0.11949468E+04</pdfrwt>
<pdfrwt beam="2">  1       -2 0.33173944E-01 0.11949468E+04</pdfrwt>
<totfact> 0.37699117E+01</totfact>
</mgrwt>
</event>
<event>
12    5  0.5041746E-008  0.1608342E+04  0.7818608E-02  0.8815439E-01
         -2   -1    0    0    0  501 -0.00000000000E+00  0.00000000000E+00  0.51903042373E+03  0.51903042373E+03  0.00000000000E+00 0.  1.
          1   -1    0    0  501    0  0.00000000000E+00 -0.00000000000E+00 -0.12459598720E+04  0.12459598720E+04  0.00000000000E+00 0. -1.
        -24    2    1    2    0    0 -0.30642768197E+03 -0.37956749926E+02 -0.76543606118E+03  0.82918849737E+03  0.79514534928E+02 0.  0.
        254    2    1    2    0    0  0.30642768197E+03  0.37956749926E+02  0.38506612920E+02  0.93580179836E+03  0.88255515829E+03 0.  0.
         23    2    4    4    0    0  0.32812801467E+03  0.28304132626E+03 -0.27963186204E+03  0.52336906598E+03  0.89111248282E+02 0.  0.
         23    2    4    4    0    0 -0.21700332693E+02 -0.24508457634E+03  0.31813847496E+03  0.41243273238E+03  0.91385532183E+02 0.  0.
          1    1    3    3  502    0 -0.25786316080E+03 -0.43393242814E+02 -0.70194841885E+03  0.74907140243E+03  0.00000000000E+00 0. -1.
         -2    1    3    3    0  502 -0.48564521174E+02  0.54364928876E+01 -0.63487642336E+02  0.80117094937E+02  0.00000000000E+00 0.  1.
         13    1    5    5    0    0  0.28908840021E+03  0.27754852119E+03 -0.23831560879E+03  0.46626131530E+03  0.00000000000E+00 0.  1.
        -13    1    5    5    0    0  0.39039614461E+02  0.54928050699E+01 -0.41316253255E+02  0.57107750681E+02  0.00000000000E+00 0. -1.
          2    1    6    6  503    0  0.29992005565E+01 -0.69160959200E+00  0.44930063811E+02  0.45035365679E+02  0.00000000000E+00 0. -1.
         -2    1    6    6    0  503 -0.24699533250E+02 -0.24439296674E+03  0.27320841115E+03  0.36739736670E+03  0.00000000000E+00 0.  1.
<mgrwt>
<rscale>  0 0.16083421E+04</rscale>
<asrwt>0</asrwt>
<pdfrwt beam="1">  1        1 0.19168613E+00 0.16083421E+04</pdfrwt>
<pdfrwt beam="2">  1       -2 0.79850835E-01 0.16083421E+04</pdfrwt>
<totfact> 0.11550531E+01</totfact>
</mgrwt>
</event>
<event>
12    5  0.5041746E-008  0.1809271E+04  0.7818608E-02  0.8701385E-01
         -2   -1    0    0    0  501 -0.00000000000E+00  0.00000000000E+00  0.84931007646E+03  0.84931007646E+03  0.00000000000E+00 0.  1.
          1   -1    0    0  501    0  0.00000000000E+00 -0.00000000000E+00 -0.96356531308E+03  0.96356531308E+03  0.00000000000E+00 0. -1.
        -24    2    1    2    0    0 -0.29219451607E+03  0.48955807475E+03  0.35546529469E+03  0.67668617440E+03  0.80646507137E+02 0.  0.
        254    2    1    2    0    0  0.29219451607E+03 -0.48955807475E+03 -0.46972053131E+03  0.11361892151E+04  0.86327504962E+03 0.  0.
         23    2    4    4    0    0 -0.12263527707E+03 -0.50081918909E+03 -0.48105174553E+03  0.71141561278E+03  0.94032552271E+02 0.  0.
         23    2    4    4    0    0  0.41482979314E+03  0.11261114338E+02  0.11331214219E+02  0.42477360236E+03  0.89964697955E+02 0.  0.
          1    1    3    3  502    0 -0.44461457765E+02  0.10622351444E+03  0.10614734898E+03  0.15661263021E+03  0.00000000000E+00 0. -1.
         -2    1    3    3    0  502 -0.24773305830E+03  0.38333456031E+03  0.24931794571E+03  0.52007354419E+03  0.00000000000E+00 0.  1.
         13    1    5    5    0    0  0.19876176182E+01 -0.17452084037E+03 -0.14902232041E+03  0.22949755190E+03  0.00000000000E+00 0. -1.
        -13    1    5    5    0    0 -0.12462289469E+03 -0.32629834872E+03 -0.33202942512E+03  0.48191806088E+03  0.00000000000E+00 0.  1.
          3    1    6    6  503    0  0.80912280235E+02  0.38459464728E+02  0.36683076022E+01  0.89662612056E+02  0.00000000000E+00 0. -1.
         -3    1    6    6    0  503  0.33391751290E+03 -0.27198350390E+02  0.76629066164E+01  0.33511099031E+03  0.00000000000E+00 0.  1.
<mgrwt>
<rscale>  0 0.18092714E+04</rscale>
<asrwt>0</asrwt>
<pdfrwt beam="1">  1        1 0.14824082E+00 0.18092714E+04</pdfrwt>
<pdfrwt beam="2">  1       -2 0.13066309E+00 0.18092714E+04</pdfrwt>
<totfact> 0.57277622E+00</totfact>
</mgrwt>
</event>
<event>
12    5  0.5041746E-008  0.1275565E+04  0.7818608E-02  0.9049170E-01
         -2   -1    0    0    0  501 -0.00000000000E+00  0.00000000000E+00  0.11313442421E+03  0.11313442421E+03  0.00000000000E+00 0.  1.
          1   -1    0    0  501    0  0.00000000000E+00 -0.00000000000E+00 -0.35954279619E+04  0.35954279619E+04  0.00000000000E+00 0. -1.
        -24    2    1    2    0    0 -0.32504408796E+03 -0.28107775519E+02 -0.88134601700E+03  0.94313297874E+03  0.79279932739E+02 0.  0.
        254    2    1    2    0    0  0.32504408796E+03  0.28107775519E+02 -0.26009475207E+04  0.27654294073E+04  0.88103807842E+03 0.  0.
         23    2    4    4    0    0  0.31852679535E+03  0.62886107081E+01 -0.25666736354E+03  0.41919026363E+03  0.91342627681E+02 0.  0.
         23    2    4    4    0    0  0.65172926127E+01  0.21819164811E+02 -0.23442801571E+04  0.23462391437E+04  0.93113443755E+02 0.  0.
          1    1    3    3  502    0 -0.26566598461E+03 -0.22487838478E+02 -0.79230972813E+03  0.83596580286E+03  0.00000000000E+00 0. -1.
         -2    1    3    3    0  502 -0.59378103354E+02 -0.56199370416E+01 -0.89036288871E+02  0.10716717588E+03  0.00000000000E+00 0.  1.
         13    1    5    5    0    0  0.11047960894E+03 -0.23350804118E+02 -0.46923141669E+02  0.12228158189E+03  0.00000000000E+00 0. -1.
        -13    1    5    5    0    0  0.20804718641E+03  0.29639414826E+02 -0.20974422187E+03  0.29690868174E+03  0.00000000000E+00 0.  1.
          1    1    6    6  503    0 -0.73683588153E+01 -0.22169402413E+02 -0.17552807105E+04  0.17554361702E+04  0.00000000000E+00 0. -1.
         -1    1    6    6    0  503  0.13885651428E+02  0.43988567224E+02 -0.58899944661E+03  0.59080297348E+03  0.00000000000E+00 0.  1.
<mgrwt>
<rscale>  0 0.12755652E+04</rscale>
<asrwt>0</asrwt>
<pdfrwt beam="1">  1        1 0.55314268E+00 0.12755652E+04</pdfrwt>
<pdfrwt beam="2">  1       -2 0.17405299E-01 0.12755652E+04</pdfrwt>
<totfact> 0.50404413E+00</totfact>
</mgrwt>
</event>
<event>
12    5  0.5041746E-008  0.1424915E+04  0.7818608E-02  0.8935979E-01
          1   -1    0    0  501    0  0.00000000000E+00  0.00000000000E+00  0.14396742783E+04  0.14396742783E+04  0.00000000000E+00 0. -1.
         -2   -1    0    0    0  501 -0.00000000000E+00 -0.00000000000E+00 -0.35257662268E+03  0.35257662268E+03  0.00000000000E+00 0.  1.
        -24    2    1    2    0    0  0.37401710982E+02 -0.81458146222E+02  0.84160691694E+03  0.85006442030E+03  0.79202262821E+02 0.  0.
        254    2    1    2    0    0 -0.37401710982E+02  0.81458146222E+02  0.24549073864E+03  0.94218648066E+03  0.90521563398E+03 0.  0.
         23    2    4    4    0    0  0.43004216842E+02  0.27674529598E+03  0.51170532497E+03  0.59039682234E+03  0.91042554393E+02 0.  0.
         23    2    4    4    0    0 -0.80405927825E+02 -0.19528714976E+03 -0.26621458633E+03  0.35178965832E+03  0.91014139755E+02 0.  0.
          3    1    3    3  502    0  0.28457869816E+02 -0.81054826510E+02  0.83371674215E+03  0.83813086174E+03  0.00000000000E+00 0. -1.
         -4    1    3    3    0  502  0.89438411667E+01 -0.40331971183E+00  0.78901747930E+01  0.11933558558E+02  0.00000000000E+00 0.  1.
         13    1    5    5    0    0  0.58999131489E+02  0.22941486615E+03  0.46569241614E+03  0.52247631982E+03  0.00000000000E+00 0. -1.
        -13    1    5    5    0    0 -0.15994914647E+02  0.47330429835E+02  0.46012908830E+02  0.67920502515E+02  0.00000000000E+00 0.  1.
          1    1    6    6  503    0 -0.83946761182E+02 -0.10356965888E+03 -0.19203498020E+03  0.23377588964E+03  0.00000000000E+00 0. -1.
         -1    1    6    6    0  503  0.35408333572E+01 -0.91717490876E+02 -0.74179606127E+02  0.11801376868E+03  0.00000000000E+00 0.  1.
<mgrwt>
<rscale>  0 0.14249147E+04</rscale>
<asrwt>0</asrwt>
<pdfrwt beam="1">  1        1 0.22148835E+00 0.14249147E+04</pdfrwt>
<pdfrwt beam="2">  1       -2 0.54242558E-01 0.14249147E+04</pdfrwt>
<totfact> 0.19687923E+01</totfact>
</mgrwt>
</event>
<event>
12    5  0.5041746E-008  0.1981724E+04  0.7818608E-02  0.8615213E-01
          1   -1    0    0  501    0  0.00000000000E+00  0.00000000000E+00  0.46195052061E+03  0.46195052061E+03  0.00000000000E+00 0. -1.
         -2   -1    0    0    0  501 -0.00000000000E+00 -0.00000000000E+00 -0.21253516942E+04  0.21253516942E+04  0.00000000000E+00 0.  1.
        -24    2    1    2    0    0 -0.43196016187E+03 -0.47260172910E+02 -0.14947485260E+04  0.15586760121E+04  0.79841401364E+02 0.  0.
        254    2    1    2    0    0  0.43196016187E+03  0.47260172910E+02 -0.16865264757E+03  0.10286262027E+04  0.91695422127E+03 0.  0.
         23    2    4    4    0    0  0.35118867888E+02  0.38965639540E+03  0.12606915314E+03  0.42101551660E+03  0.91077947322E+02 0.  0.
         23    2    4    4    0    0  0.39684129398E+03 -0.34239622249E+03 -0.29472180070E+03  0.60761068607E+03  0.87244600058E+02 0.  0.
          3    1    3    3  502    0 -0.98739459816E+02  0.21846175280E+02 -0.37004238397E+03  0.38361191618E+03  0.00000000000E+00 0. -1.
         -4    1    3    3    0  502 -0.33322070205E+03 -0.69106348190E+02 -0.11247061420E+04  0.11750640959E+04  0.00000000000E+00 0.  1.
         13    1    5    5    0    0  0.55263342114E+01  0.85548791623E+02 -0.10445940553E+02  0.86361182206E+02  0.00000000000E+00 0. -1.
        -13    1    5    5    0    0  0.29592533677E+02  0.30410760377E+03  0.13651509369E+03  0.33465433439E+03  0.00000000000E+00 0.  1.
          1    1    6    6  503    0  0.26381859202E+03 -0.22504499145E+03 -0.14647066360E+03  0.37642947941E+03  0.00000000000E+00 0. -1.
         -1    1    6    6    0  503  0.13302270196E+03 -0.11735123104E+03 -0.14825113710E+03  0.23118120666E+03  0.00000000000E+00 0.  1.
<mgrwt>
<rscale>  0 0.19817238E+04</rscale>
<asrwt>0</asrwt>
<pdfrwt beam="1">  1        1 0.71069312E-01 0.19817238E+04</pdfrwt>
<pdfrwt beam="2">  1       -2 0.32697718E+00 0.19817238E+04</pdfrwt>
<totfact> 0.87253763E-01</totfact>
</mgrwt>
</event>
<event>
12    5  0.5041746E-008  0.1341403E+04  0.7818608E-02  0.8997362E-01
         -2   -1    0    0    0  501 -0.00000000000E+00  0.00000000000E+00  0.91521410059E+03  0.91521410059E+03  0.00000000000E+00 0.  1.
          1   -1    0    0  501    0  0.00000000000E+00 -0.00000000000E+00 -0.49151359127E+03  0.49151359127E+03  0.00000000000E+00 0. -1.
        -24    2    1    2    0    0  0.72361789965E+02  0.31063267533E+03  0.17598629086E+03  0.37327977394E+03  0.81472249481E+02 0.  0.
        254    2    1    2    0    0 -0.72361789965E+02 -0.31063267533E+03  0.24771421846E+03  0.10334479179E+04  0.95127460673E+03 0.  0.
         23    2    4    4    0    0  0.99784643730E+02 -0.25569146198E+03 -0.31930193257E+03  0.43099244368E+03  0.92009040413E+02 0.  0.
         23    2    4    4    0    0 -0.17214643369E+03 -0.54941213353E+02  0.56701615103E+03  0.60245547424E+03  0.93767538925E+02 0.  0.
          1    1    3    3  502    0 -0.51831424324E+01  0.87831974324E+02  0.19299884261E+02  0.90076668519E+02  0.00000000000E+00 0. -1.
         -2    1    3    3    0  502  0.77544932397E+02  0.22280070101E+03  0.15668640660E+03  0.28320310542E+03  0.00000000000E+00 0.  1.
         13    1    5    5    0    0  0.42795408931E+02 -0.10680241511E+03 -0.68785158187E+02  0.13405073996E+03  0.00000000000E+00 0.  1.
        -13    1    5    5    0    0  0.56989234798E+02 -0.14888904687E+03 -0.25051677438E+03  0.29694170372E+03  0.00000000000E+00 0. -1.
          2    1    6    6  503    0 -0.16019303831E+03 -0.35213447712E+02  0.37818162708E+03  0.41221734496E+03  0.00000000000E+00 0.  1.
         -2    1    6    6    0  503 -0.11953395387E+02 -0.19727765641E+02  0.18883452395E+03  0.19023812928E+03  0.00000000000E+00 0. -1.
<mgrwt>
<rscale>  0 0.13414025E+04</rscale>
<asrwt>0</asrwt>
<pdfrwt beam="1">  1        1 0.75617476E-01 0.13414025E+04</pdfrwt>
<pdfrwt beam="2">  1       -2 0.14080217E+00 0.13414025E+04</pdfrwt>
<totfact> 0.13744220E+01</totfact>
</mgrwt>
</event>
<event>
12    5  0.5041746E-008  0.1861155E+04  0.7818608E-02  0.8674437E-01
         -2   -1    0    0    0  501 -0.00000000000E+00  0.00000000000E+00  0.71443802110E+03  0.71443802110E+03  0.00000000000E+00 0.  1.
          1   -1    0    0  501    0  0.00000000000E+00 -0.00000000000E+00 -0.12121054612E+04  0.12121054612E+04  0.00000000000E+00 0. -1.
        -24    2    1    2    0    0 -0.59146733613E+03 -0.24549910773E+03 -0.45274741711E+03  0.78821275825E+03  0.78712813268E+02 0.  0.
        254    2    1    2    0    0  0.59146733613E+03  0.24549910773E+03 -0.44920023024E+02  0.11383307241E+04  0.94004021581E+03 0.  0.
         23    2    4    4    0    0  0.56663169883E+03 -0.15742426643E+03  0.23310100132E+03  0.63970788117E+03  0.95059006075E+02 0.  0.
         23    2    4    4    0    0  0.24835637298E+02  0.40292337416E+03 -0.27802102434E+03  0.49862284292E+03  0.91460347625E+02 0.  0.
          1    1    3    3  502    0 -0.25575276723E+03 -0.97034493126E+02 -0.24023464779E+03  0.36405749106E+03  0.00000000000E+00 0. -1.
         -2    1    3    3    0  502 -0.33571456890E+03 -0.14846461460E+03 -0.21251276932E+03  0.42415526719E+03  0.00000000000E+00 0.  1.
         13    1    5    5    0    0  0.12550498941E+02 -0.20810395356E+02  0.16185200154E+02  0.29198429454E+02  0.00000000000E+00 0.  1.
        -13    1    5    5    0    0  0.55408119989E+03 -0.13661387107E+03  0.21691580116E+03  0.61050945171E+03  0.00000000000E+00 0. -1.
          2    1    6    6  503    0  0.71495310052E+01  0.31284676725E+03 -0.25579904591E+03  0.40417492187E+03  0.00000000000E+00 0. -1.
         -2    1    6    6    0  503  0.17686106293E+02  0.90076606903E+02 -0.22221978428E+02  0.94447921058E+02  0.00000000000E+00 0.  1.
<mgrwt>
<rscale>  0 0.18611547E+04</rscale>
<asrwt>0</asrwt>
<pdfrwt beam="1">  1        1 0.18647776E+00 0.18611547E+04</pdfrwt>
<pdfrwt beam="2">  1       -2 0.10991354E+00 0.18611547E+04</pdfrwt>
<totfact> 0.56752231E+00</totfact>
</mgrwt>
</event>
<event>
12    5  0.5041746E-008  0.1638547E+04  0.7818608E-02  0.8797211E-01
         -2   -1    0    0    0  501 -0.00000000000E+00  0.00000000000E+00  0.56325794244E+03  0.56325794244E+03  0.00000000000E+00 0.  1.
          1   -1    0    0  501    0  0.00000000000E+00 -0.00000000000E+00 -0.11916542108E+04  0.11916542108E+04  0.00000000000E+00 0. -1.
        -24    2    1    2    0    0 -0.60765681551E+01 -0.86829037865E+02 -0.80802264516E+03  0.81681675995E+03  0.81931787167E+02 0.  0.
        254    2    1    2    0    0  0.60765681551E+01  0.86829037865E+02  0.17962637684E+03  0.93809539326E+03  0.91661394551E+03 0.  0.
         23    2    4    4    0    0  0.27253674534E+03 -0.28395377862E+03 -0.68973193418E+02  0.41006470066E+03  0.92139738218E+02 0.  0.
         23    2    4    4    0    0 -0.26646017719E+03  0.37078281649E+03  0.24859957025E+03  0.52803069260E+03  0.92378260282E+02 0.  0.
          1    1    3    3  502    0 -0.92276456982E+01 -0.10025302313E+03 -0.76604665075E+03  0.77263399435E+03  0.00000000000E+00 0. -1.
         -4    1    3    3    0  502  0.31510775431E+01  0.13423985261E+02 -0.41975994411E+02  0.44182765608E+02  0.00000000000E+00 0.  1.
         13    1    5    5    0    0  0.12630021828E+01 -0.38060565318E+02 -0.57214375498E+01  0.38508916558E+02  0.00000000000E+00 0.  1.
        -13    1    5    5    0    0  0.27127374316E+03 -0.24589321330E+03 -0.63251755868E+02  0.37155578410E+03  0.00000000000E+00 0. -1.
          4    1    6    6  503    0 -0.10830574875E+03  0.11290457993E+03  0.42968245980E+02  0.16224626204E+03  0.00000000000E+00 0. -1.
         -4    1    6    6    0  503 -0.15815442843E+03  0.25787823656E+03  0.20563132427E+03  0.36578443057E+03  0.00000000000E+00 0.  1.
<mgrwt>
<rscale>  0 0.16385465E+04</rscale>
<asrwt>0</asrwt>
<pdfrwt beam="1">  1        1 0.18333142E+00 0.16385465E+04</pdfrwt>
<pdfrwt beam="2">  1       -2 0.86655069E-01 0.16385465E+04</pdfrwt>
<totfact> 0.10482432E+01</totfact>
</mgrwt>
</event>
<event>
12    5  0.5041746E-008  0.2868345E+04  0.7818608E-02  0.8282358E-01
          1   -1    0    0  501    0  0.00000000000E+00  0.00000000000E+00  0.18079108932E+04  0.18079108932E+04  0.00000000000E+00 0. -1.
         -2   -1    0    0    0  501 -0.00000000000E+00 -0.00000000000E+00 -0.11376948720E+04  0.11376948720E+04  0.00000000000E+00 0.  1.
        -24    2    1    2    0    0  0.58229392836E+02  0.10115451820E+04 -0.51868506457E+03  0.11411220250E+04  0.80690534751E+02 0.  0.
        254    2    1    2    0    0 -0.58229392836E+02 -0.10115451820E+04  0.11889010858E+04  0.18044837401E+04  0.90336120091E+03 0.  0.
         23    2    4    4    0    0 -0.15338399204E+03 -0.94900565818E+03  0.47565625539E+03  0.10764520824E+04  0.91443009756E+02 0.  0.
         23    2    4    4    0    0  0.95154599205E+02 -0.62539523784E+02  0.71324483038E+03  0.72803165778E+03  0.91358179055E+02 0.  0.
          1    1    3    3  502    0 -0.14075091883E+02  0.49535640520E+02 -0.31450929463E+02  0.60341104210E+02  0.00000000000E+00 0. -1.
         -2    1    3    3    0  502  0.72304484718E+02  0.96200954145E+03 -0.48723413510E+03  0.10807809208E+04  0.00000000000E+00 0.  1.
         13    1    5    5    0    0 -0.82880558582E+02 -0.50084935994E+03  0.20022291222E+03  0.54571831829E+03  0.00000000000E+00 0. -1.
        -13    1    5    5    0    0 -0.70503433459E+02 -0.44815629825E+03  0.27543334317E+03  0.53073376406E+03  0.00000000000E+00 0.  1.
          2    1    6    6  503    0  0.30473562815E+02 -0.73214692127E+02  0.34501175961E+03  0.35400867707E+03  0.00000000000E+00 0. -1.
         -2    1    6    6    0  503  0.64681036390E+02  0.10675168343E+02  0.36823307077E+03  0.37402298070E+03  0.00000000000E+00 0.  1.
<mgrwt>
<rscale>  0 0.28683451E+04</rscale>
<asrwt>0</asrwt>
<pdfrwt beam="1">  1        1 0.27814014E+00 0.28683451E+04</pdfrwt>
<pdfrwt beam="2">  1       -2 0.17502998E+00 0.28683451E+04</pdfrwt>
<totfact> 0.59771715E-01</totfact>
</mgrwt>
</event>
<event>
12    5  0.5041746E-008  0.1661125E+04  0.7818608E-02  0.8783852E-01
          1   -1    0    0  501    0  0.00000000000E+00  0.00000000000E+00  0.82694697211E+03  0.82694697211E+03  0.00000000000E+00 0. -1.
         -2   -1    0    0    0  501 -0.00000000000E+00 -0.00000000000E+00 -0.83419366409E+03  0.83419366409E+03  0.00000000000E+00 0.  1.
        -24    2    1    2    0    0 -0.16747415404E+03  0.23496824738E+03 -0.50918467309E+03  0.59062577770E+03  0.79448778606E+02 0.  0.
        254    2    1    2    0    0  0.16747415404E+03 -0.23496824738E+03  0.50193798112E+03  0.10705148585E+04  0.90044580949E+03 0.  0.
         23    2    4    4    0    0  0.11202333869E+03  0.64659126574E+02 -0.22540509113E+03  0.27668903353E+03  0.94970180104E+02 0.  0.
         23    2    4    4    0    0  0.55450815349E+02 -0.29962737396E+03  0.72734307225E+03  0.79382582497E+03  0.90995271802E+02 0.  0.
          3    1    3    3  502    0 -0.29822817663E+02  0.79290042398E+01 -0.82446218823E+02  0.88032088240E+02  0.00000000000E+00 0. -1.
         -4    1    3    3    0  502 -0.13765133638E+03  0.22703924314E+03 -0.42673845427E+03  0.50259368946E+03  0.00000000000E+00 0.  1.
         13    1    5    5    0    0  0.78401332993E+02 -0.95578100729E+01 -0.11221890884E+03  0.13722683502E+03  0.00000000000E+00 0.  1.
        -13    1    5    5    0    0  0.33622005698E+02  0.74216936647E+02 -0.11318618229E+03  0.13946219851E+03  0.00000000000E+00 0. -1.
          4    1    6    6  503    0  0.30901915090E+02 -0.17047983427E+03  0.29689719784E+03  0.34375317938E+03  0.00000000000E+00 0. -1.
         -4    1    6    6    0  503  0.24548900259E+02 -0.12914753969E+03  0.43044587441E+03  0.45007264559E+03  0.00000000000E+00 0.  1.
<mgrwt>
<rscale>  0 0.16611248E+04</rscale>
<asrwt>0</asrwt>
<pdfrwt beam="1">  1        1 0.12722261E+00 0.16611248E+04</pdfrwt>
<pdfrwt beam="2">  1       -2 0.12833749E+00 0.16611248E+04</pdfrwt>
<totfact> 0.78618932E+00</totfact>
</mgrwt>
</event>
<event>
12    5  0.5041746E-008  0.2645947E+04  0.7818608E-02  0.8352759E-01
         -2   -1    0    0    0  501 -0.00000000000E+00  0.00000000000E+00  0.62764411522E+03  0.62764411522E+03  0.00000000000E+00 0.  1.
          1   -1    0    0  501    0  0.00000000000E+00 -0.00000000000E+00 -0.27886166178E+04  0.27886166178E+04  0.00000000000E+00 0. -1.
        -24    2    1    2    0    0 -0.87010101108E+03 -0.55064592604E+03 -0.23416268167E+03  0.10592142750E+04  0.82559151844E+02 0.  0.
        254    2    1    2    0    0  0.87010101108E+03  0.55064592604E+03 -0.19268098209E+04  0.23570464580E+04  0.88475149842E+03 0.  0.
         23    2    4    4    0    0  0.86931321036E+03  0.15302001762E+03 -0.95771618456E+03  0.13056267568E+04  0.91215976778E+02 0.  0.
         23    2    4    4    0    0  0.78780071213E+00  0.39762590842E+03 -0.96909363634E+03  0.10514197012E+04  0.90740996255E+02 0.  0.
          1    1    3    3  502    0 -0.21431044645E+03 -0.13202503390E+03 -0.21332553697E+02  0.25261562676E+03  0.00000000000E+00 0. -1.
         -2    1    3    3    0  502 -0.65579056462E+03 -0.41862089214E+03 -0.21283012798E+03  0.80659864825E+03  0.00000000000E+00 0.  1.
         13    1    5    5    0    0  0.82329511870E+03  0.16421200021E+03 -0.91602995592E+03  0.12425342304E+04  0.00000000000E+00 0. -1.
        -13    1    5    5    0    0  0.46018091666E+02 -0.11191982589E+02 -0.41686228643E+02  0.63092526446E+02  0.00000000000E+00 0.  1.
          3    1    6    6  503    0  0.77101878925E-01  0.25478166191E+03 -0.50173291889E+03  0.56271629005E+03  0.00000000000E+00 0. -1.
         -3    1    6    6    0  503  0.71069883321E+00  0.14284424651E+03 -0.46736071745E+03  0.48870341114E+03  0.00000000000E+00 0.  1.
<mgrwt>
<rscale>  0 0.26459469E+04</rscale>
<asrwt>0</asrwt>
<pdfrwt beam="1">  1        1 0.42901795E+00 0.26459469E+04</pdfrwt>
<pdfrwt beam="2">  1       -2 0.96560631E-01 0.26459469E+04</pdfrwt>
<totfact> 0.58747700E-01</totfact>
</mgrwt>
</event>
<event>
12    5  0.5041746E-008  0.1298986E+04  0.7818608E-02  0.9030370E-01
         -2   -1    0    0    0  501 -0.00000000000E+00  0.00000000000E+00  0.75135068069E+03  0.75135068069E+03  0.00000000000E+00 0.  1.
          1   -1    0    0  501    0  0.00000000000E+00 -0.00000000000E+00 -0.56144343686E+03  0.56144343686E+03  0.00000000000E+00 0. -1.
        -24    2    1    2    0    0  0.22709970086E+03  0.35310438944E+02 -0.19300279625E+03  0.31039679281E+03  0.79214824362E+02 0.  0.
        254    2    1    2    0    0 -0.22709970086E+03 -0.35310438944E+02  0.38291004008E+03  0.10023973247E+04  0.89741807237E+03 0.  0.
         23    2    4    4    0    0  0.11918605088E+03  0.34462376735E+03  0.42420551865E+02  0.37865590664E+03  0.92789744383E+02 0.  0.
         23    2    4    4    0    0 -0.34628575174E+03 -0.37993420630E+03  0.34048948821E+03  0.62374141810E+03  0.94108671707E+02 0.  0.
          1    1    3    3  502    0  0.13486805375E+03 -0.72707612673E+01 -0.14460370325E+03  0.19786987362E+03  0.00000000000E+00 0. -1.
         -2    1    3    3    0  502  0.92231647115E+02  0.42581200212E+02 -0.48399092997E+02  0.11252691920E+03  0.00000000000E+00 0.  1.
         13    1    5    5    0    0  0.55504758446E+02  0.10012376731E+03  0.52179828454E+02  0.12581049832E+03  0.00000000000E+00 0.  1.
        -13    1    5    5    0    0  0.63681292434E+02  0.24450000005E+03 -0.97592765889E+01  0.25284540832E+03  0.00000000000E+00 0. -1.
          1    1    6    6  503    0 -0.31432440998E+03 -0.32917620227E+03  0.33154066318E+03  0.56309503478E+03  0.00000000000E+00 0.  1.
         -1    1    6    6    0  503 -0.31961341766E+02 -0.50758004026E+02  0.89488250324E+01  0.60646383319E+02  0.00000000000E+00 0. -1.
<mgrwt>
<rscale>  0 0.12989856E+04</rscale>
<asrwt>0</asrwt>
<pdfrwt beam="1">  1        1 0.86375913E-01 0.12989856E+04</pdfrwt>
<pdfrwt beam="2">  1       -2 0.11559241E+00 0.12989856E+04</pdfrwt>
<totfact> 0.18854710E+01</totfact>
</mgrwt>
</event>
<event>
12    5  0.5041746E-008  0.1732572E+04  0.7818608E-02  0.8743002E-01
          1   -1    0    0  501    0  0.00000000000E+00  0.00000000000E+00  0.13926163288E+04  0.13926163288E+04  0.00000000000E+00 0. -1.
         -2   -1    0    0    0  501 -0.00000000000E+00 -0.00000000000E+00 -0.53887902360E+03  0.53887902360E+03  0.00000000000E+00 0.  1.
        -24    2    1    2    0    0 -0.32389443490E+03  0.66251126546E+02  0.91045139024E+03  0.97199190508E+03  0.80930295997E+02 0.  0.
        254    2    1    2    0    0  0.32389443490E+03 -0.66251126546E+02 -0.56714085039E+02  0.95950344732E+03  0.89896249157E+03 0.  0.
         23    2    4    4    0    0 -0.17329758878E+02 -0.33927080209E+03 -0.28946067844E+03  0.45615305141E+03  0.94250327605E+02 0.  0.
         23    2    4    4    0    0  0.34122419378E+03  0.27301967555E+03  0.23274659340E+03  0.50335039590E+03  0.90647397423E+02 0.  0.
          3    1    3    3  502    0 -0.32225451985E+03  0.73486062724E+02  0.90247976130E+03  0.96110243811E+03  0.00000000000E+00 0. -1.
         -4    1    3    3    0  502 -0.16399150525E+01 -0.72349361778E+01  0.79716289395E+01  0.10889466967E+02  0.00000000000E+00 0.  1.
         13    1    5    5    0    0 -0.19185615913E+02 -0.20907798501E+03 -0.11795655237E+03  0.24082242404E+03  0.00000000000E+00 0.  1.
        -13    1    5    5    0    0  0.18558570348E+01 -0.13019281709E+03 -0.17150412607E+03  0.21533062738E+03  0.00000000000E+00 0. -1.
          3    1    6    6  503    0  0.17115130686E+03  0.11958389909E+03  0.15991086278E+03  0.26299156412E+03  0.00000000000E+00 0. -1.
         -3    1    6    6    0  503  0.17007288692E+03  0.15343577646E+03  0.72835730619E+02  0.24035883179E+03  0.00000000000E+00 0.  1.
<mgrwt>
<rscale>  0 0.17325723E+04</rscale>
<asrwt>0</asrwt>
<pdfrwt beam="1">  1        1 0.21424866E+00 0.17325723E+04</pdfrwt>
<pdfrwt beam="2">  1       -2 0.82904466E-01 0.17325723E+04</pdfrwt>
<totfact> 0.82563672E+00</totfact>
</mgrwt>
</event>
<event>
12    5  0.5041746E-008  0.1018778E+04  0.7818608E-02  0.9288186E-01
          1   -1    0    0  501    0  0.00000000000E+00  0.00000000000E+00  0.24965178258E+04  0.24965178258E+04  0.00000000000E+00 0. -1.
         -2   -1    0    0    0  501 -0.00000000000E+00 -0.00000000000E+00 -0.10393565553E+03  0.10393565553E+03  0.00000000000E+00 0.  1.
        -24    2    1    2    0    0 -0.81468817992E+02 -0.66931217129E+01  0.29375978286E+03  0.31544598244E+03  0.80804651038E+02 0.  0.
        254    2    1    2    0    0  0.81468817992E+02  0.66931217129E+01  0.20988223874E+04  0.22850074989E+04  0.89973434407E+03 0.  0.
         23    2    4    4    0    0 -0.16494398844E+03  0.26217548440E+03  0.17484516632E+04  0.17780639618E+04  0.92118020939E+02 0.  0.
         23    2    4    4    0    0  0.24641280643E+03 -0.25548236268E+03  0.35037072421E+03  0.50694353708E+03  0.90783239576E+02 0.  0.
          3    1    3    3  502    0 -0.41032816267E+02 -0.14504210341E+02  0.25567307776E+03  0.25935070237E+03  0.00000000000E+00 0. -1.
         -4    1    3    3    0  502 -0.40436001725E+02  0.78110886277E+01  0.38086705102E+02  0.56095280074E+02  0.00000000000E+00 0.  1.
         13    1    5    5    0    0 -0.12409852993E+03  0.22239180325E+03  0.12043157987E+04  0.12309488626E+04  0.00000000000E+00 0.  1.
        -13    1    5    5    0    0 -0.40845458507E+02  0.39783681146E+02  0.54413586454E+03  0.54711509926E+03  0.00000000000E+00 0. -1.
          3    1    6    6  503    0  0.13672914269E+03 -0.18925719802E+03  0.26395350549E+03  0.35239835204E+03  0.00000000000E+00 0. -1.
         -3    1    6    6    0  503  0.10968366374E+03 -0.66225164667E+02  0.86417218716E+02  0.15454518503E+03  0.00000000000E+00 0.  1.
<mgrwt>
<rscale>  0 0.10187781E+04</rscale>
<asrwt>0</asrwt>
<pdfrwt beam="1">  1        1 0.38407962E+00 0.10187781E+04</pdfrwt>
<pdfrwt beam="2">  1       -2 0.15990103E-01 0.10187781E+04</pdfrwt>
<totfact> 0.38172505E+01</totfact>
</mgrwt>
</event>
<event>
12    5  0.5041746E-008  0.1626642E+04  0.7818608E-02  0.8804346E-01
          1   -1    0    0  501    0  0.00000000000E+00  0.00000000000E+00  0.26037016591E+04  0.26037016591E+04  0.00000000000E+00 0. -1.
         -2   -1    0    0    0  501 -0.00000000000E+00 -0.00000000000E+00 -0.25405796609E+03  0.25405796609E+03  0.00000000000E+00 0.  1.
        -24    2    1    2    0    0 -0.16221990076E+03  0.48076801466E+03  0.12405306400E+04  0.13426063879E+04  0.78882597394E+02 0.  0.
        254    2    1    2    0    0  0.16221990076E+03 -0.48076801466E+03  0.11091130531E+04  0.15151532372E+04  0.89894626520E+03 0.  0.
         23    2    4    4    0    0  0.11765986408E+03 -0.69081052807E+03  0.10644489884E+04  0.12775683944E+04  0.89812717832E+02 0.  0.
         23    2    4    4    0    0  0.44560036686E+02  0.21004251341E+03  0.44664064670E+02  0.23758484280E+03  0.91368619049E+02 0.  0.
          3    1    3    3  502    0 -0.94547853565E+02  0.32746499285E+03  0.91613882194E+03  0.97748808649E+03  0.00000000000E+00 0. -1.
         -4    1    3    3    0  502 -0.67672047199E+02  0.15330302181E+03  0.32439181801E+03  0.36511830146E+03  0.00000000000E+00 0.  1.
         13    1    5    5    0    0  0.92052878489E+02 -0.53581427774E+03  0.75312099016E+03  0.92884977176E+03  0.00000000000E+00 0. -1.
        -13    1    5    5    0    0  0.25606985591E+02 -0.15499625033E+03  0.31132799822E+03  0.34871862268E+03  0.00000000000E+00 0.  1.
          1    1    6    6  503    0  0.46458714555E+02  0.17895261097E+03  0.69736502880E+02  0.19759966843E+03  0.00000000000E+00 0. -1.
         -1    1    6    6    0  503 -0.18986778695E+01  0.31089902438E+02 -0.25072438210E+02  0.39985174366E+02  0.00000000000E+00 0.  1.
<mgrwt>
<rscale>  0 0.16266421E+04</rscale>
<asrwt>0</asrwt>
<pdfrwt beam="1">  1        1 0.40056947E+00 0.16266421E+04</pdfrwt>
<pdfrwt beam="2">  1       -2 0.39085843E-01 0.16266421E+04</pdfrwt>
<totfact> 0.59814599E+00</totfact>
</mgrwt>
</event>
<event>
12    5  0.5041746E-008  0.2926187E+04  0.7818608E-02  0.8265128E-01
          1   -1    0    0  501    0  0.00000000000E+00  0.00000000000E+00  0.93453903645E+03  0.93453903645E+03  0.00000000000E+00 0. -1.
         -2   -1    0    0    0  501 -0.00000000000E+00 -0.00000000000E+00 -0.22905872111E+04  0.22905872111E+04  0.00000000000E+00 0.  1.
        -24    2    1    2    0    0 -0.36445895293E+01  0.23676832179E+03  0.82047674225E+03  0.85774054851E+03  0.80400514564E+02 0.  0.
        254    2    1    2    0    0  0.36445895293E+01 -0.23676832179E+03 -0.21765249169E+04  0.23673856991E+04  0.90065632342E+03 0.  0.
         23    2    4    4    0    0  0.30436423553E+03 -0.31712873890E+03 -0.55565943641E+03  0.71443407923E+03  0.91926162733E+02 0.  0.
         23    2    4    4    0    0 -0.30071964600E+03  0.80360417107E+02 -0.16208654805E+04  0.16529516198E+04  0.90299775485E+02 0.  0.
          3    1    3    3  502    0 -0.25721848548E+02  0.16420523003E+03  0.65417267973E+03  0.67495693638E+03  0.00000000000E+00 0. -1.
         -4    1    3    3    0  502  0.22077259019E+02  0.72563091755E+02  0.16630406252E+03  0.18278361213E+03  0.00000000000E+00 0.  1.
         13    1    5    5    0    0  0.30297987653E+03 -0.32073156343E+03 -0.55679326692E+03  0.71041134806E+03  0.00000000000E+00 0. -1.
        -13    1    5    5    0    0  0.13843589982E+01  0.36028245377E+01  0.11338305072E+01  0.40227311748E+01  0.00000000000E+00 0.  1.
          1    1    6    6  503    0 -0.30124248360E+03  0.84666244107E+02 -0.16174235341E+04  0.16474144274E+04  0.00000000000E+00 0. -1.
         -1    1    6    6    0  503  0.52283759420E+00 -0.43058270001E+01 -0.34419464037E+01  0.55371924611E+01  0.00000000000E+00 0.  1.
<mgrwt>
<rscale>  0 0.29261874E+04</rscale>
<asrwt>0</asrwt>
<pdfrwt beam="1">  1        1 0.14377524E+00 0.29261874E+04</pdfrwt>
<pdfrwt beam="2">  1       -2 0.35239803E+00 0.29261874E+04</pdfrwt>
<totfact> 0.19251536E-01</totfact>
</mgrwt>
</event>
<event>
12    5  0.5041746E-008  0.1922256E+04  0.7818608E-02  0.8643857E-01
         -2   -1    0    0    0  501 -0.00000000000E+00  0.00000000000E+00  0.99483402472E+03  0.99483402472E+03  0.00000000000E+00 0.  1.
          1   -1    0    0  501    0  0.00000000000E+00 -0.00000000000E+00 -0.92856384047E+03  0.92856384047E+03  0.00000000000E+00 0. -1.
        -24    2    1    2    0    0  0.50239151821E+03  0.37919868704E+03  0.42745276955E+03  0.76513513986E+03  0.80790037890E+02 0.  0.
        254    2    1    2    0    0 -0.50239151821E+03 -0.37919868704E+03 -0.36118258531E+03  0.11582627253E+04  0.90273517662E+03 0.  0.
         23    2    4    4    0    0 -0.15213760482E+02  0.31613379162E+02 -0.49174916437E+03  0.50114852017E+03  0.90009634813E+02 0.  0.
         23    2    4    4    0    0 -0.48717775773E+03 -0.41081206621E+03  0.13056657906E+03  0.65711420515E+03  0.92966260963E+02 0.  0.
          3    1    3    3  502    0  0.30478308213E+03  0.21235308204E+03  0.29625987617E+03  0.47513837230E+03  0.00000000000E+00 0. -1.
         -4    1    3    3    0  502  0.19760843609E+03  0.16684560500E+03  0.13119289338E+03  0.28999676756E+03  0.00000000000E+00 0.  1.
         13    1    5    5    0    0 -0.17765270353E+01  0.15637366527E+01  0.38165301373E+01  0.44907931276E+01  0.00000000000E+00 0. -1.
        -13    1    5    5    0    0 -0.13437233446E+02  0.30049642510E+02 -0.49556569451E+03  0.49665772704E+03  0.00000000000E+00 0.  1.
          3    1    6    6  503    0 -0.35063260996E+01 -0.21924446553E+02  0.12102226585E+02  0.25287142339E+02  0.00000000000E+00 0. -1.
         -3    1    6    6    0  503 -0.48367143163E+03 -0.38888761965E+03  0.11846435248E+03  0.63182706281E+03  0.00000000000E+00 0.  1.
<mgrwt>
<rscale>  0 0.19222559E+04</rscale>
<asrwt>0</asrwt>
<pdfrwt beam="1">  1        1 0.14285597E+00 0.19222559E+04</pdfrwt>
<pdfrwt beam="2">  1       -2 0.15305139E+00 0.19222559E+04</pdfrwt>
<totfact> 0.40077637E+00</totfact>
</mgrwt>
</event>
<event>
12    5  0.5041746E-008  0.3182186E+04  0.7818608E-02  0.8193538E-01
         -2   -1    0    0    0  501 -0.00000000000E+00  0.00000000000E+00  0.84435355542E+03  0.84435355542E+03  0.00000000000E+00 0.  1.
          1   -1    0    0  501    0  0.00000000000E+00 -0.00000000000E+00 -0.29982418291E+04  0.29982418291E+04  0.00000000000E+00 0. -1.
        -24    2    1    2    0    0  0.15185168612E+03  0.13450726530E+04 -0.31339681511E+03  0.13919755356E+04  0.84255276257E+02 0.  0.
        254    2    1    2    0    0 -0.15185168612E+03 -0.13450726530E+04 -0.18404914585E+04  0.24506198489E+04  0.88648150472E+03 0.  0.
         23    2    4    4    0    0 -0.87990890684E+02 -0.11173809650E+04 -0.80074669728E+03  0.13803840131E+04  0.89342781489E+02 0.  0.
         23    2    4    4    0    0 -0.63860795441E+02 -0.22769168799E+03 -0.10397447613E+04  0.10702358358E+04  0.91727147416E+02 0.  0.
          3    1    3    3  502    0  0.19167522570E+02  0.87685728501E+02 -0.17849858103E+01  0.89773977736E+02  0.00000000000E+00 0. -1.
         -2    1    3    3    0  502  0.13268416355E+03  0.12573869245E+04 -0.31161182930E+03  0.13022015579E+04  0.00000000000E+00 0.  1.
         13    1    5    5    0    0 -0.10264379359E+03 -0.10117388554E+04 -0.70889943758E+03  0.12396328781E+04  0.00000000000E+00 0.  1.
        -13    1    5    5    0    0  0.14652902907E+02 -0.10564210961E+03 -0.91847259692E+02  0.14075113498E+03  0.00000000000E+00 0. -1.
          1    1    6    6  503    0 -0.87701076366E+02 -0.17213886740E+03 -0.79213074189E+03  0.81534923849E+03  0.00000000000E+00 0. -1.
         -1    1    6    6    0  503  0.23840280925E+02 -0.55552820592E+02 -0.24761401938E+03  0.25488659727E+03  0.00000000000E+00 0.  1.
<mgrwt>
<rscale>  0 0.31821855E+04</rscale>
<asrwt>0</asrwt>
<pdfrwt beam="1">  1        1 0.46126798E+00 0.31821855E+04</pdfrwt>
<pdfrwt beam="2">  1       -2 0.12990055E+00 0.31821855E+04</pdfrwt>
<totfact> 0.19228098E-01</totfact>
</mgrwt>
</event>
<event>
12    5  0.5041746E-008  0.1530417E+04  0.7818608E-02  0.8864474E-01
          1   -1    0    0  501    0  0.00000000000E+00  0.00000000000E+00  0.82725268487E+03  0.82725268487E+03  0.00000000000E+00 0. -1.
         -2   -1    0    0    0  501 -0.00000000000E+00 -0.00000000000E+00 -0.70781779438E+03  0.70781779438E+03  0.00000000000E+00 0.  1.
        -24    2    1    2    0    0  0.23014333338E+02  0.17509917489E+03 -0.42638254582E+03  0.46844291168E+03  0.80295115290E+02 0.  0.
        254    2    1    2    0    0 -0.23014333338E+02 -0.17509917489E+03  0.54581743631E+03  0.10666275676E+04  0.89921538774E+03 0.  0.
         23    2    4    4    0    0 -0.36908674653E+03  0.11459904221E+03  0.71030534623E+02  0.40532372249E+03  0.99418389780E+02 0.  0.
         23    2    4    4    0    0  0.34607241319E+03 -0.28969821710E+03  0.47478690168E+03  0.66130384509E+03  0.90603539428E+02 0.  0.
          1    1    3    3  502    0 -0.19812449947E+02  0.50985923257E+02 -0.71308259786E+02  0.89871939208E+02  0.00000000000E+00 0. -1.
         -2    1    3    3    0  502  0.42826783286E+02  0.12411325163E+03 -0.35507428603E+03  0.37857097247E+03  0.00000000000E+00 0.  1.
         13    1    5    5    0    0 -0.89753581277E+02  0.69798647399E+02  0.40851674130E+02  0.12081562734E+03  0.00000000000E+00 0. -1.
        -13    1    5    5    0    0 -0.27933316525E+03  0.44800394810E+02  0.30178860493E+02  0.28450809515E+03  0.00000000000E+00 0.  1.
          1    1    6    6  503    0  0.86634551297E+02 -0.26470938956E+02  0.86888332510E+02  0.12552226262E+03  0.00000000000E+00 0. -1.
         -1    1    6    6    0  503  0.25943786189E+03 -0.26322727814E+03  0.38789856917E+03  0.53578158246E+03  0.00000000000E+00 0.  1.
<mgrwt>
<rscale>  0 0.15304172E+04</rscale>
<asrwt>0</asrwt>
<pdfrwt beam="1">  1        1 0.12726964E+00 0.15304172E+04</pdfrwt>
<pdfrwt beam="2">  1       -2 0.10889505E+00 0.15304172E+04</pdfrwt>
<totfact> 0.11919379E+01</totfact>
</mgrwt>
</event>
<event>
12    5  0.5041746E-008  0.2509278E+04  0.7818608E-02  0.8399688E-01
          1   -1    0    0  501    0  0.00000000000E+00  0.00000000000E+00  0.12872865123E+04  0.12872865123E+04  0.00000000000E+00 0. -1.
         -2   -1    0    0    0  501 -0.00000000000E+00 -0.00000000000E+00 -0.12228194458E+04  0.12228194458E+04  0.00000000000E+00 0.  1.
        -24    2    1    2    0    0  0.19377997037E+02  0.12390772930E+03  0.11030813689E+04  0.11132496603E+04  0.82508590674E+02 0.  0.
        254    2    1    2    0    0 -0.19377997037E+02 -0.12390772930E+03 -0.10386143025E+04  0.13968562978E+04  0.92561288637E+03 0.  0.
         23    2    4    4    0    0 -0.11258060739E+03 -0.54634734568E+02 -0.11821134366E+04  0.11921494875E+04  0.90381835731E+02 0.  0.
         23    2    4    4    0    0  0.93202610350E+02 -0.69272994736E+02  0.14349913410E+03  0.20470681037E+03  0.88472607901E+02 0.  0.
          1    1    3    3  502    0  0.11739103961E+02  0.10704428036E+03  0.10694638773E+04  0.10748717455E+04  0.00000000000E+00 0. -1.
         -2    1    3    3    0  502  0.76388930755E+01  0.16863448944E+02  0.33617491620E+02  0.38377914749E+02  0.00000000000E+00 0.  1.
         13    1    5    5    0    0 -0.12330956732E+03 -0.35379150401E+02 -0.10854607686E+04  0.10930151023E+04  0.00000000000E+00 0.  1.
        -13    1    5    5    0    0  0.10728959932E+02 -0.19255584167E+02 -0.96652667958E+02  0.99134385186E+02  0.00000000000E+00 0. -1.
          4    1    6    6  503    0  0.54044509433E+02 -0.65332805346E+01  0.15036704475E+02  0.56476501626E+02  0.00000000000E+00 0. -1.
         -4    1    6    6    0  503  0.39158100917E+02 -0.62739714201E+02  0.12846242962E+03  0.14823030874E+03  0.00000000000E+00 0.  1.
<mgrwt>
<rscale>  0 0.25092780E+04</rscale>
<asrwt>0</asrwt>
<pdfrwt beam="1">  1        1 0.19804408E+00 0.25092780E+04</pdfrwt>
<pdfrwt beam="2">  1       -2 0.18812607E+00 0.25092780E+04</pdfrwt>
<totfact> 0.11483737E+00</totfact>
</mgrwt>
</event>
<event>
12    5  0.5041746E-008  0.1458281E+04  0.7818608E-02  0.8912679E-01
         -2   -1    0    0    0  501 -0.00000000000E+00  0.00000000000E+00  0.20954733801E+03  0.20954733801E+03  0.00000000000E+00 0.  1.
          1   -1    0    0  501    0  0.00000000000E+00 -0.00000000000E+00 -0.25371161738E+04  0.25371161738E+04  0.00000000000E+00 0. -1.
        -24    2    1    2    0    0 -0.36367565826E+03  0.18007977229E+03 -0.37806943054E+03  0.56099894230E+03  0.84229508852E+02 0.  0.
        254    2    1    2    0    0  0.36367565826E+03 -0.18007977229E+03 -0.19494994053E+04  0.21856645695E+04  0.90105103657E+03 0.  0.
         23    2    4    4    0    0  0.47212753254E+03 -0.40938168884E+03 -0.88157464544E+03  0.10842201681E+04  0.88666471757E+02 0.  0.
         23    2    4    4    0    0 -0.10845187429E+03  0.22930191654E+03 -0.10679247598E+04  0.11014444015E+04  0.91516659010E+02 0.  0.
          1    1    3    3  502    0 -0.57908580960E+02  0.51601500703E+02 -0.39478017662E+02  0.87032364682E+02  0.00000000000E+00 0. -1.
         -2    1    3    3    0  502 -0.30576707730E+03  0.12847827159E+03 -0.33859141288E+03  0.47396657762E+03  0.00000000000E+00 0.  1.
         13    1    5    5    0    0  0.13347896459E+02  0.27007937991E+01 -0.11843001414E+02  0.18047639999E+02  0.00000000000E+00 0. -1.
        -13    1    5    5    0    0  0.45877963608E+03 -0.41208248263E+03 -0.86973164403E+03  0.10661725281E+04  0.00000000000E+00 0.  1.
          1    1    6    6  503    0 -0.44487243616E+02  0.18158246776E+03 -0.66988293988E+03  0.69548145956E+03  0.00000000000E+00 0. -1.
         -1    1    6    6    0  503 -0.63964630669E+02  0.47719448784E+02 -0.39804181995E+03  0.40596294190E+03  0.00000000000E+00 0.  1.
<mgrwt>
<rscale>  0 0.14582811E+04</rscale>
<asrwt>0</asrwt>
<pdfrwt beam="1">  1        1 0.39032555E+00 0.14582811E+04</pdfrwt>
<pdfrwt beam="2">  1       -2 0.32238053E-01 0.14582811E+04</pdfrwt>
<totfact> 0.97770334E+00</totfact>
</mgrwt>
</event>
<event>
12    5  0.5041746E-008  0.1776599E+04  0.7818608E-02  0.8718844E-01
         -2   -1    0    0    0  501 -0.00000000000E+00  0.00000000000E+00  0.66259880112E+03  0.66259880112E+03  0.00000000000E+00 0.  1.
          1   -1    0    0  501    0  0.00000000000E+00 -0.00000000000E+00 -0.11908809909E+04  0.11908809909E+04  0.00000000000E+00 0. -1.
        -24    2    1    2    0    0 -0.59234558397E+03  0.18301273693E+03 -0.42815688497E+03  0.75773303926E+03  0.80461717032E+02 0.  0.
        254    2    1    2    0    0  0.59234558397E+03 -0.18301273693E+03 -0.10012530479E+03  0.10957467527E+04  0.89792478346E+03 0.  0.
         23    2    4    4    0    0  0.55678952713E+03  0.21618088103E+03  0.13570150983E+03  0.61935036574E+03  0.91821701850E+02 0.  0.
         23    2    4    4    0    0  0.35556056836E+02 -0.39919361796E+03 -0.23582681461E+03  0.47639638699E+03  0.10353479245E+03 0.  0.
          3    1    3    3  502    0 -0.59287012108E+03  0.18085348108E+03 -0.43036749376E+03  0.75459866272E+03  0.00000000000E+00 0. -1.
         -4    1    3    3    0  502  0.52453711496E+00  0.21592558535E+01  0.22106087942E+01  0.31343765356E+01  0.00000000000E+00 0.  1.
         13    1    5    5    0    0  0.31225219975E+03  0.16253275808E+03  0.10359369161E+03  0.36694684443E+03  0.00000000000E+00 0. -1.
        -13    1    5    5    0    0  0.24453732738E+03  0.53648122951E+02  0.32107818214E+02  0.25240352131E+03  0.00000000000E+00 0.  1.
          1    1    6    6  503    0  0.58029621571E+02 -0.18336818400E+03 -0.75587134374E+02  0.20665125880E+03  0.00000000000E+00 0. -1.
         -1    1    6    6    0  503 -0.22473564735E+02 -0.21582543397E+03 -0.16023968024E+03  0.26974512819E+03  0.00000000000E+00 0.  1.
<mgrwt>
<rscale>  0 0.17765994E+04</rscale>
<asrwt>0</asrwt>
<pdfrwt beam="1">  1        1 0.18321246E+00 0.17765994E+04</pdfrwt>
<pdfrwt beam="2">  1       -2 0.10193828E+00 0.17765994E+04</pdfrwt>
<totfact> 0.71011237E+00</totfact>
</mgrwt>
</event>
<event>
12    5  0.5041746E-008  0.1318762E+04  0.7818608E-02  0.9014818E-01
         -2   -1    0    0    0  501 -0.00000000000E+00  0.00000000000E+00  0.92411123197E+03  0.92411123197E+03  0.00000000000E+00 0.  1.
          1   -1    0    0  501    0  0.00000000000E+00 -0.00000000000E+00 -0.47048804871E+03  0.47048804871E+03  0.00000000000E+00 0. -1.
        -24    2    1    2    0    0 -0.38524763772E+02 -0.30486940260E+03  0.28547537836E+03  0.42704860115E+03  0.80279549260E+02 0.  0.
        254    2    1    2    0    0  0.38524763772E+02  0.30486940260E+03  0.16814780490E+03  0.96755067953E+03  0.90191525272E+03 0.  0.
         23    2    4    4    0    0 -0.21505830641E+03 -0.20937789994E+03  0.22261564607E+03  0.38455209127E+03  0.90738111558E+02 0.  0.
         23    2    4    4    0    0  0.25358307018E+03  0.51424730254E+03 -0.54467841168E+02  0.58299858825E+03  0.90365626932E+02 0.  0.
          3    1    3    3  502    0 -0.68138884331E+01 -0.19873594281E+03  0.13561684006E+03  0.24069551584E+03  0.00000000000E+00 0. -1.
         -4    1    3    3    0  502 -0.31710875339E+02 -0.10613345979E+03  0.14985853830E+03  0.18635308530E+03  0.00000000000E+00 0.  1.
         13    1    5    5    0    0 -0.48574713184E+02 -0.43313287286E+02  0.68963244801E+01  0.65445419303E+02  0.00000000000E+00 0.  1.
        -13    1    5    5    0    0 -0.16648359323E+03 -0.16606461266E+03  0.21571932159E+03  0.31910667197E+03  0.00000000000E+00 0. -1.
          1    1    6    6  503    0  0.21362315768E+03  0.39187453922E+03 -0.75194690273E+02  0.45260882606E+03  0.00000000000E+00 0. -1.
         -1    1    6    6    0  503  0.39959912501E+02  0.12237276332E+03  0.20726849105E+02  0.13038976219E+03  0.00000000000E+00 0.  1.
<mgrwt>
<rscale>  0 0.13187620E+04</rscale>
<asrwt>0</asrwt>
<pdfrwt beam="1">  1        1 0.72382777E-01 0.13187620E+04</pdfrwt>
<pdfrwt beam="2">  1       -2 0.14217096E+00 0.13187620E+04</pdfrwt>
<totfact> 0.14252032E+01</totfact>
</mgrwt>
</event>
<event>
12    5  0.5041746E-008  0.1194695E+04  0.7818608E-02  0.9117513E-01
          1   -1    0    0  501    0  0.00000000000E+00  0.00000000000E+00  0.93019672797E+03  0.93019672797E+03  0.00000000000E+00 0. -1.
         -2   -1    0    0    0  501 -0.00000000000E+00 -0.00000000000E+00 -0.38360037058E+03  0.38360037058E+03  0.00000000000E+00 0.  1.
        -24    2    1    2    0    0  0.22735790717E+03 -0.10219908685E+03  0.19571915837E+03  0.32485726753E+03  0.71344123837E+02 0.  0.
        254    2    1    2    0    0 -0.22735790717E+03  0.10219908685E+03  0.35087719902E+03  0.98893983102E+03  0.89036560428E+03 0.  0.
         23    2    4    4    0    0 -0.25888237077E+03 -0.20438602179E+03  0.52271403499E+03  0.62450789405E+03  0.89366769824E+02 0.  0.
         23    2    4    4    0    0  0.31524463608E+02  0.30658510865E+03 -0.17183683597E+03  0.36443193697E+03  0.91074243545E+02 0.  0.
          1    1    3    3  502    0  0.21133095827E+03 -0.72765776903E+02  0.15438606365E+03  0.27164441621E+03  0.00000000000E+00 0. -1.
         -2    1    3    3    0  502  0.16026948901E+02 -0.29433309950E+02  0.41333094722E+02  0.53212851314E+02  0.00000000000E+00 0.  1.
         13    1    5    5    0    0 -0.83361771967E+02 -0.11546576481E+03  0.25775596681E+03  0.29448203052E+03  0.00000000000E+00 0.  1.
        -13    1    5    5    0    0 -0.17552059881E+03 -0.88920256985E+02  0.26495806818E+03  0.33002586353E+03  0.00000000000E+00 0. -1.
          2    1    6    6  503    0  0.47314895532E+02  0.71821866630E+02 -0.49533952474E+02  0.99250653969E+02  0.00000000000E+00 0. -1.
         -2    1    6    6    0  503 -0.15790431925E+02  0.23476324202E+03 -0.12230288350E+03  0.26518128300E+03  0.00000000000E+00 0.  1.
<mgrwt>
<rscale>  0 0.11946946E+04</rscale>
<asrwt>0</asrwt>
<pdfrwt beam="1">  1        1 0.14310719E+00 0.11946946E+04</pdfrwt>
<pdfrwt beam="2">  1       -2 0.59015442E-01 0.11946946E+04</pdfrwt>
<totfact> 0.40024461E+01</totfact>
</mgrwt>
</event>
<event>
12    5  0.5041746E-008  0.2118042E+04  0.7818608E-02  0.8553337E-01
         -2   -1    0    0    0  501 -0.00000000000E+00  0.00000000000E+00  0.26460349895E+04  0.26460349895E+04  0.00000000000E+00 0.  1.
          1   -1    0    0  501    0  0.00000000000E+00 -0.00000000000E+00 -0.42385149305E+03  0.42385149305E+03  0.00000000000E+00 0. -1.
        -24    2    1    2    0    0  0.68875469135E+02 -0.29609353121E+03 -0.26102983393E+03  0.40889152271E+03  0.81489224232E+02 0.  0.
        254    2    1    2    0    0 -0.68875469135E+02  0.29609353121E+03  0.24832133303E+04  0.26609949598E+04  0.90671413502E+03 0.  0.
         23    2    4    4    0    0  0.11725723405E+03  0.51802556356E+03  0.21190751580E+04  0.21865524519E+04  0.91827861463E+02 0.  0.
         23    2    4    4    0    0 -0.18613270319E+03 -0.22193203234E+03  0.36413817232E+03  0.47444250790E+03  0.92735508776E+02 0.  0.
          3    1    3    3  502    0  0.67698787498E+02 -0.26875358843E+03 -0.19930005555E+03  0.34136802613E+03  0.00000000000E+00 0. -1.
         -4    1    3    3    0  502  0.11766816379E+01 -0.27339942782E+02 -0.61729778378E+02  0.67523496575E+02  0.00000000000E+00 0.  1.
         13    1    5    5    0    0  0.56491707523E+02  0.32569311936E+03  0.11421635236E+04  0.11890352542E+04  0.00000000000E+00 0. -1.
        -13    1    5    5    0    0  0.60765526526E+02  0.19233244420E+03  0.97691163438E+03  0.99751719770E+03  0.00000000000E+00 0.  1.
          2    1    6    6  503    0 -0.16315759947E+03 -0.21506613768E+03  0.36021759093E+03  0.45014504180E+03  0.00000000000E+00 0. -1.
         -2    1    6    6    0  503 -0.22975103717E+02 -0.68658946646E+01  0.39205813827E+01  0.24297466097E+02  0.00000000000E+00 0.  1.
<mgrwt>
<rscale>  0 0.21180424E+04</rscale>
<asrwt>0</asrwt>
<pdfrwt beam="1">  1        1 0.65207923E-01 0.21180424E+04</pdfrwt>
<pdfrwt beam="2">  1       -2 0.40708230E+00 0.21180424E+04</pdfrwt>
<totfact> 0.29821629E-01</totfact>
</mgrwt>
</event>
<event>
12    5  0.5041746E-008  0.2167073E+04  0.7818608E-02  0.8532259E-01
         -2   -1    0    0    0  501 -0.00000000000E+00  0.00000000000E+00  0.74756609219E+03  0.74756609219E+03  0.00000000000E+00 0.  1.
          1   -1    0    0  501    0  0.00000000000E+00 -0.00000000000E+00 -0.15704984563E+04  0.15704984563E+04  0.00000000000E+00 0. -1.
        -24    2    1    2    0    0  0.46639268785E+03  0.11328104026E+02 -0.11606144334E+04  0.12531535372E+04  0.75613884733E+02 0.  0.
        254    2    1    2    0    0 -0.46639268785E+03 -0.11328104026E+02  0.33768206922E+03  0.10649110114E+04  0.89574316465E+03 0.  0.
         23    2    4    4    0    0 -0.25384049795E+03  0.42450681010E+03  0.81226887283E+02  0.50915785466E+03  0.89458837016E+02 0.  0.
         23    2    4    4    0    0 -0.21255218989E+03 -0.43583491412E+03  0.25645518193E+03  0.55575315670E+03  0.89228947357E+02 0.  0.
          1    1    3    3  502    0  0.41488429982E+03  0.84195920469E+01 -0.10847072413E+04  0.11613740444E+04  0.00000000000E+00 0. -1.
         -2    1    3    3    0  502  0.51508388025E+02  0.29085119795E+01 -0.75907192089E+02  0.91779492751E+02  0.00000000000E+00 0.  1.
         13    1    5    5    0    0 -0.88197999819E+00  0.50564083308E+02  0.76094755907E+00  0.50577499450E+02  0.00000000000E+00 0. -1.
        -13    1    5    5    0    0 -0.25295851796E+03  0.37394272679E+03  0.80465939724E+02  0.45858035521E+03  0.00000000000E+00 0.  1.
          2    1    6    6  503    0 -0.87814583235E+02 -0.10679430173E+03  0.10007431529E+03  0.17067891637E+03  0.00000000000E+00 0. -1.
         -2    1    6    6    0  503 -0.12473760666E+03 -0.32904061239E+03  0.15638086664E+03  0.38507424033E+03  0.00000000000E+00 0.  1.
<mgrwt>
<rscale>  0 0.21670730E+04</rscale>
<asrwt>0</asrwt>
<pdfrwt beam="1">  1        1 0.24161515E+00 0.21670730E+04</pdfrwt>
<pdfrwt beam="2">  1       -2 0.11501017E+00 0.21670730E+04</pdfrwt>
<totfact> 0.27671726E+00</totfact>
</mgrwt>
</event>
<event>
12    5  0.5041746E-008  0.1823882E+04  0.7818608E-02  0.8693701E-01
          1   -1    0    0  501    0  0.00000000000E+00  0.00000000000E+00  0.68974082378E+03  0.68974082378E+03  0.00000000000E+00 0. -1.
         -2   -1    0    0    0  501 -0.00000000000E+00 -0.00000000000E+00 -0.12057230264E+04  0.12057230264E+04  0.00000000000E+00 0.  1.
        -24    2    1    2    0    0  0.24998546355E+03  0.42467674716E+03  0.30790234781E+03  0.58657161283E+03  0.80120719091E+02 0.  0.
        254    2    1    2    0    0 -0.24998546355E+03 -0.42467674716E+03 -0.82388455046E+03  0.13088922374E+04  0.88970223390E+03 0.  0.
         23    2    4    4    0    0  0.69987271879E+02  0.35357012929E+02  0.14360337597E+03  0.18712704385E+03  0.90808944279E+02 0.  0.
         23    2    4    4    0    0 -0.31997273543E+03 -0.46003376009E+03 -0.96748792643E+03  0.11217651935E+04  0.91162765376E+02 0.  0.
          1    1    3    3  502    0  0.68588637366E+02  0.19196115514E+03  0.13669356334E+03  0.24543556490E+03  0.00000000000E+00 0. -1.
         -2    1    3    3    0  502  0.18139682619E+03  0.23271559201E+03  0.17120878447E+03  0.34113604793E+03  0.00000000000E+00 0.  1.
         13    1    5    5    0    0  0.29336986636E+02  0.62669122674E+02  0.99672576027E+02  0.12133713419E+03  0.00000000000E+00 0.  1.
        -13    1    5    5    0    0  0.40650285243E+02 -0.27312109746E+02  0.43930799941E+02  0.65789909656E+02  0.00000000000E+00 0. -1.
          3    1    6    6  503    0 -0.94773519252E+02 -0.79958252238E+02 -0.17535801722E+03  0.21476912315E+03  0.00000000000E+00 0. -1.
         -3    1    6    6    0  503 -0.22519921618E+03 -0.38007550785E+03 -0.79212990920E+03  0.90699607038E+03  0.00000000000E+00 0.  1.
<mgrwt>
<rscale>  0 0.18238820E+04</rscale>
<asrwt>0</asrwt>
<pdfrwt beam="1">  1        1 0.10611397E+00 0.18238820E+04</pdfrwt>
<pdfrwt beam="2">  1       -2 0.18549585E+00 0.18238820E+04</pdfrwt>
<totfact> 0.38173761E+00</totfact>
</mgrwt>
</event>
<event>
12    5  0.5041746E-008  0.1306175E+04  0.7818608E-02  0.9024683E-01
          1   -1    0    0  501    0  0.00000000000E+00  0.00000000000E+00  0.47072617785E+03  0.47072617785E+03  0.00000000000E+00 0. -1.
         -2   -1    0    0    0  501 -0.00000000000E+00 -0.00000000000E+00 -0.90609651571E+03  0.90609651571E+03  0.00000000000E+00 0.  1.
        -24    2    1    2    0    0 -0.16587436117E+03  0.17917432485E+03 -0.33130014384E+03  0.41865468474E+03  0.76773806483E+02 0.  0.
        254    2    1    2    0    0  0.16587436117E+03 -0.17917432485E+03 -0.10407019402E+03  0.95816800882E+03  0.92067235511E+03 0.  0.
         23    2    4    4    0    0 -0.30788180790E+03  0.71453870671E+02 -0.22870439111E+03  0.40016890982E+03  0.89065114362E+02 0.  0.
         23    2    4    4    0    0  0.47375616907E+03 -0.25062819552E+03  0.12463419709E+03  0.55799909900E+03  0.92573815304E+02 0.  0.
          1    1    3    3  502    0 -0.26342057512E+02  0.33349234157E+02 -0.18400945358E+02  0.46310584134E+02  0.00000000000E+00 0. -1.
         -2    1    3    3    0  502 -0.13953230366E+03  0.14582509069E+03 -0.31289919849E+03  0.37234410060E+03  0.00000000000E+00 0.  1.
         13    1    5    5    0    0 -0.26734514040E+03  0.31008775794E+02 -0.17095657951E+03  0.31884341039E+03  0.00000000000E+00 0. -1.
        -13    1    5    5    0    0 -0.40536667508E+02  0.40445094877E+02 -0.57747811604E+02  0.81325499428E+02  0.00000000000E+00 0.  1.
          2    1    6    6  503    0  0.26811923649E+03 -0.17869336319E+03  0.10665251008E+03  0.33940241739E+03  0.00000000000E+00 0. -1.
         -2    1    6    6    0  503  0.20563693259E+03 -0.71934832326E+02  0.17981687015E+02  0.21859668162E+03  0.00000000000E+00 0.  1.
<mgrwt>
<rscale>  0 0.13061751E+04</rscale>
<asrwt>0</asrwt>
<pdfrwt beam="1">  1        1 0.72419412E-01 0.13061751E+04</pdfrwt>
<pdfrwt beam="2">  1       -2 0.13939946E+00 0.13061751E+04</pdfrwt>
<totfact> 0.15006440E+01</totfact>
</mgrwt>
</event>
<event>
12    5  0.5041746E-008  0.2381831E+04  0.7818608E-02  0.8446337E-01
          1   -1    0    0  501    0  0.00000000000E+00  0.00000000000E+00  0.13892091140E+04  0.13892091140E+04  0.00000000000E+00 0. -1.
         -2   -1    0    0    0  501 -0.00000000000E+00 -0.00000000000E+00 -0.10209264421E+04  0.10209264421E+04  0.00000000000E+00 0.  1.
        -24    2    1    2    0    0  0.28312995705E+03 -0.32818971644E+03 -0.77119439403E+03  0.88808333685E+03  0.77975363168E+02 0.  0.
        254    2    1    2    0    0 -0.28312995705E+03  0.32818971644E+03  0.11394770659E+04  0.15220522193E+04  0.91124305866E+03 0.  0.
         23    2    4    4    0    0  0.72323190152E+01  0.38130004009E+03  0.55932147857E+02  0.39572990007E+03  0.89619873014E+02 0.  0.
         23    2    4    4    0    0 -0.29036227606E+03 -0.53110323641E+02  0.10835449180E+04  0.11263223192E+04  0.86031503020E+02 0.  0.
          1    1    3    3  502    0  0.40416942108E+02 -0.15504343831E+02 -0.57548189561E+02  0.72011860196E+02  0.00000000000E+00 0. -1.
         -2    1    3    3    0  502  0.24271301494E+03 -0.31268537261E+03 -0.71364620447E+03  0.81607147666E+03  0.00000000000E+00 0.  1.
         13    1    5    5    0    0 -0.60761488458E+01  0.47349002835E+02  0.38031471302E+02  0.61034748002E+02  0.00000000000E+00 0.  1.
        -13    1    5    5    0    0  0.13308467861E+02  0.33395103725E+03  0.17900676555E+02  0.33469515207E+03  0.00000000000E+00 0. -1.
          1    1    6    6  503    0 -0.20439556142E+03 -0.61242127288E+02  0.87429543233E+03  0.89995591374E+03  0.00000000000E+00 0. -1.
         -1    1    6    6    0  503 -0.85966714644E+02  0.81318036473E+01  0.20924948570E+03  0.22636640547E+03  0.00000000000E+00 0.  1.
<mgrwt>
<rscale>  0 0.23818315E+04</rscale>
<asrwt>0</asrwt>
<pdfrwt beam="1">  1        1 0.21372448E+00 0.23818315E+04</pdfrwt>
<pdfrwt beam="2">  1       -2 0.15706561E+00 0.23818315E+04</pdfrwt>
<totfact> 0.16316497E+00</totfact>
</mgrwt>
</event>
<event>
12    5  0.5041746E-008  0.1126853E+04  0.7818608E-02  0.9179407E-01
         -2   -1    0    0    0  501 -0.00000000000E+00  0.00000000000E+00  0.31131275131E+03  0.31131275131E+03  0.00000000000E+00 0.  1.
          1   -1    0    0  501    0  0.00000000000E+00 -0.00000000000E+00 -0.10197127693E+04  0.10197127693E+04  0.00000000000E+00 0. -1.
        -24    2    1    2    0    0  0.56353844085E+02 -0.10324491418E+03  0.52209408474E+02  0.15178600053E+03  0.80485399774E+02 0.  0.
        254    2    1    2    0    0 -0.56353844085E+02  0.10324491418E+03 -0.76060942645E+03  0.11792395201E+04  0.89344494963E+03 0.  0.
         23    2    4    4    0    0 -0.30522610787E+03  0.34930537447E+03 -0.64472135750E+03  0.79943823067E+03  0.90877028359E+02 0.  0.
         23    2    4    4    0    0  0.24887226379E+03 -0.24606046030E+03 -0.11588806896E+03  0.37980128939E+03  0.91300717940E+02 0.  0.
          1    1    3    3  502    0  0.28461860317E+02  0.43824423297E+01 -0.36479261610E+00  0.28799589704E+02  0.00000000000E+00 0. -1.
         -2    1    3    3    0  502  0.27891983768E+02 -0.10762735651E+03  0.52574201090E+02  0.12298641083E+03  0.00000000000E+00 0.  1.
         13    1    5    5    0    0 -0.23731949873E+03  0.30037597379E+03 -0.47380447702E+03  0.60912802640E+03  0.00000000000E+00 0. -1.
        -13    1    5    5    0    0 -0.67906609143E+02  0.48929400689E+02 -0.17091688048E+03  0.19031020427E+03  0.00000000000E+00 0.  1.
          4    1    6    6  503    0  0.13205563346E+03 -0.18903359004E+03 -0.88256244366E+02  0.24690393508E+03  0.00000000000E+00 0. -1.
         -4    1    6    6    0  503  0.11681663033E+03 -0.57026870260E+02 -0.27631824590E+02  0.13289735431E+03  0.00000000000E+00 0.  1.
<mgrwt>
<rscale>  0 0.11268533E+04</rscale>
<asrwt>0</asrwt>
<pdfrwt beam="1">  1        1 0.15687889E+00 0.11268533E+04</pdfrwt>
<pdfrwt beam="2">  1       -2 0.47894270E-01 0.11268533E+04</pdfrwt>
<totfact> 0.52599695E+01</totfact>
</mgrwt>
</event>
<event>
12    5  0.5041746E-008  0.1554391E+04  0.7818608E-02  0.8849068E-01
          3   -1    0    0  501    0  0.00000000000E+00  0.00000000000E+00  0.51884094918E+03  0.51884094918E+03  0.00000000000E+00 0. -1.
         -4   -1    0    0    0  501 -0.00000000000E+00 -0.00000000000E+00 -0.11641970544E+04  0.11641970544E+04  0.00000000000E+00 0.  1.
        -24    2    1    2    0    0  0.24375183254E+03  0.32678617404E+03  0.12571385633E+03  0.43403972505E+03  0.79889610302E+02 0.  0.
        254    2    1    2    0    0 -0.24375183254E+03 -0.32678617404E+03 -0.77106996153E+03  0.12489982785E+04  0.89400428115E+03 0.  0.
         23    2    4    4    0    0 -0.29769563250E+03 -0.57622121462E+03 -0.71862618683E+03  0.97240276004E+03  0.92140943932E+02 0.  0.
         23    2    4    4    0    0  0.53943799961E+02  0.24943504058E+03 -0.52443774705E+02  0.27659551846E+03  0.92881420653E+02 0.  0.
          3    1    3    3  502    0  0.24728122994E+03  0.32006986200E+03  0.13058465656E+03  0.42502361790E+03  0.00000000000E+00 0. -1.
         -4    1    3    3    0  502 -0.35293973955E+01  0.67163120357E+01 -0.48708002229E+01  0.90161071504E+01  0.00000000000E+00 0.  1.
         13    1    5    5    0    0 -0.41849301875E+02 -0.60551271408E+02 -0.12799089883E+03  0.14764650595E+03  0.00000000000E+00 0. -1.
        -13    1    5    5    0    0 -0.25584633063E+03 -0.51566994322E+03 -0.59063528800E+03  0.82475625409E+03  0.00000000000E+00 0.  1.
          1    1    6    6  503    0  0.19429767243E+02  0.12564029047E+03 -0.72762264843E+02  0.14648326058E+03  0.00000000000E+00 0. -1.
         -1    1    6    6    0  503  0.34514032718E+02  0.12379475011E+03  0.20318490138E+02  0.13011225788E+03  0.00000000000E+00 0.  1.
<mgrwt>
<rscale>  0 0.15543913E+04</rscale>
<asrwt>0</asrwt>
<pdfrwt beam="1">  1        3 0.79821686E-01 0.15543913E+04</pdfrwt>
<pdfrwt beam="2">  1       -4 0.17910724E+00 0.15543913E+04</pdfrwt>
<totfact> 0.58692835E-01</totfact>
</mgrwt>
</event>
<event>
12    5  0.5041746E-008  0.1442403E+04  0.7818608E-02  0.8923684E-01
          1   -1    0    0  501    0  0.00000000000E+00  0.00000000000E+00  0.68337308421E+03  0.68337308421E+03  0.00000000000E+00 0. -1.
         -2   -1    0    0    0  501 -0.00000000000E+00 -0.00000000000E+00 -0.76112407658E+03  0.76112407658E+03  0.00000000000E+00 0.  1.
        -24    2    1    2    0    0 -0.11220341407E+03 -0.41504154636E+03  0.18225187778E+02  0.43747490869E+03  0.78759424386E+02 0.  0.
        254    2    1    2    0    0  0.11220341407E+03  0.41504154636E+03 -0.95976180145E+02  0.10070222521E+04  0.90555689923E+03 0.  0.
         23    2    4    4    0    0  0.47090060357E+03  0.59276507265E+02 -0.10124699296E+03  0.49321023688E+03  0.88001712654E+02 0.  0.
         23    2    4    4    0    0 -0.35869718950E+03  0.35576503910E+03  0.52708128194E+01  0.51381201522E+03  0.93501704377E+02 0.  0.
          3    1    3    3  502    0 -0.11425426034E+03 -0.39446487933E+03  0.11850226971E+01  0.41067990128E+03  0.00000000000E+00 0. -1.
         -4    1    3    3    0  502  0.20508462685E+01 -0.20576667027E+02  0.17040165081E+02  0.26795007414E+02  0.00000000000E+00 0.  1.
         13    1    5    5    0    0  0.30418803903E+03  0.76331717446E+02 -0.84435152928E+02  0.32478637476E+03  0.00000000000E+00 0.  1.
        -13    1    5    5    0    0  0.16671256454E+03 -0.17055210182E+02 -0.16811840037E+02  0.16842386213E+03  0.00000000000E+00 0. -1.
          1    1    6    6  503    0 -0.45011369374E+02  0.43365120632E+02 -0.30714515352E+02  0.69641499938E+02  0.00000000000E+00 0. -1.
         -1    1    6    6    0  503 -0.31368582012E+03  0.31239991846E+03  0.35985328172E+02  0.44417051528E+03  0.00000000000E+00 0.  1.
<mgrwt>
<rscale>  0 0.14424031E+04</rscale>
<asrwt>0</asrwt>
<pdfrwt beam="1">  1        1 0.10513432E+00 0.14424031E+04</pdfrwt>
<pdfrwt beam="2">  1       -2 0.11709601E+00 0.14424031E+04</pdfrwt>
<totfact> 0.13560461E+01</totfact>
</mgrwt>
</event>
<event>
12    5  0.5041746E-008  0.2986705E+04  0.7818608E-02  0.8247538E-01
         -2   -1    0    0    0  501 -0.00000000000E+00  0.00000000000E+00  0.84520182592E+03  0.84520182592E+03  0.00000000000E+00 0.  1.
          1   -1    0    0  501    0  0.00000000000E+00 -0.00000000000E+00 -0.26385427430E+04  0.26385427430E+04  0.00000000000E+00 0. -1.
        -24    2    1    2    0    0 -0.12056562995E+04  0.50841923332E+03 -0.33678147024E+03  0.13533570823E+04  0.77822903763E+02 0.  0.
        254    2    1    2    0    0  0.12056562995E+04 -0.50841923332E+03 -0.14565594468E+04  0.21303874866E+04  0.83957619761E+03 0.  0.
         23    2    4    4    0    0  0.22178178137E+03 -0.39795260051E+03 -0.84196166355E+03  0.96167394130E+03  0.91454336591E+02 0.  0.
         23    2    4    4    0    0  0.98387451809E+03 -0.11046663281E+03 -0.61459778329E+03  0.11687135453E+04  0.89157004271E+02 0.  0.
          3    1    3    3  502    0 -0.33920803833E+03  0.17630947368E+03 -0.80106562306E+02  0.39059465575E+03  0.00000000000E+00 0. -1.
         -4    1    3    3    0  502 -0.86644826113E+03  0.33210975964E+03 -0.25667490794E+03  0.96276242658E+03  0.00000000000E+00 0.  1.
         13    1    5    5    0    0  0.20992581886E+03 -0.31157071511E+03 -0.71435538133E+03  0.80712376422E+03  0.00000000000E+00 0.  1.
        -13    1    5    5    0    0  0.11855962516E+02 -0.86381885396E+02 -0.12760628223E+03  0.15455017708E+03  0.00000000000E+00 0. -1.
          1    1    6    6  503    0  0.27377216600E+03 -0.55494884871E+02 -0.21106738100E+03  0.35011472469E+03  0.00000000000E+00 0. -1.
         -1    1    6    6    0  503  0.71010235209E+03 -0.54971747941E+02 -0.40353040229E+03  0.81859882060E+03  0.00000000000E+00 0.  1.
<mgrwt>
<rscale>  0 0.29867046E+04</rscale>
<asrwt>0</asrwt>
<pdfrwt beam="1">  1        1 0.40592964E+00 0.29867046E+04</pdfrwt>
<pdfrwt beam="2">  1       -2 0.13003105E+00 0.29867046E+04</pdfrwt>
<totfact> 0.35263565E-01</totfact>
</mgrwt>
</event>
<event>
12    5  0.5041746E-008  0.1912662E+04  0.7818608E-02  0.8648579E-01
          1   -1    0    0  501    0  0.00000000000E+00  0.00000000000E+00  0.26164241613E+04  0.26164241613E+04  0.00000000000E+00 0. -1.
         -2   -1    0    0    0  501 -0.00000000000E+00 -0.00000000000E+00 -0.34954915110E+03  0.34954915110E+03  0.00000000000E+00 0.  1.
        -24    2    1    2    0    0  0.40353056512E+03 -0.47413663741E+03  0.30235798497E+03  0.69656730947E+03  0.78378553310E+02 0.  0.
        254    2    1    2    0    0 -0.40353056512E+03  0.47413663741E+03  0.19645170253E+04  0.22694060030E+04  0.95038623506E+03 0.  0.
         23    2    4    4    0    0  0.22855874166E+02 -0.17334099086E+03  0.10432998666E+04  0.10619273957E+04  0.92982213847E+02 0.  0.
         23    2    4    4    0    0 -0.42638643929E+03  0.64747762827E+03  0.92121715868E+03  0.12074786072E+04  0.91273538059E+02 0.  0.
          3    1    3    3  502    0  0.96422647825E+02 -0.11742758122E+03  0.11233619394E+03  0.18896027178E+03  0.00000000000E+00 0. -1.
         -4    1    3    3    0  502  0.30710791730E+03 -0.35670905620E+03  0.19002179103E+03  0.50760703768E+03  0.00000000000E+00 0.  1.
         13    1    5    5    0    0 -0.24192857505E+02 -0.12350069257E+03  0.57282630962E+03  0.58648759272E+03  0.00000000000E+00 0. -1.
        -13    1    5    5    0    0  0.47048731671E+02 -0.49840298287E+02  0.47047355697E+03  0.47543980302E+03  0.00000000000E+00 0.  1.
          2    1    6    6  503    0 -0.11249129624E+03  0.21241568157E+03  0.23185602813E+03  0.33396396705E+03  0.00000000000E+00 0. -1.
         -2    1    6    6    0  503 -0.31389514305E+03  0.43506194670E+03  0.68936113055E+03  0.87351464018E+03  0.00000000000E+00 0.  1.
<mgrwt>
<rscale>  0 0.19126619E+04</rscale>
<asrwt>0</asrwt>
<pdfrwt beam="1">  1        1 0.40252678E+00 0.19126619E+04</pdfrwt>
<pdfrwt beam="2">  1       -2 0.53776794E-01 0.19126619E+04</pdfrwt>
<totfact> 0.30082738E+00</totfact>
</mgrwt>
</event>
<event>
12    5  0.5041746E-008  0.2146335E+04  0.7818608E-02  0.8541103E-01
         -2   -1    0    0    0  501 -0.00000000000E+00  0.00000000000E+00  0.49249161914E+03  0.49249161914E+03  0.00000000000E+00 0.  1.
          1   -1    0    0  501    0  0.00000000000E+00 -0.00000000000E+00 -0.23384937192E+04  0.23384937192E+04  0.00000000000E+00 0. -1.
        -24    2    1    2    0    0 -0.16058421565E+03  0.33353952386E+03  0.29703679207E+03  0.48152046419E+03  0.81210820105E+02 0.  0.
        254    2    1    2    0    0  0.16058421565E+03 -0.33353952386E+03 -0.21430388922E+04  0.23494648742E+04  0.88900708511E+03 0.  0.
         23    2    4    4    0    0 -0.18890492657E+03 -0.20849298169E+03 -0.18350619143E+04  0.18586902334E+04  0.90126353532E+02 0.  0.
         23    2    4    4    0    0  0.34948914222E+03 -0.12504654216E+03 -0.30797697783E+03  0.49077464078E+03  0.90722824687E+02 0.  0.
          3    1    3    3  502    0 -0.72764960554E+02  0.71060094213E+02  0.90956598559E+02  0.13644551768E+03  0.00000000000E+00 0. -1.
         -2    1    3    3    0  502 -0.87819255096E+02  0.26247942965E+03  0.20608019351E+03  0.34507494651E+03  0.00000000000E+00 0.  1.
         13    1    5    5    0    0  0.72766611463E+01 -0.24374610606E+02 -0.20528315813E+03  0.20685320024E+03  0.00000000000E+00 0.  1.
        -13    1    5    5    0    0 -0.19618158772E+03 -0.18411837109E+03 -0.16297787562E+04  0.16518370332E+04  0.00000000000E+00 0. -1.
          2    1    6    6  503    0  0.29464102664E+03 -0.68781787898E+02 -0.22983368922E+03  0.37995762083E+03  0.00000000000E+00 0. -1.
         -2    1    6    6    0  503  0.54848115583E+02 -0.56264754266E+02 -0.78143288611E+02  0.11081701995E+03  0.00000000000E+00 0.  1.
<mgrwt>
<rscale>  0 0.21463351E+04</rscale>
<asrwt>0</asrwt>
<pdfrwt beam="1">  1        1 0.35976826E+00 0.21463351E+04</pdfrwt>
<pdfrwt beam="2">  1       -2 0.75767942E-01 0.21463351E+04</pdfrwt>
<totfact> 0.22002806E+00</totfact>
</mgrwt>
</event>
<event>
12    5  0.5041746E-008  0.1832613E+04  0.7818608E-02  0.8689146E-01
         -2   -1    0    0    0  501 -0.00000000000E+00  0.00000000000E+00  0.11207363020E+04  0.11207363020E+04  0.00000000000E+00 0.  1.
          1   -1    0    0  501    0  0.00000000000E+00 -0.00000000000E+00 -0.74916641732E+03  0.74916641732E+03  0.00000000000E+00 0. -1.
        -24    2    1    2    0    0 -0.34110830202E+03  0.44135722287E+02  0.75436345032E+03  0.83283742905E+03  0.79064102809E+02 0.  0.
        254    2    1    2    0    0  0.34110830202E+03 -0.44135722287E+02 -0.38279356559E+03  0.10370652903E+04  0.90037251560E+03 0.  0.
         23    2    4    4    0    0  0.46736959029E+03 -0.35445191762E+03 -0.34747142015E+03  0.68774806250E+03  0.90501457548E+02 0.  0.
         23    2    4    4    0    0 -0.12626128827E+03  0.31031619534E+03 -0.35322145446E+02  0.34931722782E+03  0.92394900785E+02 0.  0.
          1    1    3    3  502    0 -0.44855626281E+01 -0.27744683997E+01  0.55093364683E+02  0.55345250736E+02  0.00000000000E+00 0. -1.
         -2    1    3    3    0  502 -0.33662273940E+03  0.46910190687E+02  0.69927008563E+03  0.77749217831E+03  0.00000000000E+00 0.  1.
         13    1    5    5    0    0  0.13028688645E+03 -0.12255969927E+03 -0.63911713254E+02  0.18994804489E+03  0.00000000000E+00 0. -1.
        -13    1    5    5    0    0  0.33708270384E+03 -0.23189221836E+03 -0.28355970689E+03  0.49780001762E+03  0.00000000000E+00 0.  1.
          4    1    6    6  503    0 -0.38951317401E+02  0.10828841230E+03  0.31492238810E+02  0.11931197119E+03  0.00000000000E+00 0.  1.
         -4    1    6    6    0  503 -0.87309970865E+02  0.20202778304E+03 -0.66814384257E+02  0.23000525663E+03  0.00000000000E+00 0. -1.
<mgrwt>
<rscale>  0 0.18326134E+04</rscale>
<asrwt>0</asrwt>
<pdfrwt beam="1">  1        1 0.11525637E+00 0.18326134E+04</pdfrwt>
<pdfrwt beam="2">  1       -2 0.17242097E+00 0.18326134E+04</pdfrwt>
<totfact> 0.41406917E+00</totfact>
</mgrwt>
</event>
<event>
12    5  0.5041746E-008  0.3330541E+04  0.7818608E-02  0.8155167E-01
          1   -1    0    0  501    0  0.00000000000E+00  0.00000000000E+00  0.20390151684E+04  0.20390151684E+04  0.00000000000E+00 0. -1.
         -2   -1    0    0    0  501 -0.00000000000E+00 -0.00000000000E+00 -0.13600322913E+04  0.13600322913E+04  0.00000000000E+00 0.  1.
        -24    2    1    2    0    0 -0.83558204348E+03 -0.74916631511E+03 -0.75884236596E+03  0.13571185715E+04  0.80508146592E+02 0.  0.
        254    2    1    2    0    0  0.83558204348E+03  0.74916631511E+03  0.14378252430E+04  0.20419288882E+04  0.91797855966E+03 0.  0.
         23    2    4    4    0    0  0.75343000728E+03  0.27514020118E+03  0.41468543730E+03  0.90758056386E+03  0.91539946549E+02 0.  0.
         23    2    4    4    0    0  0.82152036206E+02  0.47402611393E+03  0.10231398057E+04  0.11343483243E+04  0.92094219156E+02 0.  0.
          1    1    3    3  502    0 -0.17881259606E+03 -0.13431684924E+03 -0.18279993256E+03  0.28884386066E+03  0.00000000000E+00 0. -1.
         -2    1    3    3    0  502 -0.65676944743E+03 -0.61484946588E+03 -0.57604243340E+03  0.10682747109E+04  0.00000000000E+00 0.  1.
         13    1    5    5    0    0  0.58685945702E+03  0.17680946149E+03  0.33384380162E+03  0.69793788538E+03  0.00000000000E+00 0. -1.
        -13    1    5    5    0    0  0.16657055026E+03  0.98330739692E+02  0.80841635681E+02  0.20964267848E+03  0.00000000000E+00 0.  1.
          1    1    6    6  503    0 -0.55870504572E+01  0.16936392922E+03  0.42140393878E+03  0.45419889396E+03  0.00000000000E+00 0. -1.
         -1    1    6    6    0  503  0.87739086663E+02  0.30466218471E+03  0.60173586691E+03  0.68014943038E+03  0.00000000000E+00 0.  1.
<mgrwt>
<rscale>  0 0.33305414E+04</rscale>
<asrwt>0</asrwt>
<pdfrwt beam="1">  1        1 0.31369464E+00 0.33305414E+04</pdfrwt>
<pdfrwt beam="2">  1       -2 0.20923574E+00 0.33305414E+04</pdfrwt>
<totfact> 0.23626420E-01</totfact>
</mgrwt>
</event>
<event>
12    5  0.5041746E-008  0.1222578E+04  0.7818608E-02  0.9093321E-01
         -2   -1    0    0    0  501 -0.00000000000E+00  0.00000000000E+00  0.64159125729E+03  0.64159125729E+03  0.00000000000E+00 0.  1.
          1   -1    0    0  501    0  0.00000000000E+00 -0.00000000000E+00 -0.58241761783E+03  0.58241761783E+03  0.00000000000E+00 0. -1.
        -24    2    1    2    0    0 -0.20701502191E+02 -0.77495808141E+02 -0.24370645905E+03  0.26861251644E+03  0.79534227421E+02 0.  0.
        254    2    1    2    0    0  0.20701502191E+02  0.77495808141E+02  0.30288009851E+03  0.95539635868E+03  0.90255841675E+03 0.  0.
         23    2    4    4    0    0 -0.17674347938E+03 -0.36312903849E+03  0.11824039767E+03  0.43074800765E+03  0.91989664361E+02 0.  0.
         23    2    4    4    0    0  0.19744498157E+03  0.44062484663E+03  0.18463970084E+03  0.52464835104E+03  0.89606344088E+02 0.  0.
          3    1    3    3  502    0  0.10944917623E+02 -0.72040512442E+02 -0.20895269632E+03  0.22129359673E+03  0.00000000000E+00 0. -1.
         -2    1    3    3    0  502 -0.31646419814E+02 -0.54552956987E+01 -0.34753762729E+02  0.47318919705E+02  0.00000000000E+00 0.  1.
         13    1    5    5    0    0 -0.11375918632E+03 -0.29674793798E+03  0.11867389576E+03  0.33924030524E+03  0.00000000000E+00 0.  1.
        -13    1    5    5    0    0 -0.62984293063E+02 -0.66381100515E+02 -0.43349809595E+00  0.91507702402E+02  0.00000000000E+00 0. -1.
          1    1    6    6  503    0  0.15874756538E+03  0.25104411491E+03  0.12410735019E+03  0.32191081298E+03  0.00000000000E+00 0. -1.
         -1    1    6    6    0  503  0.38697416193E+02  0.18958073172E+03  0.60532350653E+02  0.20273753806E+03  0.00000000000E+00 0.  1.
<mgrwt>
<rscale>  0 0.12225777E+04</rscale>
<asrwt>0</asrwt>
<pdfrwt beam="1">  1        1 0.89602710E-01 0.12225777E+04</pdfrwt>
<pdfrwt beam="2">  1       -2 0.98706348E-01 0.12225777E+04</pdfrwt>
<totfact> 0.26334796E+01</totfact>
</mgrwt>
</event>
<event>
12    5  0.5041746E-008  0.1835448E+04  0.7818608E-02  0.8687672E-01
          1   -1    0    0  501    0  0.00000000000E+00  0.00000000000E+00  0.21963282045E+04  0.21963282045E+04  0.00000000000E+00 0. -1.
         -2   -1    0    0    0  501 -0.00000000000E+00 -0.00000000000E+00 -0.38346622533E+03  0.38346622533E+03  0.00000000000E+00 0.  1.
        -24    2    1    2    0    0 -0.44919511682E+03 -0.43851491634E+03  0.28113648767E+03  0.69245057929E+03  0.79865482151E+02 0.  0.
        254    2    1    2    0    0  0.44919511682E+03  0.43851491634E+03  0.15317254915E+04  0.18873438506E+04  0.90653860594E+03 0.  0.
         23    2    4    4    0    0  0.65202293133E+03  0.74817710890E+02  0.10723248631E+04  0.12606288281E+04  0.92589617438E+02 0.  0.
         23    2    4    4    0    0 -0.20282781451E+03  0.36369720545E+03  0.45940062840E+03  0.62671502249E+03  0.91148244361E+02 0.  0.
          3    1    3    3  502    0 -0.93622166821E+02 -0.11729111658E+03  0.99167021138E+02  0.17987888767E+03  0.00000000000E+00 0. -1.
         -4    1    3    3    0  502 -0.35557295000E+03 -0.32122379975E+03  0.18196946653E+03  0.51257169162E+03  0.00000000000E+00 0.  1.
         13    1    5    5    0    0  0.59585396444E+03  0.52491897251E+02  0.92698982320E+03  0.11032259417E+04  0.00000000000E+00 0.  1.
        -13    1    5    5    0    0  0.56168966894E+02  0.22325813639E+02  0.14533503994E+03  0.15740288635E+03  0.00000000000E+00 0. -1.
          3    1    6    6  503    0 -0.43085530478E+02  0.35751994852E+02  0.10012016681E+03  0.11471101026E+03  0.00000000000E+00 0. -1.
         -3    1    6    6    0  503 -0.15974228404E+03  0.32794521059E+03  0.35928046159E+03  0.51200401223E+03  0.00000000000E+00 0.  1.
<mgrwt>
<rscale>  0 0.18354484E+04</rscale>
<asrwt>0</asrwt>
<pdfrwt beam="1">  1        1 0.33789664E+00 0.18354484E+04</pdfrwt>
<pdfrwt beam="2">  1       -2 0.58994805E-01 0.18354484E+04</pdfrwt>
<totfact> 0.48604404E+00</totfact>
</mgrwt>
</event>
<event>
12    5  0.5041746E-008  0.2068033E+04  0.7818608E-02  0.8575457E-01
         -2   -1    0    0    0  501 -0.00000000000E+00  0.00000000000E+00  0.16553271577E+04  0.16553271577E+04  0.00000000000E+00 0.  1.
          1   -1    0    0  501    0  0.00000000000E+00 -0.00000000000E+00 -0.64590851529E+03  0.64590851529E+03  0.00000000000E+00 0. -1.
        -24    2    1    2    0    0 -0.31340505799E+03 -0.70820144582E+03  0.75787572593E+03  0.10865178956E+04  0.79834223474E+02 0.  0.
        254    2    1    2    0    0  0.31340505799E+03  0.70820144582E+03  0.25154291646E+03  0.12147177774E+04  0.90138416984E+03 0.  0.
         23    2    4    4    0    0  0.51555808798E+03  0.24235125251E+03  0.37019851673E+03  0.68539761782E+03  0.90491331330E+02 0.  0.
         23    2    4    4    0    0 -0.20215302999E+03  0.46585019331E+03 -0.11865560027E+03  0.52932015957E+03  0.90655555294E+02 0.  0.
          1    1    3    3  502    0 -0.16124190704E+02 -0.20031279373E+02  0.99249975292E+01  0.27563513113E+02  0.00000000000E+00 0. -1.
         -2    1    3    3    0  502 -0.29728086729E+03 -0.68817016645E+03  0.74795072840E+03  0.10589543825E+04  0.00000000000E+00 0.  1.
         13    1    5    5    0    0  0.14155389231E+03  0.81910111957E+02  0.15367821281E+03  0.22441872462E+03  0.00000000000E+00 0. -1.
        -13    1    5    5    0    0  0.37400419567E+03  0.16044114056E+03  0.21652030392E+03  0.46097889320E+03  0.00000000000E+00 0.  1.
          2    1    6    6  503    0 -0.20037517404E+03  0.38608854051E+03 -0.87682119135E+02  0.44373722574E+03  0.00000000000E+00 0.  1.
         -2    1    6    6    0  503 -0.17778559422E+01  0.79761652800E+02 -0.30973481140E+02  0.85582933831E+02  0.00000000000E+00 0. -1.
<mgrwt>
<rscale>  0 0.20680328E+04</rscale>
<asrwt>0</asrwt>
<pdfrwt beam="1">  1        1 0.99370541E-01 0.20680328E+04</pdfrwt>
<pdfrwt beam="2">  1       -2 0.25466572E+00 0.20680328E+04</pdfrwt>
<totfact> 0.14937060E+00</totfact>
</mgrwt>
</event>
<event>
12    5  0.5041746E-008  0.1936517E+04  0.7818608E-02  0.8636890E-01
          3   -1    0    0  501    0  0.00000000000E+00  0.00000000000E+00  0.70344118493E+03  0.70344118493E+03  0.00000000000E+00 0. -1.
         -4   -1    0    0    0  501 -0.00000000000E+00 -0.00000000000E+00 -0.13327691704E+04  0.13327691704E+04  0.00000000000E+00 0.  1.
        -24    2    1    2    0    0 -0.27676143993E+03 -0.10316732698E+03 -0.98629630969E+03  0.10326719234E+04  0.79940596163E+02 0.  0.
        254    2    1    2    0    0  0.27676143993E+03  0.10316732698E+03  0.35696832426E+03  0.10035384319E+04  0.89018122186E+03 0.  0.
         23    2    4    4    0    0 -0.15708386812E+03 -0.12569277203E+03 -0.16927073434E+03  0.27801932161E+03  0.90377802142E+02 0.  0.
         23    2    4    4    0    0  0.43384530805E+03  0.22886009901E+03  0.52623905860E+03  0.72551911027E+03  0.94083666720E+02 0.  0.
          3    1    3    3  502    0 -0.11210139778E+03 -0.13602256727E+02 -0.47084026481E+03  0.48419242016E+03  0.00000000000E+00 0. -1.
         -4    1    3    3    0  502 -0.16466004215E+03 -0.89565070257E+02 -0.51545604488E+03  0.54847950326E+03  0.00000000000E+00 0.  1.
         13    1    5    5    0    0 -0.13728111195E+03 -0.13972392611E+03 -0.14511336957E+03  0.24377606374E+03  0.00000000000E+00 0. -1.
        -13    1    5    5    0    0 -0.19802756168E+02  0.14031154079E+02 -0.24157364776E+02  0.34243257870E+02  0.00000000000E+00 0.  1.
          2    1    6    6  503    0  0.12631401898E+02  0.20336428170E+02  0.54881142987E+02  0.59875391274E+02  0.00000000000E+00 0.  1.
         -2    1    6    6    0  503  0.42121390615E+03  0.20852367084E+03  0.47135791561E+03  0.66564371900E+03  0.00000000000E+00 0. -1.
<mgrwt>
<rscale>  0 0.19365172E+04</rscale>
<asrwt>0</asrwt>
<pdfrwt beam="1">  1        3 0.10822172E+00 0.19365172E+04</pdfrwt>
<pdfrwt beam="2">  1       -4 0.20504141E+00 0.19365172E+04</pdfrwt>
<totfact> 0.18884819E-01</totfact>
</mgrwt>
</event>
<event>
12    5  0.5041746E-008  0.2315015E+04  0.7818608E-02  0.8472025E-01
         -2   -1    0    0    0  501 -0.00000000000E+00  0.00000000000E+00  0.17333415928E+04  0.17333415928E+04  0.00000000000E+00 0.  1.
          1   -1    0    0  501    0  0.00000000000E+00 -0.00000000000E+00 -0.77297117713E+03  0.77297117713E+03  0.00000000000E+00 0. -1.
        -24    2    1    2    0    0  0.97143208419E+03  0.95120774221E+02  0.29387021948E+03  0.10225647725E+04  0.80936717151E+02 0.  0.
        254    2    1    2    0    0 -0.97143208419E+03 -0.95120774221E+02  0.66650019615E+03  0.14837479974E+04  0.89697121047E+03 0.  0.
         23    2    4    4    0    0 -0.96520674568E+03  0.14067599956E+03  0.27490297771E+03  0.10172645216E+04  0.88553153588E+02 0.  0.
         23    2    4    4    0    0 -0.62253385113E+01 -0.23579677379E+03  0.39159721844E+03  0.46648347579E+03  0.92841684173E+02 0.  0.
          3    1    3    3  502    0  0.33853831370E+03  0.43633860282E+02  0.14182738317E+03  0.36963104608E+03  0.00000000000E+00 0. -1.
         -4    1    3    3    0  502  0.63289377049E+03  0.51486913939E+02  0.15204283631E+03  0.65293372642E+03  0.00000000000E+00 0.  1.
         13    1    5    5    0    0 -0.46216078065E+02  0.93645125595E+01  0.34170705775E+02  0.58234500945E+02  0.00000000000E+00 0.  1.
        -13    1    5    5    0    0 -0.91899066761E+03  0.13131148701E+03  0.24073227194E+03  0.95903002066E+03  0.00000000000E+00 0. -1.
          4    1    6    6  503    0  0.39540880869E+02 -0.82329087276E+02  0.11482777767E+03  0.14672074972E+03  0.00000000000E+00 0. -1.
         -4    1    6    6    0  503 -0.45766219381E+02 -0.15346768651E+03  0.27676944077E+03  0.31976272607E+03  0.00000000000E+00 0.  1.
<mgrwt>
<rscale>  0 0.23150145E+04</rscale>
<asrwt>0</asrwt>
<pdfrwt beam="1">  1        1 0.11891864E+00 0.23150145E+04</pdfrwt>
<pdfrwt beam="2">  1       -2 0.26666794E+00 0.23150145E+04</pdfrwt>
<totfact> 0.93868509E-01</totfact>
</mgrwt>
</event>
<event>
12    5  0.5041746E-008  0.1397167E+04  0.7818608E-02  0.8955872E-01
         -2   -1    0    0    0  501 -0.00000000000E+00  0.00000000000E+00  0.10269593764E+04  0.10269593764E+04  0.00000000000E+00 0.  1.
          1   -1    0    0  501    0  0.00000000000E+00 -0.00000000000E+00 -0.47520728910E+03  0.47520728910E+03  0.00000000000E+00 0. -1.
        -24    2    1    2    0    0  0.18717159979E+03 -0.16654707305E+03  0.49892306906E+03  0.56400489312E+03  0.80038461456E+02 0.  0.
        254    2    1    2    0    0 -0.18717159979E+03  0.16654707305E+03  0.52829018268E+02  0.93816177241E+03  0.90254388854E+03 0.  0.
         23    2    4    4    0    0 -0.30230634760E+03 -0.64933321509E+02 -0.33382664308E+03  0.46402465190E+03  0.90957055244E+02 0.  0.
         23    2    4    4    0    0  0.11513474781E+03  0.23148039456E+03  0.38665566135E+03  0.47413712051E+03  0.92001224868E+02 0.  0.
          3    1    3    3  502    0  0.30516777189E+01 -0.21300500537E+02  0.14933969629E+02  0.26192508641E+02  0.00000000000E+00 0. -1.
         -4    1    3    3    0  502  0.18411992207E+03 -0.14524657252E+03  0.48398909943E+03  0.53781238447E+03  0.00000000000E+00 0.  1.
         13    1    5    5    0    0 -0.43753494554E+02  0.10883655973E+02 -0.17160941384E+02  0.48242306767E+02  0.00000000000E+00 0. -1.
        -13    1    5    5    0    0 -0.25855285304E+03 -0.75816977482E+02 -0.31666570170E+03  0.41578234513E+03  0.00000000000E+00 0.  1.
          1    1    6    6  503    0  0.64220298551E+02  0.20902656239E+03  0.30300676833E+03  0.37367024525E+03  0.00000000000E+00 0. -1.
         -1    1    6    6    0  503  0.50914449258E+02  0.22453832173E+02  0.83648893022E+02  0.10046687527E+03  0.00000000000E+00 0.  1.
<mgrwt>
<rscale>  0 0.13971665E+04</rscale>
<asrwt>0</asrwt>
<pdfrwt beam="1">  1        1 0.73108814E-01 0.13971665E+04</pdfrwt>
<pdfrwt beam="2">  1       -2 0.15799375E+00 0.13971665E+04</pdfrwt>
<totfact> 0.10557150E+01</totfact>
</mgrwt>
</event>
<event>
12    5  0.5041746E-008  0.2405007E+04  0.7818608E-02  0.8437631E-01
         -2   -1    0    0    0  501 -0.00000000000E+00  0.00000000000E+00  0.42682348093E+03  0.42682348093E+03  0.00000000000E+00 0.  1.
          1   -1    0    0  501    0  0.00000000000E+00 -0.00000000000E+00 -0.33878526017E+04  0.33878526017E+04  0.00000000000E+00 0. -1.
        -24    2    1    2    0    0 -0.55467316710E+03 -0.50886953987E+03 -0.14964030452E+03  0.77148060365E+03  0.78610242065E+02 0.  0.
        254    2    1    2    0    0  0.55467316710E+03  0.50886953987E+03 -0.28113888163E+04  0.30431954790E+04  0.88911254421E+03 0.  0.
         23    2    4    4    0    0  0.62346911284E+03  0.65033836810E+03 -0.17917385772E+04  0.20075675705E+04  0.91360239682E+02 0.  0.
         23    2    4    4    0    0 -0.68795945738E+02 -0.14146882823E+03 -0.10196502391E+04  0.10356279085E+04  0.89956897071E+02 0.  0.
          1    1    3    3  502    0 -0.26936168625E+03 -0.25404848816E+03 -0.33892048000E+02  0.37181315640E+03  0.00000000000E+00 0. -1.
         -2    1    3    3    0  502 -0.28531148086E+03 -0.25482105171E+03 -0.11574825652E+03  0.39966744725E+03  0.00000000000E+00 0.  1.
         13    1    5    5    0    0  0.59630538753E+03  0.60082193055E+03 -0.16384022951E+04  0.18441608357E+04  0.00000000000E+00 0.  1.
        -13    1    5    5    0    0  0.27163725308E+02  0.49516437550E+02 -0.15333628213E+03  0.16340673480E+03  0.00000000000E+00 0. -1.
          3    1    6    6  503    0  0.95215383516E+01  0.19252525107E+01 -0.15648645438E+02  0.18418642563E+02  0.00000000000E+00 0. -1.
         -3    1    6    6    0  503 -0.78317484090E+02 -0.14339408074E+03 -0.10040015936E+04  0.10172092660E+04  0.00000000000E+00 0.  1.
<mgrwt>
<rscale>  0 0.24050073E+04</rscale>
<asrwt>0</asrwt>
<pdfrwt beam="1">  1        1 0.52120810E+00 0.24050073E+04</pdfrwt>
<pdfrwt beam="2">  1       -2 0.65665150E-01 0.24050073E+04</pdfrwt>
<totfact> 0.51480843E-01</totfact>
</mgrwt>
</event>
<event>
12    5  0.5041746E-008  0.1444520E+04  0.7818608E-02  0.8922209E-01
          1   -1    0    0  501    0  0.00000000000E+00  0.00000000000E+00  0.11457426862E+04  0.11457426862E+04  0.00000000000E+00 0. -1.
         -2   -1    0    0    0  501 -0.00000000000E+00 -0.00000000000E+00 -0.45530239459E+03  0.45530239459E+03  0.00000000000E+00 0.  1.
        -24    2    1    2    0    0 -0.14421280835E+03 -0.35587503853E+03 -0.20318101234E+02  0.39297752315E+03  0.81081017036E+02 0.  0.
        254    2    1    2    0    0  0.14421280835E+03  0.35587503853E+03  0.71075839286E+03  0.12080675577E+04  0.89822344309E+03 0.  0.
         23    2    4    4    0    0  0.22481130890E+03  0.23351729769E+03  0.89481376092E+03  0.95609848631E+03  0.91445042802E+02 0.  0.
         23    2    4    4    0    0 -0.80598500548E+02  0.12235774083E+03 -0.18405536807E+03  0.25196907135E+03  0.90246880132E+02 0.  0.
          1    1    3    3  502    0 -0.16719988996E+02 -0.21556160214E+02  0.18667638638E+02  0.33056116037E+02  0.00000000000E+00 0. -1.
         -2    1    3    3    0  502 -0.12749281936E+03 -0.33431887831E+03 -0.38985739872E+02  0.35992140711E+03  0.00000000000E+00 0.  1.
         13    1    5    5    0    0  0.18695099368E+03  0.20945549417E+03  0.83756765612E+03  0.88336960365E+03  0.00000000000E+00 0.  1.
        -13    1    5    5    0    0  0.37860315223E+02  0.24061803525E+02  0.57246104803E+02  0.72728882658E+02  0.00000000000E+00 0. -1.
          1    1    6    6  503    0 -0.63744959158E+02  0.97135600385E+02 -0.73857776552E+02  0.13767249485E+03  0.00000000000E+00 0.  1.
         -1    1    6    6    0  503 -0.16853541390E+02  0.25222140448E+02 -0.11019759151E+03  0.11429657651E+03  0.00000000000E+00 0. -1.
<mgrwt>
<rscale>  0 0.14445198E+04</rscale>
<asrwt>0</asrwt>
<pdfrwt beam="1">  1        1 0.17626810E+00 0.14445198E+04</pdfrwt>
<pdfrwt beam="2">  1       -2 0.70046522E-01 0.14445198E+04</pdfrwt>
<totfact> 0.18533595E+01</totfact>
</mgrwt>
</event>
<event>
12    5  0.5041746E-008  0.1301606E+04  0.7818608E-02  0.9028292E-01
         -2   -1    0    0    0  501 -0.00000000000E+00  0.00000000000E+00  0.48602137317E+03  0.48602137317E+03  0.00000000000E+00 0.  1.
          1   -1    0    0  501    0  0.00000000000E+00 -0.00000000000E+00 -0.87145283968E+03  0.87145283968E+03  0.00000000000E+00 0. -1.
        -24    2    1    2    0    0  0.11314386747E+03  0.22710691067E+03  0.11764183705E+03  0.29104398999E+03  0.80547617392E+02 0.  0.
        254    2    1    2    0    0 -0.11314386747E+03 -0.22710691067E+03 -0.50307330356E+03  0.10664302229E+04  0.90543447463E+03 0.  0.
         23    2    4    4    0    0 -0.41993801385E+03 -0.38783421340E+03 -0.26588913880E+03  0.63698864016E+03  0.91072394290E+02 0.  0.
         23    2    4    4    0    0  0.30679414638E+03  0.16072730273E+03 -0.23718416476E+03  0.42944158269E+03  0.90597079647E+02 0.  0.
          3    1    3    3  502    0 -0.15394706979E+01 -0.26419910911E+01  0.13676224517E+02  0.14013893249E+02  0.00000000000E+00 0. -1.
         -4    1    3    3    0  502  0.11468333817E+03  0.22974890176E+03  0.10396561253E+03  0.27703009674E+03  0.00000000000E+00 0.  1.
         13    1    5    5    0    0 -0.35318546676E+03 -0.35457709195E+03 -0.20544732905E+03  0.54099306195E+03  0.00000000000E+00 0. -1.
        -13    1    5    5    0    0 -0.66752547091E+02 -0.33257121456E+02 -0.60441809750E+02  0.95995578213E+02  0.00000000000E+00 0.  1.
          2    1    6    6  503    0  0.67122988779E+02  0.23668705889E+02 -0.95533562139E+02  0.11913171180E+03  0.00000000000E+00 0. -1.
         -2    1    6    6    0  503  0.23967115760E+03  0.13705859685E+03 -0.14165060262E+03  0.31030987090E+03  0.00000000000E+00 0.  1.
<mgrwt>
<rscale>  0 0.13016062E+04</rscale>
<asrwt>0</asrwt>
<pdfrwt beam="1">  1        1 0.13406967E+00 0.13016062E+04</pdfrwt>
<pdfrwt beam="2">  1       -2 0.74772520E-01 0.13016062E+04</pdfrwt>
<totfact> 0.26596794E+01</totfact>
</mgrwt>
</event>
<event>
12    5  0.5041746E-008  0.1504645E+04  0.7818608E-02  0.8881370E-01
         -2   -1    0    0    0  501 -0.00000000000E+00  0.00000000000E+00  0.10920237155E+04  0.10920237155E+04  0.00000000000E+00 0.  1.
          1   -1    0    0  501    0  0.00000000000E+00 -0.00000000000E+00 -0.51829377235E+03  0.51829377235E+03  0.00000000000E+00 0. -1.
        -24    2    1    2    0    0  0.84438316331E+02 -0.25944234559E+03  0.62875632698E+03  0.69016999700E+03  0.80993494097E+02 0.  0.
        254    2    1    2    0    0 -0.84438316331E+02  0.25944234559E+03 -0.55026383844E+02  0.92014749084E+03  0.87704238326E+03 0.  0.
         23    2    4    4    0    0  0.18431531800E+03 -0.21744897415E+03  0.14093232173E+03  0.33157679056E+03  0.93941768787E+02 0.  0.
         23    2    4    4    0    0 -0.26875363434E+03  0.47689131974E+03 -0.19595870558E+03  0.58857070027E+03  0.91442922737E+02 0.  0.
          3    1    3    3  502    0  0.52673785525E+02 -0.19181878867E+03  0.36090410749E+03  0.41209313289E+03  0.00000000000E+00 0. -1.
         -4    1    3    3    0  502  0.31764530806E+02 -0.67623556922E+02  0.26785221949E+03  0.27807686411E+03  0.00000000000E+00 0.  1.
         13    1    5    5    0    0  0.86741377790E+02 -0.62489665717E+02  0.11909419692E+02  0.10756792840E+03  0.00000000000E+00 0.  1.
        -13    1    5    5    0    0  0.97573940215E+02 -0.15495930843E+03  0.12902290204E+03  0.22400886217E+03  0.00000000000E+00 0. -1.
          2    1    6    6  503    0 -0.13877894765E+03  0.33402683688E+03 -0.13404652650E+03  0.38574861676E+03  0.00000000000E+00 0. -1.
         -2    1    6    6    0  503 -0.12997468669E+03  0.14286448286E+03 -0.61912179073E+02  0.20282208351E+03  0.00000000000E+00 0.  1.
<mgrwt>
<rscale>  0 0.15046449E+04</rscale>
<asrwt>0</asrwt>
<pdfrwt beam="1">  1        1 0.79737504E-01 0.15046449E+04</pdfrwt>
<pdfrwt beam="2">  1       -2 0.16800365E+00 0.15046449E+04</pdfrwt>
<totfact> 0.78475277E+00</totfact>
</mgrwt>
</event>
<event>
12    5  0.5041746E-008  0.1749064E+04  0.7818608E-02  0.8733866E-01
         -2   -1    0    0    0  501 -0.00000000000E+00  0.00000000000E+00  0.54611763265E+03  0.54611763265E+03  0.00000000000E+00 0.  1.
          1   -1    0    0  501    0  0.00000000000E+00 -0.00000000000E+00 -0.14004425207E+04  0.14004425207E+04  0.00000000000E+00 0. -1.
        -24    2    1    2    0    0  0.37437804060E+03 -0.50877132295E+03 -0.40147686335E+03  0.75253351351E+03  0.78203841393E+02 0.  0.
        254    2    1    2    0    0 -0.37437804060E+03  0.50877132295E+03 -0.45284802473E+03  0.11940266399E+04  0.90643317839E+03 0.  0.
         23    2    4    4    0    0  0.14707479893E+03  0.52718061791E+03 -0.34208971595E+03  0.65263472152E+03  0.96727998056E+02 0.  0.
         23    2    4    4    0    0 -0.52145283953E+03 -0.18409294951E+02 -0.11075830879E+03  0.54139191835E+03  0.92659809524E+02 0.  0.
          3    1    3    3  502    0  0.26347526733E+03 -0.29920353480E+03 -0.26887115153E+03  0.48086761989E+03  0.00000000000E+00 0. -1.
         -4    1    3    3    0  502  0.11090277326E+03 -0.20956778815E+03 -0.13260571182E+03  0.27166589362E+03  0.00000000000E+00 0.  1.
         13    1    5    5    0    0  0.84511918824E+02  0.27343773544E+03 -0.23454703826E+03  0.37003077270E+03  0.00000000000E+00 0.  1.
        -13    1    5    5    0    0  0.62562880105E+02  0.25374288246E+03 -0.10754267768E+03  0.28260394882E+03  0.00000000000E+00 0. -1.
          1    1    6    6  503    0 -0.45453921528E+03 -0.98931195692E+00 -0.12364508506E+03  0.47105730439E+03  0.00000000000E+00 0. -1.
         -1    1    6    6    0  503 -0.66913624252E+02 -0.17419982994E+02  0.12886776279E+02  0.70334613960E+02  0.00000000000E+00 0.  1.
<mgrwt>
<rscale>  0 0.17490642E+04</rscale>
<asrwt>0</asrwt>
<pdfrwt beam="1">  1        1 0.21545269E+00 0.17490642E+04</pdfrwt>
<pdfrwt beam="2">  1       -2 0.84018099E-01 0.17490642E+04</pdfrwt>
<totfact> 0.78982615E+00</totfact>
</mgrwt>
</event>
<event>
12    5  0.5041746E-008  0.1277111E+04  0.7818608E-02  0.9047916E-01
         -2   -1    0    0    0  501 -0.00000000000E+00  0.00000000000E+00  0.15792241363E+03  0.15792241363E+03  0.00000000000E+00 0.  1.
          1   -1    0    0  501    0  0.00000000000E+00 -0.00000000000E+00 -0.25819854551E+04  0.25819854551E+04  0.00000000000E+00 0. -1.
        -24    2    1    2    0    0 -0.23071423607E+03 -0.19793712034E+03 -0.75756010466E+03  0.82004964018E+03  0.78587135391E+02 0.  0.
        254    2    1    2    0    0  0.23071423607E+03  0.19793712034E+03 -0.16665029368E+04  0.19198582286E+04  0.90344641073E+03 0.  0.
         23    2    4    4    0    0  0.48317947414E+03  0.37741234404E+03 -0.12020295362E+04  0.13526569069E+04  0.94356877933E+02 0.  0.
         23    2    4    4    0    0 -0.25246523807E+03 -0.17947522370E+03 -0.46447340068E+03  0.56720132165E+03  0.10015860915E+03 0.  0.
          3    1    3    3  502    0 -0.71276427169E+02 -0.74561828240E+02 -0.35723291787E+03  0.37182677810E+03  0.00000000000E+00 0. -1.
         -4    1    3    3    0  502 -0.15943780890E+03 -0.12337529210E+03 -0.40032718679E+03  0.44822286208E+03  0.00000000000E+00 0.  1.
         13    1    5    5    0    0  0.47470893562E+03  0.35872370742E+03 -0.11849975792E+04  0.13259903976E+04  0.00000000000E+00 0.  1.
        -13    1    5    5    0    0  0.84705385255E+01  0.18688636624E+02 -0.17031956923E+02  0.26666509303E+02  0.00000000000E+00 0. -1.
          1    1    6    6  503    0 -0.20011783150E+03 -0.12903213242E+03 -0.41756708555E+03  0.48068566508E+03  0.00000000000E+00 0. -1.
         -1    1    6    6    0  503 -0.52347406570E+02 -0.50443091280E+02 -0.46906315131E+02  0.86515656570E+02  0.00000000000E+00 0.  1.
<mgrwt>
<rscale>  0 0.12771114E+04</rscale>
<asrwt>0</asrwt>
<pdfrwt beam="1">  1        1 0.39722852E+00 0.12771114E+04</pdfrwt>
<pdfrwt beam="2">  1       -2 0.24295757E-01 0.12771114E+04</pdfrwt>
<totfact> 0.15596893E+01</totfact>
</mgrwt>
</event>
<event>
12    5  0.5041746E-008  0.2036659E+04  0.7818608E-02  0.8589670E-01
          1   -1    0    0  501    0  0.00000000000E+00  0.00000000000E+00  0.97603959182E+03  0.97603959182E+03  0.00000000000E+00 0. -1.
         -2   -1    0    0    0  501 -0.00000000000E+00 -0.00000000000E+00 -0.10624522270E+04  0.10624522270E+04  0.00000000000E+00 0.  1.
        -24    2    1    2    0    0  0.56790568838E+03 -0.29968398560E+01  0.55226612474E+03  0.79708011800E+03  0.88391119661E+02 0.  0.
        254    2    1    2    0    0 -0.56790568838E+03  0.29968398560E+01 -0.63867875995E+03  0.12414117009E+04  0.90037025754E+03 0.  0.
         23    2    4    4    0    0  0.16649473586E+03  0.82660070632E+02 -0.41476202550E+03  0.46395909915E+03  0.93152152644E+02 0.  0.
         23    2    4    4    0    0 -0.73440042424E+03 -0.79663230776E+02 -0.22391673445E+03  0.77745260171E+03  0.92755757046E+02 0.  0.
          3    1    3    3  502    0  0.46457402720E+03 -0.24474010708E+02  0.48431402118E+03  0.67155645710E+03  0.00000000000E+00 0. -1.
         -4    1    3    3    0  502  0.10333166118E+03  0.21477170852E+02  0.67952103555E+02  0.12552366091E+03  0.00000000000E+00 0.  1.
         13    1    5    5    0    0  0.15903781653E+03  0.92582738885E+02 -0.32616861777E+03  0.37450041101E+03  0.00000000000E+00 0.  1.
        -13    1    5    5    0    0  0.74569193273E+01 -0.99226682535E+01 -0.88593407729E+02  0.89458688142E+02  0.00000000000E+00 0. -1.
          1    1    6    6  503    0 -0.26251323500E+03 -0.87405364607E+01 -0.38302394911E+02  0.26543675138E+03  0.00000000000E+00 0. -1.
         -1    1    6    6    0  503 -0.47188718925E+03 -0.70922694315E+02 -0.18561433954E+03  0.51201585033E+03  0.00000000000E+00 0.  1.
<mgrwt>
<rscale>  0 0.20366595E+04</rscale>
<asrwt>0</asrwt>
<pdfrwt beam="1">  1        1 0.15015994E+00 0.20366595E+04</pdfrwt>
<pdfrwt beam="2">  1       -2 0.16345419E+00 0.20366595E+04</pdfrwt>
<totfact> 0.30430608E+00</totfact>
</mgrwt>
</event>
<event>
12    5  0.5041746E-008  0.1677621E+04  0.7818608E-02  0.8774232E-01
         -2   -1    0    0    0  501 -0.00000000000E+00  0.00000000000E+00  0.48055686572E+03  0.48055686572E+03  0.00000000000E+00 0.  1.
          1   -1    0    0  501    0  0.00000000000E+00 -0.00000000000E+00 -0.14641409311E+04  0.14641409311E+04  0.00000000000E+00 0. -1.
        -24    2    1    2    0    0 -0.38494475237E+03 -0.30571991903E+03 -0.76006659443E+03  0.90870840543E+03  0.80016291265E+02 0.  0.
        254    2    1    2    0    0  0.38494475237E+03  0.30571991903E+03 -0.22351747095E+03  0.10359893914E+04  0.88411923856E+03 0.  0.
         23    2    4    4    0    0  0.21254988714E+03  0.98550670584E+02  0.32957980177E+03  0.41433827561E+03  0.90353039280E+02 0.  0.
         23    2    4    4    0    0  0.17239486523E+03  0.20716924845E+03 -0.55309727272E+03  0.62165111579E+03  0.88850602757E+02 0.  0.
          3    1    3    3  502    0 -0.38359821018E+03 -0.30689939410E+03 -0.76163814283E+03  0.90632636813E+03  0.00000000000E+00 0. -1.
         -4    1    3    3    0  502 -0.13465421906E+01  0.11794750687E+01  0.15715484057E+01  0.23820373003E+01  0.00000000000E+00 0.  1.
         13    1    5    5    0    0  0.11867695536E+03  0.10038497006E+03  0.18106277886E+03  0.23863170753E+03  0.00000000000E+00 0. -1.
        -13    1    5    5    0    0  0.93872931778E+02 -0.18342994757E+01  0.14851702290E+03  0.17570656808E+03  0.00000000000E+00 0.  1.
          1    1    6    6  503    0  0.16560670470E+03  0.21003787788E+03 -0.55299149585E+03  0.61428094979E+03  0.00000000000E+00 0. -1.
         -1    1    6    6    0  503  0.67881605284E+01 -0.28686294268E+01 -0.10577686647E+00  0.73701660018E+01  0.00000000000E+00 0.  1.
<mgrwt>
<rscale>  0 0.16776209E+04</rscale>
<asrwt>0</asrwt>
<pdfrwt beam="1">  1        1 0.22525245E+00 0.16776209E+04</pdfrwt>
<pdfrwt beam="2">  1       -2 0.73931827E-01 0.16776209E+04</pdfrwt>
<totfact> 0.95539457E+00</totfact>
</mgrwt>
</event>
<event>
12    5  0.5041746E-008  0.1439505E+04  0.7818608E-02  0.8925709E-01
         -2   -1    0    0    0  501 -0.00000000000E+00  0.00000000000E+00  0.12095686090E+04  0.12095686090E+04  0.00000000000E+00 0.  1.
          1   -1    0    0  501    0  0.00000000000E+00 -0.00000000000E+00 -0.42828780919E+03  0.42828780919E+03  0.00000000000E+00 0. -1.
        -24    2    1    2    0    0  0.16142561998E+03 -0.20303443316E+03 -0.15195698824E+03  0.31111862718E+03  0.80141512773E+02 0.  0.
        254    2    1    2    0    0 -0.16142561998E+03  0.20303443316E+03  0.93323778803E+03  0.13267377910E+04  0.90665273682E+03 0.  0.
         23    2    4    4    0    0  0.16266813716E+03 -0.28544150074E+03  0.25993657403E+03  0.42872942280E+03  0.91126956839E+02 0.  0.
         23    2    4    4    0    0 -0.32409375714E+03  0.48847593390E+03  0.67330121400E+03  0.89800836819E+03  0.97154532271E+02 0.  0.
          3    1    3    3  502    0  0.10257904184E+03 -0.17822998224E+03 -0.13137089691E+03  0.24402192309E+03  0.00000000000E+00 0. -1.
         -4    1    3    3    0  502  0.58846578132E+02 -0.24804450924E+02 -0.20586091334E+02  0.67096704091E+02  0.00000000000E+00 0.  1.
         13    1    5    5    0    0  0.44660212514E+02 -0.21713654185E+02  0.57317767557E+02  0.75837614925E+02  0.00000000000E+00 0. -1.
        -13    1    5    5    0    0  0.11800792465E+03 -0.26372784655E+03  0.20261880647E+03  0.35289180787E+03  0.00000000000E+00 0.  1.
          2    1    6    6  503    0 -0.43466693827E+02  0.70951780965E+02  0.50208806247E+02  0.97182472284E+02  0.00000000000E+00 0. -1.
         -2    1    6    6    0  503 -0.28062706331E+03  0.41752415293E+03  0.62309240776E+03  0.80082589590E+03  0.00000000000E+00 0.  1.
<mgrwt>
<rscale>  0 0.14395048E+04</rscale>
<asrwt>0</asrwt>
<pdfrwt beam="1">  1        1 0.65890433E-01 0.14395048E+04</pdfrwt>
<pdfrwt beam="2">  1       -2 0.18608748E+00 0.14395048E+04</pdfrwt>
<totfact> 0.76538882E+00</totfact>
</mgrwt>
</event>
<event>
12    5  0.5041746E-008  0.1530848E+04  0.7818608E-02  0.8864195E-01
         -2   -1    0    0    0  501 -0.00000000000E+00  0.00000000000E+00  0.39037594383E+03  0.39037594383E+03  0.00000000000E+00 0.  1.
          1   -1    0    0  501    0  0.00000000000E+00 -0.00000000000E+00 -0.15007937927E+04  0.15007937927E+04  0.00000000000E+00 0. -1.
        -24    2    1    2    0    0 -0.38062941059E+03 -0.32152260706E+03 -0.31254200896E+03  0.59356088905E+03  0.79852905971E+02 0.  0.
        254    2    1    2    0    0  0.38062941059E+03  0.32152260706E+03 -0.79787583994E+03  0.12976088475E+04  0.89382734917E+03 0.  0.
         23    2    4    4    0    0  0.33781534086E+03  0.92875976047E+02  0.90447285224E+02  0.37436047770E+03  0.96020333328E+02 0.  0.
         23    2    4    4    0    0  0.42814069736E+02  0.22864663101E+03 -0.88832312516E+03  0.92324836982E+03  0.95693527642E+02 0.  0.
          1    1    3    3  502    0 -0.59596992837E+02 -0.29067331263E+02 -0.68847685844E+02  0.95586166091E+02  0.00000000000E+00 0. -1.
         -2    1    3    3    0  502 -0.32103241775E+03 -0.29245527579E+03 -0.24369432311E+03  0.49797472296E+03  0.00000000000E+00 0.  1.
         13    1    5    5    0    0  0.93839213753E+02  0.52351960282E+01  0.64148199937E+02  0.11379014399E+03  0.00000000000E+00 0. -1.
        -13    1    5    5    0    0  0.24397612710E+03  0.87640780019E+02  0.26299085287E+02  0.26057033370E+03  0.00000000000E+00 0.  1.
          2    1    6    6  503    0  0.60631179228E+01  0.21037661789E+03 -0.73813866291E+03  0.76755701316E+03  0.00000000000E+00 0. -1.
         -2    1    6    6    0  503  0.36750951813E+02  0.18270013116E+02 -0.15018446225E+03  0.15569135666E+03  0.00000000000E+00 0.  1.
<mgrwt>
<rscale>  0 0.15308479E+04</rscale>
<asrwt>0</asrwt>
<pdfrwt beam="1">  1        1 0.23089135E+00 0.15308479E+04</pdfrwt>
<pdfrwt beam="2">  1       -2 0.60057838E-01 0.15308479E+04</pdfrwt>
<totfact> 0.14297643E+01</totfact>
</mgrwt>
</event>
<event>
12    5  0.5041746E-008  0.1432479E+04  0.7818608E-02  0.8930638E-01
         -2   -1    0    0    0  501 -0.00000000000E+00  0.00000000000E+00  0.72012436126E+03  0.72012436126E+03  0.00000000000E+00 0.  1.
          1   -1    0    0  501    0  0.00000000000E+00 -0.00000000000E+00 -0.71237566225E+03  0.71237566225E+03  0.00000000000E+00 0. -1.
        -24    2    1    2    0    0 -0.13340535252E+03 -0.34576819870E+03  0.21178629163E+03  0.43533968057E+03  0.85525252688E+02 0.  0.
        254    2    1    2    0    0  0.13340535252E+03  0.34576819870E+03 -0.20403759262E+03  0.99716034294E+03  0.90296443729E+03 0.  0.
         23    2    4    4    0    0 -0.50029768556E+02  0.44559349476E+03 -0.46273600095E+03  0.65080945440E+03  0.91497535714E+02 0.  0.
         23    2    4    4    0    0  0.18343512108E+03 -0.99825296064E+02  0.25869840833E+03  0.34635088854E+03  0.97059456735E+02 0.  0.
          1    1    3    3  502    0  0.10124286568E+02 -0.30162286895E+02  0.30590785655E+02  0.44136842844E+02  0.00000000000E+00 0. -1.
         -2    1    3    3    0  502 -0.14352963909E+03 -0.31560591180E+03  0.18119550597E+03  0.39120283773E+03  0.00000000000E+00 0.  1.
         13    1    5    5    0    0 -0.28355112061E+02  0.12007935224E+03 -0.18496513867E+03  0.22234020270E+03  0.00000000000E+00 0. -1.
        -13    1    5    5    0    0 -0.21674656495E+02  0.32551414253E+03 -0.27777086228E+03  0.42846925170E+03  0.00000000000E+00 0.  1.
          2    1    6    6  503    0  0.26979206190E+02  0.19602568354E+02  0.33734322814E+02  0.47435670001E+02  0.00000000000E+00 0. -1.
         -2    1    6    6    0  503  0.15645591489E+03 -0.11942786442E+03  0.22496408551E+03  0.29891521854E+03  0.00000000000E+00 0.  1.
<mgrwt>
<rscale>  0 0.14324791E+04</rscale>
<asrwt>0</asrwt>
<pdfrwt beam="1">  1        1 0.10959626E+00 0.14324791E+04</pdfrwt>
<pdfrwt beam="2">  1       -2 0.11078836E+00 0.14324791E+04</pdfrwt>
<totfact> 0.14585677E+01</totfact>
</mgrwt>
</event>
<event>
12    5  0.5041746E-008  0.2369618E+04  0.7818608E-02  0.8450967E-01
          1   -1    0    0  501    0  0.00000000000E+00  0.00000000000E+00  0.44915461525E+03  0.44915461525E+03  0.00000000000E+00 0. -1.
         -2   -1    0    0    0  501 -0.00000000000E+00 -0.00000000000E+00 -0.31253645797E+04  0.31253645797E+04  0.00000000000E+00 0.  1.
        -24    2    1    2    0    0 -0.66489560208E+03 -0.55620123553E+03 -0.19244713553E+04  0.21122178983E+04  0.80177779325E+02 0.  0.
        254    2    1    2    0    0  0.66489560208E+03  0.55620123553E+03 -0.75173860915E+03  0.14623012967E+04  0.90651429649E+03 0.  0.
         23    2    4    4    0    0  0.66973122785E+03  0.26362831590E+03 -0.87129012506E+03  0.11333666494E+04  0.85636869315E+02 0.  0.
         23    2    4    4    0    0 -0.48356257735E+01  0.29257291964E+03  0.11955151591E+03  0.32893464731E+03  0.91011761140E+02 0.  0.
          1    1    3    3  502    0 -0.21334828081E+02 -0.26558423098E+01 -0.54774760790E+02  0.58843035333E+02  0.00000000000E+00 0. -1.
         -2    1    3    3    0  502 -0.64356077400E+03 -0.55354539322E+03 -0.18696965945E+04  0.20533748630E+04  0.00000000000E+00 0.  1.
         13    1    5    5    0    0  0.62115851169E+02  0.15001361646E+02 -0.45692847833E+02  0.78557343137E+02  0.00000000000E+00 0.  1.
        -13    1    5    5    0    0  0.60761537668E+03  0.24862695425E+03 -0.82559727722E+03  0.10548093062E+04  0.00000000000E+00 0. -1.
          1    1    6    6  503    0 -0.28049842952E+02  0.79873725698E+02  0.68670589683E+02  0.10900575964E+03  0.00000000000E+00 0. -1.
         -1    1    6    6    0  503  0.23214217179E+02  0.21269919394E+03  0.50880926227E+02  0.21992888768E+03  0.00000000000E+00 0.  1.
<mgrwt>
<rscale>  0 0.23696176E+04</rscale>
<asrwt>0</asrwt>
<pdfrwt beam="1">  1        1 0.69100710E-01 0.23696176E+04</pdfrwt>
<pdfrwt beam="2">  1       -2 0.48082532E+00 0.23696176E+04</pdfrwt>
<totfact> 0.87912357E-02</totfact>
</mgrwt>
</event>
<event>
12    5  0.5041746E-008  0.1081946E+04  0.7818608E-02  0.9222970E-01
         -2   -1    0    0    0  501 -0.00000000000E+00  0.00000000000E+00  0.23617486218E+03  0.23617486218E+03  0.00000000000E+00 0.  1.
          1   -1    0    0  501    0  0.00000000000E+00 -0.00000000000E+00 -0.12391309793E+04  0.12391309793E+04  0.00000000000E+00 0. -1.
        -24    2    1    2    0    0  0.82033291474E+02  0.11334342847E+03 -0.12483893278E+03  0.20469846972E+03  0.82100613158E+02 0.  0.
        254    2    1    2    0    0 -0.82033291474E+02 -0.11334342847E+03 -0.87811718437E+03  0.12706073718E+04  0.90762167784E+03 0.  0.
         23    2    4    4    0    0  0.13862901226E+03  0.16682407677E+02  0.13965075735E+03  0.21774187125E+03  0.91721767878E+02 0.  0.
         23    2    4    4    0    0 -0.22066230374E+03 -0.13002583614E+03 -0.10177679417E+04  0.10528655005E+04  0.84116637456E+02 0.  0.
          3    1    3    3  502    0  0.78224645614E+02  0.87872256309E+02 -0.13311030558E+03  0.17764847892E+03  0.00000000000E+00 0. -1.
         -4    1    3    3    0  502  0.38086458599E+01  0.25471172157E+02  0.82713727992E+01  0.27049990801E+02  0.00000000000E+00 0.  1.
         13    1    5    5    0    0  0.92610302844E+02  0.49070308343E+02  0.11700722223E+03  0.15708358733E+03  0.00000000000E+00 0.  1.
        -13    1    5    5    0    0  0.46018709419E+02 -0.32387900666E+02  0.22643535113E+02  0.60658283924E+02  0.00000000000E+00 0. -1.
          4    1    6    6  503    0 -0.13570717901E+03 -0.35446018182E+02 -0.46659432087E+03  0.48721978501E+03  0.00000000000E+00 0. -1.
         -4    1    6    6    0  503 -0.84955124728E+02 -0.94579817961E+02 -0.55117362085E+03  0.56564571553E+03  0.00000000000E+00 0.  1.
<mgrwt>
<rscale>  0 0.10819456E+04</rscale>
<asrwt>0</asrwt>
<pdfrwt beam="1">  1        1 0.19063554E+00 0.10819456E+04</pdfrwt>
<pdfrwt beam="2">  1       -2 0.36334594E-01 0.10819456E+04</pdfrwt>
<totfact> 0.62394557E+01</totfact>
</mgrwt>
</event>
<event>
12    5  0.5041746E-008  0.1981629E+04  0.7818608E-02  0.8615258E-01
          1   -1    0    0  501    0  0.00000000000E+00  0.00000000000E+00  0.10432918409E+04  0.10432918409E+04  0.00000000000E+00 0. -1.
         -2   -1    0    0    0  501 -0.00000000000E+00 -0.00000000000E+00 -0.94097711048E+03  0.94097711048E+03  0.00000000000E+00 0.  1.
        -24    2    1    2    0    0  0.62001495125E+03  0.28908717051E+03  0.42062213999E+03  0.80706877566E+03  0.80293786006E+02 0.  0.
        254    2    1    2    0    0 -0.62001495125E+03 -0.28908717051E+03 -0.31830740952E+03  0.11772001758E+04  0.90359875772E+03 0.  0.
         23    2    4    4    0    0 -0.75406650663E+03  0.24633128903E+01 -0.74813178214E+02  0.76302592239E+03  0.89382225704E+02 0.  0.
         23    2    4    4    0    0  0.13405155538E+03 -0.29155048340E+03 -0.24349423131E+03  0.41417425338E+03  0.96329474253E+02 0.  0.
          1    1    3    3  502    0  0.17054040359E+03  0.57465408795E+02  0.14549993163E+03  0.23142284366E+03  0.00000000000E+00 0. -1.
         -2    1    3    3    0  502  0.44947454767E+03  0.23162176171E+03  0.27512220836E+03  0.57564593200E+03  0.00000000000E+00 0.  1.
         13    1    5    5    0    0 -0.24305346291E+03  0.76323754719E+01  0.17153416494E+02  0.24377751883E+03  0.00000000000E+00 0. -1.
        -13    1    5    5    0    0 -0.51101304372E+03 -0.51690625816E+01 -0.91966594708E+02  0.51924840357E+03  0.00000000000E+00 0.  1.
          1    1    6    6  503    0  0.25237487561E+02 -0.14937646549E+03 -0.14561927271E+03  0.21013146314E+03  0.00000000000E+00 0. -1.
         -1    1    6    6    0  503  0.10881406782E+03 -0.14217401791E+03 -0.97874958606E+02  0.20404279024E+03  0.00000000000E+00 0.  1.
<mgrwt>
<rscale>  0 0.19816294E+04</rscale>
<asrwt>0</asrwt>
<pdfrwt beam="1">  1        1 0.16050644E+00 0.19816294E+04</pdfrwt>
<pdfrwt beam="2">  1       -2 0.14476571E+00 0.19816294E+04</pdfrwt>
<totfact> 0.37539558E+00</totfact>
</mgrwt>
</event>
<event>
12    5  0.6240713E-008  0.1659682E+04  0.7818608E-02  0.8784699E-01
         -4   -1    0    0    0  501 -0.00000000000E+00  0.00000000000E+00  0.80003388698E+03  0.80003388698E+03  0.00000000000E+00 0.  1.
          3   -1    0    0  501    0  0.00000000000E+00 -0.00000000000E+00 -0.86075868180E+03  0.86075868180E+03  0.00000000000E+00 0. -1.
        -24    2    1    2    0    0 -0.43853043595E+03  0.11912245042E+03 -0.38203211962E+03  0.59899756868E+03  0.79689682006E+02 0.  0.
        254    2    1    2    0    0  0.43853043595E+03 -0.11912245042E+03  0.32130732480E+03  0.10617950001E+04  0.90425169274E+03 0.  0.
         23    2    4    4    0    0  0.49481788288E+03 -0.33516475616E+03 -0.62952885301E+02  0.60832181163E+03  0.94404500657E+02 0.  0.
         23    2    4    4    0    0 -0.56287446929E+02  0.21604230574E+03  0.38426021010E+03  0.45347318848E+03  0.90219006037E+02 0.  0.
          1    1    3    3  502    0 -0.41274494540E+03  0.10649034150E+03 -0.37852643308E+03  0.57007091079E+03  0.00000000000E+00 0. -1.
         -2    1    3    3    0  502 -0.25785490552E+02  0.12632108916E+02 -0.35056865320E+01  0.28926657890E+02  0.00000000000E+00 0.  1.
         13    1    5    5    0    0  0.39920794030E+03 -0.25952762099E+03 -0.87070373563E+02  0.48404836081E+03  0.00000000000E+00 0.  1.
        -13    1    5    5    0    0  0.95609942582E+02 -0.75637135169E+02  0.24117488261E+02  0.12427345081E+03  0.00000000000E+00 0. -1.
          4    1    6    6  503    0 -0.30851608475E+02  0.17896283457E+03  0.35793432120E+03  0.40136828001E+03  0.00000000000E+00 0.  1.
         -4    1    6    6    0  503 -0.25435838454E+02  0.37079471175E+02  0.26325888898E+02  0.52104908470E+02  0.00000000000E+00 0. -1.
<mgrwt>
<rscale>  0 0.16596820E+04</rscale>
<asrwt>0</asrwt>
<pdfrwt beam="1">  1        3 0.13242441E+00 0.16596820E+04</pdfrwt>
<pdfrwt beam="2">  1       -4 0.12308214E+00 0.16596820E+04</pdfrwt>
<totfact> 0.48231867E-01</totfact>
</mgrwt>
</event>
<event>
12    5  0.5041746E-008  0.1140207E+04  0.7818608E-02  0.9166865E-01
         -2   -1    0    0    0  501 -0.00000000000E+00  0.00000000000E+00  0.10798917155E+03  0.10798917155E+03  0.00000000000E+00 0.  1.
          1   -1    0    0  501    0  0.00000000000E+00 -0.00000000000E+00 -0.30097297902E+04  0.30097297902E+04  0.00000000000E+00 0. -1.
        -24    2    1    2    0    0  0.48647961441E+02  0.18525682973E+03 -0.72423037538E+03  0.75460088830E+03  0.90698108472E+02 0.  0.
        254    2    1    2    0    0 -0.48647961441E+02 -0.18525682973E+03 -0.21775102433E+04  0.23631180735E+04  0.89782484508E+03 0.  0.
         23    2    4    4    0    0 -0.40148353827E+03 -0.32890358618E+03 -0.12349587868E+04  0.13425838161E+04  0.89674398389E+02 0.  0.
         23    2    4    4    0    0  0.35283557683E+03  0.14364675645E+03 -0.94255145649E+03  0.10205342574E+04  0.89216519677E+02 0.  0.
          1    1    3    3  502    0  0.21799187275E+02  0.17629382796E+03 -0.67324311815E+03  0.69628371694E+03  0.00000000000E+00 0. -1.
         -2    1    3    3    0  502  0.26848774166E+02  0.89630017716E+01 -0.50987257234E+02  0.58317171358E+02  0.00000000000E+00 0.  1.
         13    1    5    5    0    0 -0.30660877722E+03 -0.20106005064E+03 -0.89515782488E+03  0.96733738565E+03  0.00000000000E+00 0.  1.
        -13    1    5    5    0    0 -0.94874761044E+02 -0.12784353554E+03 -0.33980096189E+03  0.37524643045E+03  0.00000000000E+00 0. -1.
          3    1    6    6  503    0  0.30520555228E+03  0.15496618807E+03 -0.82733833697E+03  0.89535114475E+03  0.00000000000E+00 0. -1.
         -3    1    6    6    0  503  0.47630024549E+02 -0.11319431623E+02 -0.11521311952E+03  0.12518311260E+03  0.00000000000E+00 0.  1.
<mgrwt>
<rscale>  0 0.11402074E+04</rscale>
<asrwt>0</asrwt>
<pdfrwt beam="1">  1        1 0.46303535E+00 0.11402074E+04</pdfrwt>
<pdfrwt beam="2">  1       -2 0.16613719E-01 0.11402074E+04</pdfrwt>
<totfact> 0.15375857E+01</totfact>
</mgrwt>
</event>
<event>
12    5  0.5041746E-008  0.1485569E+04  0.7818608E-02  0.8894107E-01
          1   -1    0    0  501    0  0.00000000000E+00  0.00000000000E+00  0.19798559982E+04  0.19798559982E+04  0.00000000000E+00 0. -1.
         -2   -1    0    0    0  501 -0.00000000000E+00 -0.00000000000E+00 -0.27867102837E+03  0.27867102837E+03  0.00000000000E+00 0.  1.
        -24    2    1    2    0    0 -0.32296537459E+02 -0.46692268507E+03  0.57429378977E+03  0.74513572906E+03  0.79712217336E+02 0.  0.
        254    2    1    2    0    0  0.32296537459E+02  0.46692268507E+03  0.11268911800E+04  0.15133912975E+04  0.89521484990E+03 0.  0.
         23    2    4    4    0    0 -0.15142379106E+03 -0.29635105096E+02 -0.77122844142E+02  0.19483714502E+03  0.90587946432E+02 0.  0.
         23    2    4    4    0    0  0.18372032852E+03  0.49655779017E+03  0.12040140242E+04  0.13185541525E+04  0.92803472149E+02 0.  0.
          3    1    3    3  502    0  0.15331949433E+02 -0.91142161728E+02  0.15161924162E+03  0.17756789334E+03  0.00000000000E+00 0. -1.
         -4    1    3    3    0  502 -0.47628486892E+02 -0.37578052335E+03  0.42267454815E+03  0.56756783572E+03  0.00000000000E+00 0.  1.
         13    1    5    5    0    0 -0.11173171081E+03 -0.56424402874E+02 -0.32357907949E+02  0.12928543091E+03  0.00000000000E+00 0. -1.
        -13    1    5    5    0    0 -0.39692080255E+02  0.26789297778E+02 -0.44764936193E+02  0.65551714111E+02  0.00000000000E+00 0.  1.
          1    1    6    6  503    0  0.35857919925E+02  0.26075151285E+02  0.10249445690E+03  0.11167281510E+03  0.00000000000E+00 0. -1.
         -1    1    6    6    0  503  0.14786240860E+03  0.47048263888E+03  0.11015195673E+04  0.12068813374E+04  0.00000000000E+00 0.  1.
<mgrwt>
<rscale>  0 0.14855686E+04</rscale>
<asrwt>0</asrwt>
<pdfrwt beam="1">  1        1 0.30459322E+00 0.14855686E+04</pdfrwt>
<pdfrwt beam="2">  1       -2 0.42872467E-01 0.14855686E+04</pdfrwt>
<totfact> 0.13494716E+01</totfact>
</mgrwt>
</event>
<event>
12    5  0.5041746E-008  0.2945699E+04  0.7818608E-02  0.8259409E-01
         -2   -1    0    0    0  501 -0.00000000000E+00  0.00000000000E+00  0.12059441475E+04  0.12059441475E+04  0.00000000000E+00 0.  1.
          1   -1    0    0  501    0  0.00000000000E+00 -0.00000000000E+00 -0.17988277201E+04  0.17988277201E+04  0.00000000000E+00 0. -1.
        -24    2    1    2    0    0  0.86675263368E+03 -0.50031033353E+03 -0.11609639979E+04  0.15356549850E+04  0.93958877447E+02 0.  0.
        254    2    1    2    0    0 -0.86675263368E+03  0.50031033353E+03  0.56808042527E+03  0.14691168826E+04  0.91324612641E+03 0.  0.
         23    2    4    4    0    0 -0.28579889209E+03 -0.23190794826E+03  0.15153013175E+02  0.37943387616E+03  0.90984335893E+02 0.  0.
         23    2    4    4    0    0 -0.58095374159E+03  0.73221828180E+03  0.55292741210E+03  0.10896830065E+04  0.89607306989E+02 0.  0.
          1    1    3    3  502    0  0.69253283079E+03 -0.38764836027E+03 -0.97367339422E+03  0.12561500116E+04  0.00000000000E+00 0. -1.
         -2    1    3    3    0  502  0.17421980289E+03 -0.11266197326E+03 -0.18729060368E+03  0.27950497341E+03  0.00000000000E+00 0.  1.
         13    1    5    5    0    0 -0.18742038771E+03 -0.20313976113E+03  0.17064062869E+02  0.27691758074E+03  0.00000000000E+00 0. -1.
        -13    1    5    5    0    0 -0.98378504381E+02 -0.28768187139E+02 -0.19110496945E+01  0.10251629542E+03  0.00000000000E+00 0.  1.
          4    1    6    6  503    0 -0.30071109361E+03  0.40086395441E+03  0.34555885109E+03  0.60871174733E+03  0.00000000000E+00 0. -1.
         -4    1    6    6    0  503 -0.28024264798E+03  0.33135432739E+03  0.20736856101E+03  0.48097125914E+03  0.00000000000E+00 0.  1.
<mgrwt>
<rscale>  0 0.29456991E+04</rscale>
<asrwt>0</asrwt>
<pdfrwt beam="1">  1        1 0.27674273E+00 0.29456991E+04</pdfrwt>
<pdfrwt beam="2">  1       -2 0.18552987E+00 0.29456991E+04</pdfrwt>
<totfact> 0.50962406E-01</totfact>
</mgrwt>
</event>
<event>
12    5  0.5041746E-008  0.2540084E+04  0.7818608E-02  0.8388843E-01
         -2   -1    0    0    0  501 -0.00000000000E+00  0.00000000000E+00  0.90421680230E+03  0.90421680230E+03  0.00000000000E+00 0.  1.
          1   -1    0    0  501    0  0.00000000000E+00 -0.00000000000E+00 -0.17838722829E+04  0.17838722829E+04  0.00000000000E+00 0. -1.
        -24    2    1    2    0    0  0.39560865455E+03  0.10271530153E+04 -0.24197062422E+03  0.11298009274E+04  0.79692084085E+02 0.  0.
        254    2    1    2    0    0 -0.39560865455E+03 -0.10271530153E+04 -0.63768485637E+03  0.15582881578E+04  0.90003915594E+03 0.  0.
         23    2    4    4    0    0 -0.49126844031E+03 -0.10043949729E+04 -0.77769243055E+03  0.13649908027E+04  0.90776829138E+02 0.  0.
         23    2    4    4    0    0  0.95659785764E+02 -0.22758042368E+02  0.14000757418E+03  0.19329735512E+03  0.89961233670E+02 0.  0.
          3    1    3    3  502    0  0.35895909570E+02  0.50383556926E+02 -0.23799258595E+02  0.66282907616E+02  0.00000000000E+00 0. -1.
         -4    1    3    3    0  502  0.35971274498E+03  0.97676945836E+03 -0.21817136563E+03  0.10635180198E+04  0.00000000000E+00 0.  1.
         13    1    5    5    0    0 -0.42972644276E+03 -0.89477451804E+03 -0.65446440202E+03  0.11889532822E+04  0.00000000000E+00 0.  1.
        -13    1    5    5    0    0 -0.61541997549E+02 -0.10962045488E+03 -0.12322802853E+03  0.17603752045E+03  0.00000000000E+00 0. -1.
          3    1    6    6  503    0  0.35096932284E+02 -0.51259406757E+02  0.43456480147E+02  0.75814161630E+02  0.00000000000E+00 0. -1.
         -3    1    6    6    0  503  0.60562853480E+02  0.28501364389E+02  0.96551094032E+02  0.11748319349E+03  0.00000000000E+00 0.  1.
<mgrwt>
<rscale>  0 0.25400845E+04</rscale>
<asrwt>0</asrwt>
<pdfrwt beam="1">  1        1 0.27444189E+00 0.25400845E+04</pdfrwt>
<pdfrwt beam="2">  1       -2 0.13911028E+00 0.25400845E+04</pdfrwt>
<totfact> 0.11867459E+00</totfact>
</mgrwt>
</event>
<event>
12    5  0.5041746E-008  0.1121242E+04  0.7818608E-02  0.9184732E-01
         -2   -1    0    0    0  501 -0.00000000000E+00  0.00000000000E+00  0.41963767785E+03  0.41963767785E+03  0.00000000000E+00 0.  1.
          1   -1    0    0  501    0  0.00000000000E+00 -0.00000000000E+00 -0.74896917521E+03  0.74896917521E+03  0.00000000000E+00 0. -1.
        -24    2    1    2    0    0  0.12314736530E+03 -0.70988654603E+02 -0.15577568718E+03  0.22511489458E+03  0.78778095830E+02 0.  0.
        254    2    1    2    0    0 -0.12314736530E+03  0.70988654603E+02 -0.17355581018E+03  0.94349195848E+03  0.91643373673E+03 0.  0.
         23    2    4    4    0    0 -0.43598971828E+03  0.81426971816E+02  0.15707443748E+03  0.47942312588E+03  0.91960690129E+02 0.  0.
         23    2    4    4    0    0  0.31284235298E+03 -0.10438317214E+02 -0.33063024766E+03  0.46406883260E+03  0.89801026951E+02 0.  0.
          1    1    3    3  502    0  0.32367847726E+02 -0.53363053808E+02 -0.97644021420E+02  0.11588635812E+03  0.00000000000E+00 0. -1.
         -2    1    3    3    0  502  0.90779517572E+02 -0.17625600795E+02 -0.58131665759E+02  0.10922853646E+03  0.00000000000E+00 0.  1.
         13    1    5    5    0    0 -0.48474330051E+02  0.22625035727E+02  0.49727688584E+02  0.73037633638E+02  0.00000000000E+00 0.  1.
        -13    1    5    5    0    0 -0.38751538823E+03  0.58801936089E+02  0.10734674890E+03  0.40638549224E+03  0.00000000000E+00 0. -1.
          1    1    6    6  503    0  0.22376834715E+03 -0.47033033238E+02 -0.21860068995E+03  0.31633943960E+03  0.00000000000E+00 0. -1.
         -1    1    6    6    0  503  0.89074005836E+02  0.36594716024E+02 -0.11202955771E+03  0.14772939301E+03  0.00000000000E+00 0.  1.
<mgrwt>
<rscale>  0 0.11212416E+04</rscale>
<asrwt>0</asrwt>
<pdfrwt beam="1">  1        1 0.11522603E+00 0.11212416E+04</pdfrwt>
<pdfrwt beam="2">  1       -2 0.64559643E-01 0.11212416E+04</pdfrwt>
<totfact> 0.47410338E+01</totfact>
</mgrwt>
</event>
<event>
12    5  0.5041746E-008  0.1712946E+04  0.7818608E-02  0.8754015E-01
          1   -1    0    0  501    0  0.00000000000E+00  0.00000000000E+00  0.56487135831E+03  0.56487135831E+03  0.00000000000E+00 0. -1.
         -2   -1    0    0    0  501 -0.00000000000E+00 -0.00000000000E+00 -0.12986075438E+04  0.12986075438E+04  0.00000000000E+00 0.  1.
        -24    2    1    2    0    0  0.48452955882E+03 -0.11981247648E+03  0.12606192569E+03  0.52097007248E+03  0.79964269691E+02 0.  0.
        254    2    1    2    0    0 -0.48452955882E+03  0.11981247648E+03 -0.85979811116E+03  0.13425088296E+04  0.90219357276E+03 0.  0.
         23    2    4    4    0    0 -0.55230367846E+03 -0.20913931687E+03 -0.26511183837E+03  0.65353216756E+03  0.89673853993E+02 0.  0.
         23    2    4    4    0    0  0.67774119646E+02  0.32895179335E+03 -0.59468627280E+03  0.68897666205E+03  0.90743948346E+02 0.  0.
          3    1    3    3  502    0  0.28741759608E+03 -0.49369819722E+02  0.10757065104E+03  0.31083387622E+03  0.00000000000E+00 0. -1.
         -4    1    3    3    0  502  0.19711196273E+03 -0.70442656755E+02  0.18491274646E+02  0.21013619626E+03  0.00000000000E+00 0.  1.
         13    1    5    5    0    0 -0.43891847200E+03 -0.17446345066E+03 -0.24881009915E+03  0.53384771809E+03  0.00000000000E+00 0. -1.
        -13    1    5    5    0    0 -0.11338520646E+03 -0.34675866212E+02 -0.16301739220E+02  0.11968444947E+03  0.00000000000E+00 0.  1.
          1    1    6    6  503    0  0.70365320531E+02  0.26184157094E+03 -0.53200114846E+03  0.59710761892E+03  0.00000000000E+00 0. -1.
         -1    1    6    6    0  503 -0.25912008854E+01  0.67110222406E+02 -0.62685124331E+02  0.91869043131E+02  0.00000000000E+00 0.  1.
<mgrwt>
<rscale>  0 0.17129462E+04</rscale>
<asrwt>0</asrwt>
<pdfrwt beam="1">  1        1 0.86903285E-01 0.17129462E+04</pdfrwt>
<pdfrwt beam="2">  1       -2 0.19978578E+00 0.17129462E+04</pdfrwt>
<totfact> 0.41423434E+00</totfact>
</mgrwt>
</event>
<event>
12    5  0.5041746E-008  0.1853518E+04  0.7818608E-02  0.8678346E-01
         -2   -1    0    0    0  501 -0.00000000000E+00  0.00000000000E+00  0.21120807936E+03  0.21120807936E+03  0.00000000000E+00 0.  1.
          1   -1    0    0  501    0  0.00000000000E+00 -0.00000000000E+00 -0.40665232683E+04  0.40665232683E+04  0.00000000000E+00 0. -1.
        -24    2    1    2    0    0 -0.29423618226E+03 -0.58468719503E+03 -0.19804579999E+04  0.20874845691E+04  0.83330004376E+02 0.  0.
        254    2    1    2    0    0  0.29423618226E+03  0.58468719503E+03 -0.18748571890E+04  0.21902467786E+04  0.92393583377E+03 0.  0.
         23    2    4    4    0    0 -0.31065396004E+03  0.68739940914E+02 -0.58001577932E+03  0.66796202203E+03  0.92324949190E+02 0.  0.
         23    2    4    4    0    0  0.60489014230E+03  0.51594725412E+03 -0.12948414097E+04  0.15222847566E+04  0.92967470207E+02 0.  0.
          1    1    3    3  502    0 -0.15298314766E+03 -0.27470894899E+03 -0.10761268832E+04  0.11211235074E+04  0.00000000000E+00 0. -1.
         -2    1    3    3    0  502 -0.14125303461E+03 -0.30997824604E+03 -0.90433111673E+03  0.96636106166E+03  0.00000000000E+00 0.  1.
         13    1    5    5    0    0 -0.29964765017E+03  0.42836248909E+02 -0.52023311701E+03  0.60188549949E+03  0.00000000000E+00 0. -1.
        -13    1    5    5    0    0 -0.11006309872E+02  0.25903692005E+02 -0.59782662314E+02  0.66076522532E+02  0.00000000000E+00 0.  1.
          4    1    6    6  503    0  0.51031395048E+03  0.45338845819E+03 -0.11615406795E+04  0.13472780605E+04  0.00000000000E+00 0. -1.
         -4    1    6    6    0  503  0.94576191826E+02  0.62558795929E+02 -0.13330073016E+03  0.17500669607E+03  0.00000000000E+00 0.  1.
<mgrwt>
<rscale>  0 0.18535184E+04</rscale>
<asrwt>0</asrwt>
<pdfrwt beam="1">  1        1 0.62561889E+00 0.18535184E+04</pdfrwt>
<pdfrwt beam="2">  1       -2 0.32493555E-01 0.18535184E+04</pdfrwt>
<totfact> 0.61676286E-01</totfact>
</mgrwt>
</event>
<event>
12    5  0.5041746E-008  0.1476211E+04  0.7818608E-02  0.8900428E-01
          1   -1    0    0  501    0  0.00000000000E+00  0.00000000000E+00  0.11083975294E+04  0.11083975294E+04  0.00000000000E+00 0. -1.
         -2   -1    0    0    0  501 -0.00000000000E+00 -0.00000000000E+00 -0.49151993693E+03  0.49151993693E+03  0.00000000000E+00 0.  1.
        -24    2    1    2    0    0 -0.89476135444E+01 -0.19497366189E+03 -0.25539984163E+03  0.33144910155E+03  0.80837115198E+02 0.  0.
        254    2    1    2    0    0  0.89476135444E+01  0.19497366189E+03  0.87227743408E+03  0.12684683648E+04  0.90002737836E+03 0.  0.
         23    2    4    4    0    0 -0.14215176799E+02 -0.93667567888E+02 -0.15136711500E+03  0.20075097941E+03  0.91723866608E+02 0.  0.
         23    2    4    4    0    0  0.23162790343E+02  0.28864122977E+03  0.10236445491E+04  0.10677173854E+04  0.91224874699E+02 0.  0.
          3    1    3    3  502    0  0.34087774694E+00 -0.61122091739E+01  0.61686627285E+01  0.86906673209E+01  0.00000000000E+00 0. -1.
         -4    1    3    3    0  502 -0.92884912913E+01 -0.18886145271E+03 -0.26156850436E+03  0.32275843423E+03  0.00000000000E+00 0.  1.
         13    1    5    5    0    0 -0.18639257517E+02 -0.11168457848E+03 -0.13250524028E+03  0.17429430768E+03  0.00000000000E+00 0.  1.
        -13    1    5    5    0    0  0.44240807183E+01  0.18017010589E+02 -0.18861874721E+02  0.26456671725E+02  0.00000000000E+00 0. -1.
          3    1    6    6  503    0 -0.55282308988E+00  0.14132688657E+03  0.34426125360E+03  0.37214164670E+03  0.00000000000E+00 0. -1.
         -3    1    6    6    0  503  0.23715613433E+02  0.14731434320E+03  0.67938329548E+03  0.69557573866E+03  0.00000000000E+00 0.  1.
<mgrwt>
<rscale>  0 0.14762107E+04</rscale>
<asrwt>0</asrwt>
<pdfrwt beam="1">  1        1 0.17052270E+00 0.14762107E+04</pdfrwt>
<pdfrwt beam="2">  1       -2 0.75618452E-01 0.14762107E+04</pdfrwt>
<totfact> 0.16651659E+01</totfact>
</mgrwt>
</event>
<event>
12    5  0.5041746E-008  0.1441096E+04  0.7818608E-02  0.8924597E-01
         -2   -1    0    0    0  501 -0.00000000000E+00  0.00000000000E+00  0.23918948851E+03  0.23918948851E+03  0.00000000000E+00 0.  1.
          1   -1    0    0  501    0  0.00000000000E+00 -0.00000000000E+00 -0.21706209710E+04  0.21706209710E+04  0.00000000000E+00 0. -1.
        -24    2    1    2    0    0 -0.13044009232E+03  0.40367381639E+03 -0.77761315993E+03  0.88946634148E+03  0.80628645156E+02 0.  0.
        254    2    1    2    0    0  0.13044009232E+03 -0.40367381639E+03 -0.11538183226E+04  0.15203441180E+04  0.89452912083E+03 0.  0.
         23    2    4    4    0    0 -0.31230214034E+03 -0.96195999960E+02 -0.80142028660E+03  0.86989200916E+03  0.87471907233E+02 0.  0.
         23    2    4    4    0    0  0.44274223266E+03 -0.30747781643E+03 -0.35239803598E+03  0.65045210888E+03  0.91325122506E+02 0.  0.
          1    1    3    3  502    0 -0.54605500526E+01  0.99575813068E+02 -0.23078063239E+03  0.25140576851E+03  0.00000000000E+00 0. -1.
         -2    1    3    3    0  502 -0.12497954227E+03  0.30409800332E+03 -0.54683252754E+03  0.63806057297E+03  0.00000000000E+00 0.  1.
         13    1    5    5    0    0 -0.18245266500E+03 -0.37287664039E+02 -0.34958394276E+03  0.39609124945E+03  0.00000000000E+00 0. -1.
        -13    1    5    5    0    0 -0.12984947535E+03 -0.58908335921E+02 -0.45183634384E+03  0.47380075971E+03  0.00000000000E+00 0.  1.
          1    1    6    6  503    0  0.20975379290E+03 -0.14177195582E+03 -0.21989172217E+03  0.33533313372E+03  0.00000000000E+00 0. -1.
         -1    1    6    6    0  503  0.23298843976E+03 -0.16570586061E+03 -0.13250631381E+03  0.31511897515E+03  0.00000000000E+00 0.  1.
<mgrwt>
<rscale>  0 0.14410964E+04</rscale>
<asrwt>0</asrwt>
<pdfrwt beam="1">  1        1 0.33394170E+00 0.14410964E+04</pdfrwt>
<pdfrwt beam="2">  1       -2 0.36798382E-01 0.14410964E+04</pdfrwt>
<totfact> 0.13562089E+01</totfact>
</mgrwt>
</event>
<event>
12    5  0.5041746E-008  0.1563977E+04  0.7818608E-02  0.8842989E-01
          1   -1    0    0  501    0  0.00000000000E+00  0.00000000000E+00  0.30225832658E+04  0.30225832658E+04  0.00000000000E+00 0. -1.
         -2   -1    0    0    0  501 -0.00000000000E+00 -0.00000000000E+00 -0.20231227538E+03  0.20231227538E+03  0.00000000000E+00 0.  1.
        -24    2    1    2    0    0  0.29865923161E+03  0.21449649639E+03  0.15144100099E+04  0.15604391496E+04  0.79539788662E+02 0.  0.
        254    2    1    2    0    0 -0.29865923161E+03 -0.21449649639E+03  0.13058609805E+04  0.16644563916E+04  0.96433194253E+03 0.  0.
         23    2    4    4    0    0  0.31083527142E+03 -0.24346276831E+03  0.63752293088E+03  0.75494120224E+03  0.87224113216E+02 0.  0.
         23    2    4    4    0    0 -0.60949450303E+03  0.28966271915E+02  0.66833804965E+03  0.90951518933E+03  0.90661661567E+02 0.  0.
          1    1    3    3  502    0  0.15541200108E+03  0.12431427209E+03  0.65703291629E+03  0.68651233158E+03  0.00000000000E+00 0. -1.
         -2    1    3    3    0  502  0.14324723053E+03  0.90182224305E+02  0.85737709358E+03  0.87392681801E+03  0.00000000000E+00 0.  1.
         13    1    5    5    0    0  0.17930872894E+03 -0.89026865482E+02  0.34697222640E+03  0.40058348561E+03  0.00000000000E+00 0. -1.
        -13    1    5    5    0    0  0.13152654249E+03 -0.15443590283E+03  0.29055070448E+03  0.35435771663E+03  0.00000000000E+00 0.  1.
          1    1    6    6  503    0 -0.35599639338E+03 -0.13070076651E+02  0.33864186708E+03  0.49151050156E+03  0.00000000000E+00 0. -1.
         -1    1    6    6    0  503 -0.25349810965E+03  0.42036348567E+02  0.32969618256E+03  0.41800468777E+03  0.00000000000E+00 0.  1.
<mgrwt>
<rscale>  0 0.15639766E+04</rscale>
<asrwt>0</asrwt>
<pdfrwt beam="1">  1        1 0.46501278E+00 0.15639766E+04</pdfrwt>
<pdfrwt beam="2">  1       -2 0.31124968E-01 0.15639766E+04</pdfrwt>
<totfact> 0.46806189E+00</totfact>
</mgrwt>
</event>
<event>
12    5  0.5041746E-008  0.1289566E+04  0.7818608E-02  0.9037881E-01
         -2   -1    0    0    0  501 -0.00000000000E+00  0.00000000000E+00  0.74655518312E+03  0.74655518312E+03  0.00000000000E+00 0.  1.
          1   -1    0    0  501    0  0.00000000000E+00 -0.00000000000E+00 -0.55688428040E+03  0.55688428040E+03  0.00000000000E+00 0. -1.
        -24    2    1    2    0    0 -0.64689760539E+02 -0.32038881486E+02  0.36277780829E+03  0.38086690672E+03  0.90777791330E+02 0.  0.
        254    2    1    2    0    0  0.64689760539E+02  0.32038881486E+02 -0.17310690557E+03  0.92257255680E+03  0.90330662942E+03 0.  0.
         23    2    4    4    0    0  0.47508422187E+03  0.38924883244E+02 -0.84763316070E+02  0.49261227384E+03  0.90894819343E+02 0.  0.
         23    2    4    4    0    0 -0.41039446133E+03 -0.68860017581E+01 -0.88343589504E+02  0.42996028296E+03  0.92683462400E+02 0.  0.
          3    1    3    3  502    0  0.18659043093E+02  0.45140056607E+01  0.28075223419E+02  0.34011090930E+02  0.00000000000E+00 0. -1.
         -4    1    3    3    0  502 -0.83348803631E+02 -0.36552887147E+02  0.33470258488E+03  0.34685581579E+03  0.00000000000E+00 0.  1.
         13    1    5    5    0    0  0.30137227959E+03 -0.95677150592E+01 -0.24759116656E+02  0.30253893292E+03  0.00000000000E+00 0.  1.
        -13    1    5    5    0    0  0.17371194228E+03  0.48492598303E+02 -0.60004199414E+02  0.19007334092E+03  0.00000000000E+00 0. -1.
          3    1    6    6  503    0 -0.89059761755E+02 -0.12148689700E+02  0.17558286572E+02  0.91583433287E+02  0.00000000000E+00 0. -1.
         -3    1    6    6    0  503 -0.32133469958E+03  0.52626879420E+01 -0.10590187608E+03  0.33837684967E+03  0.00000000000E+00 0.  1.
<mgrwt>
<rscale>  0 0.12895656E+04</rscale>
<asrwt>0</asrwt>
<pdfrwt beam="1">  1        1 0.85674504E-01 0.12895656E+04</pdfrwt>
<pdfrwt beam="2">  1       -2 0.11485464E+00 0.12895656E+04</pdfrwt>
<totfact> 0.19388676E+01</totfact>
</mgrwt>
</event>
<event>
12    5  0.5041746E-008  0.2142987E+04  0.7818608E-02  0.8542540E-01
          3   -1    0    0  501    0  0.00000000000E+00  0.00000000000E+00  0.18793142312E+04  0.18793142312E+04  0.00000000000E+00 0. -1.
         -4   -1    0    0    0  501 -0.00000000000E+00 -0.00000000000E+00 -0.61091345207E+03  0.61091345207E+03  0.00000000000E+00 0.  1.
        -24    2    1    2    0    0  0.31259584222E+03 -0.66471847008E+03 -0.11386579958E+02  0.73875717336E+03  0.77882616471E+02 0.  0.
        254    2    1    2    0    0 -0.31259584222E+03  0.66471847008E+03  0.12797873591E+04  0.17514705100E+04  0.94351812787E+03 0.  0.
         23    2    4    4    0    0 -0.38479841363E+03  0.56481076380E+03  0.28772521131E+03  0.74766629375E+03  0.95593261022E+02 0.  0.
         23    2    4    4    0    0  0.72202571416E+02  0.99907706281E+02  0.99206214782E+03  0.10038042162E+04  0.90779062780E+02 0.  0.
          3    1    3    3  502    0  0.28079978365E+03 -0.58536050537E+03 -0.34671909527E+02  0.65015196766E+03  0.00000000000E+00 0. -1.
         -4    1    3    3    0  502  0.31796058566E+02 -0.79357964705E+02  0.23285329568E+02  0.88605205691E+02  0.00000000000E+00 0.  1.
         13    1    5    5    0    0 -0.12234582863E+03  0.23959881846E+03  0.14782653723E+03  0.30696706778E+03  0.00000000000E+00 0. -1.
        -13    1    5    5    0    0 -0.26245258500E+03  0.32521194533E+03  0.13989867408E+03  0.44069922597E+03  0.00000000000E+00 0.  1.
          1    1    6    6  503    0  0.21150938880E+02  0.39487349714E+02  0.11876454797E+03  0.12693159912E+03  0.00000000000E+00 0. -1.
         -1    1    6    6    0  503  0.51051632535E+02  0.60420356567E+02  0.87329759986E+03  0.87687261708E+03  0.00000000000E+00 0.  1.
<mgrwt>
<rscale>  0 0.21429870E+04</rscale>
<asrwt>0</asrwt>
<pdfrwt beam="1">  1        3 0.28912526E+00 0.21429870E+04</pdfrwt>
<pdfrwt beam="2">  1       -4 0.93986686E-01 0.21429870E+04</pdfrwt>
<totfact> 0.89424956E-02</totfact>
</mgrwt>
</event>
<event>
12    5  0.5041746E-008  0.1412474E+04  0.7818608E-02  0.8944838E-01
         -2   -1    0    0    0  501 -0.00000000000E+00  0.00000000000E+00  0.19657238031E+03  0.19657238031E+03  0.00000000000E+00 0.  1.
          1   -1    0    0  501    0  0.00000000000E+00 -0.00000000000E+00 -0.25373401296E+04  0.25373401296E+04  0.00000000000E+00 0. -1.
        -24    2    1    2    0    0 -0.11449974589E+03 -0.15491849430E+02 -0.14772762509E+04  0.14839294728E+04  0.79695480303E+02 0.  0.
        254    2    1    2    0    0  0.11449974589E+03  0.15491849430E+02 -0.86349149839E+03  0.12499830371E+04  0.89637594571E+03 0.  0.
         23    2    4    4    0    0  0.18900194786E+03  0.13638600068E+02 -0.10268117659E+04  0.10481666176E+04  0.91668467500E+02 0.  0.
         23    2    4    4    0    0 -0.74502201973E+02  0.18532493628E+01  0.16332026753E+03  0.20181641950E+03  0.92208159943E+02 0.  0.
          3    1    3    3  502    0 -0.11093085411E+03 -0.37583483012E+02 -0.12946674849E+04  0.12999546412E+04  0.00000000000E+00 0. -1.
         -4    1    3    3    0  502 -0.35688917803E+01  0.22091633582E+02 -0.18260876594E+03  0.18397483159E+03  0.00000000000E+00 0.  1.
         13    1    5    5    0    0  0.19930853057E+03  0.13607005946E+02 -0.96012071894E+03  0.98068386135E+03  0.00000000000E+00 0.  1.
        -13    1    5    5    0    0 -0.10306582714E+02  0.31594121038E-01 -0.66691046982E+02  0.67482756264E+02  0.00000000000E+00 0. -1.
          2    1    6    6  503    0  0.14455289540E+02  0.13698624878E+02  0.68178816188E+02  0.71027872670E+02  0.00000000000E+00 0. -1.
         -2    1    6    6    0  503 -0.88957491513E+02 -0.11845375515E+02  0.95141451342E+02  0.13078854683E+03  0.00000000000E+00 0.  1.
<mgrwt>
<rscale>  0 0.14124744E+04</rscale>
<asrwt>0</asrwt>
<pdfrwt beam="1">  1        1 0.39036000E+00 0.14124744E+04</pdfrwt>
<pdfrwt beam="2">  1       -2 0.30241906E-01 0.14124744E+04</pdfrwt>
<totfact> 0.11066161E+01</totfact>
</mgrwt>
</event>
<event>
12    5  0.5041746E-008  0.1773613E+04  0.7818608E-02  0.8720459E-01
          1   -1    0    0  501    0  0.00000000000E+00  0.00000000000E+00  0.12907803583E+04  0.12907803583E+04  0.00000000000E+00 0. -1.
         -2   -1    0    0    0  501 -0.00000000000E+00 -0.00000000000E+00 -0.60926371021E+03  0.60926371021E+03  0.00000000000E+00 0.  1.
        -24    2    1    2    0    0 -0.11595039611E+03 -0.41217541412E+03  0.79071099882E+03  0.90263639243E+03  0.78711542510E+02 0.  0.
        254    2    1    2    0    0  0.11595039611E+03  0.41217541412E+03 -0.10919435073E+03  0.99740767609E+03  0.89418432089E+03 0.  0.
         23    2    4    4    0    0 -0.36226944862E+03  0.33031275076E+03 -0.36270008166E+02  0.49844852114E+03  0.82399927285E+02 0.  0.
         23    2    4    4    0    0  0.47821984473E+03  0.81862663356E+02 -0.72924342567E+02  0.49895915495E+03  0.90810588704E+02 0.  0.
          1    1    3    3  502    0 -0.65398665817E+02 -0.30669668475E+03  0.51238462996E+03  0.60073109703E+03  0.00000000000E+00 0. -1.
         -2    1    3    3    0  502 -0.50551730292E+02 -0.10547872937E+03  0.27832636886E+03  0.30190529539E+03  0.00000000000E+00 0.  1.
         13    1    5    5    0    0 -0.21684820667E+03  0.24850212006E+03 -0.34203398420E+02  0.33158154484E+03  0.00000000000E+00 0. -1.
        -13    1    5    5    0    0 -0.14542124195E+03  0.81810630696E+02 -0.20666097456E+01  0.16686697630E+03  0.00000000000E+00 0.  1.
          3    1    6    6  503    0  0.47132539949E+03  0.91091991132E+02 -0.63810258424E+02  0.48426968947E+03  0.00000000000E+00 0. -1.
         -3    1    6    6    0  503  0.68944452372E+01 -0.92293277758E+01 -0.91140841438E+01  0.14689465480E+02  0.00000000000E+00 0.  1.
<mgrwt>
<rscale>  0 0.17736128E+04</rscale>
<asrwt>0</asrwt>
<pdfrwt beam="1">  1        1 0.19858159E+00 0.17736128E+04</pdfrwt>
<pdfrwt beam="2">  1       -2 0.93732878E-01 0.17736128E+04</pdfrwt>
<totfact> 0.73281532E+00</totfact>
</mgrwt>
</event>
<event>
12    5  0.5041746E-008  0.1460996E+04  0.7818608E-02  0.8910812E-01
         -2   -1    0    0    0  501 -0.00000000000E+00  0.00000000000E+00  0.38022925299E+03  0.38022925299E+03  0.00000000000E+00 0.  1.
          1   -1    0    0  501    0  0.00000000000E+00 -0.00000000000E+00 -0.14034361554E+04  0.14034361554E+04  0.00000000000E+00 0. -1.
        -24    2    1    2    0    0 -0.30775000759E+03  0.45930504379E+02  0.75004009807E+02  0.32977118961E+03  0.79396206484E+02 0.  0.
        254    2    1    2    0    0  0.30775000759E+03 -0.45930504379E+02 -0.10982109122E+04  0.14538942187E+04  0.90051180627E+03 0.  0.
         23    2    4    4    0    0  0.58092815443E+03 -0.49412409718E+02 -0.44150630231E+03  0.73672135154E+03  0.88946208510E+02 0.  0.
         23    2    4    4    0    0 -0.27317814683E+03  0.34819053385E+01 -0.65670460989E+03  0.71717286720E+03  0.91856155121E+02 0.  0.
          3    1    3    3  502    0 -0.15084769774E+03  0.48301883882E+02  0.64324840475E+01  0.15852279568E+03  0.00000000000E+00 0. -1.
         -2    1    3    3    0  502 -0.15690230985E+03 -0.23713795025E+01  0.68571525760E+02  0.17124839393E+03  0.00000000000E+00 0.  1.
         13    1    5    5    0    0  0.30580054761E+03 -0.70496626498E+02 -0.23221959878E+03  0.39039683826E+03  0.00000000000E+00 0. -1.
        -13    1    5    5    0    0  0.27512760681E+03  0.21084216780E+02 -0.20928670353E+03  0.34632451328E+03  0.00000000000E+00 0.  1.
          4    1    6    6  503    0 -0.14315281087E+03  0.47137767462E+02 -0.32596127897E+03  0.35911760158E+03  0.00000000000E+00 0. -1.
         -4    1    6    6    0  503 -0.13002533596E+03 -0.43655862123E+02 -0.33074333092E+03  0.35805526562E+03  0.00000000000E+00 0.  1.
<mgrwt>
<rscale>  0 0.14609962E+04</rscale>
<asrwt>0</asrwt>
<pdfrwt beam="1">  1        1 0.21591325E+00 0.14609962E+04</pdfrwt>
<pdfrwt beam="2">  1       -2 0.58496809E-01 0.14609962E+04</pdfrwt>
<totfact> 0.17773166E+01</totfact>
</mgrwt>
</event>
<event>
12    5  0.5041746E-008  0.1452015E+04  0.7818608E-02  0.8917005E-01
         -2   -1    0    0    0  501 -0.00000000000E+00  0.00000000000E+00  0.14479544735E+04  0.14479544735E+04  0.00000000000E+00 0.  1.
          1   -1    0    0  501    0  0.00000000000E+00 -0.00000000000E+00 -0.36402170917E+03  0.36402170917E+03  0.00000000000E+00 0. -1.
        -24    2    1    2    0    0 -0.17039841972E+03 -0.38055822991E+03  0.50097064099E+03  0.65678918982E+03  0.80871929234E+02 0.  0.
        254    2    1    2    0    0  0.17039841972E+03  0.38055822991E+03  0.58296212334E+03  0.11551869929E+04  0.90595362100E+03 0.  0.
         23    2    4    4    0    0 -0.32418524247E+03  0.36184846569E+03  0.31765690545E+03  0.58666530858E+03  0.85087549917E+02 0.  0.
         23    2    4    4    0    0  0.49458366219E+03  0.18709764222E+02  0.26530521789E+03  0.56852168428E+03  0.88696069104E+02 0.  0.
          1    1    3    3  502    0 -0.17511499619E+02 -0.72124134379E+02  0.13698031737E+03  0.15579522049E+03  0.00000000000E+00 0. -1.
         -2    1    3    3    0  502 -0.15288692010E+03 -0.30843409553E+03  0.36399032362E+03  0.50099396934E+03  0.00000000000E+00 0.  1.
         13    1    5    5    0    0 -0.92750024697E+02  0.16270944794E+03  0.10660647490E+03  0.21550376335E+03  0.00000000000E+00 0. -1.
        -13    1    5    5    0    0 -0.23143521777E+03  0.19913901775E+03  0.21105043056E+03  0.37116154522E+03  0.00000000000E+00 0.  1.
          4    1    6    6  503    0  0.35647005344E+02  0.52318880503E+00  0.49629505938E+02  0.61107041952E+02  0.00000000000E+00 0. -1.
         -4    1    6    6    0  503  0.45893665684E+03  0.18186575417E+02  0.21567571195E+03  0.50741464232E+03  0.00000000000E+00 0.  1.
<mgrwt>
<rscale>  0 0.14520150E+04</rscale>
<asrwt>0</asrwt>
<pdfrwt beam="1">  1        1 0.56003341E-01 0.14520150E+04</pdfrwt>
<pdfrwt beam="2">  1       -2 0.22276222E+00 0.14520150E+04</pdfrwt>
<totfact> 0.54752169E+00</totfact>
</mgrwt>
</event>
<event>
12    5  0.5041746E-008  0.1315427E+04  0.7818608E-02  0.9017420E-01
         -2   -1    0    0    0  501 -0.00000000000E+00  0.00000000000E+00  0.53013737760E+03  0.53013737760E+03  0.00000000000E+00 0.  1.
          1   -1    0    0  501    0  0.00000000000E+00 -0.00000000000E+00 -0.81599056360E+03  0.81599056360E+03  0.00000000000E+00 0. -1.
        -24    2    1    2    0    0 -0.12351730533E+03  0.31512422456E+03 -0.18021383557E+02  0.34842191957E+03  0.80704783938E+02 0.  0.
        254    2    1    2    0    0  0.12351730533E+03 -0.31512422456E+03 -0.26783180244E+03  0.99770602162E+03  0.89951299577E+03 0.  0.
         23    2    4    4    0    0 -0.17787504973E+03  0.11067166296E+03  0.18892889215E+03  0.29869343335E+03  0.98162571999E+02 0.  0.
         23    2    4    4    0    0  0.30139235506E+03 -0.42579588752E+03 -0.45676069459E+03  0.69901258827E+03  0.88593323272E+02 0.  0.
          3    1    3    3  502    0 -0.32533001228E+02  0.18539406073E+02  0.24163034376E+01  0.37522583450E+02  0.00000000000E+00 0. -1.
         -4    1    3    3    0  502 -0.90984304105E+02  0.29658481849E+03 -0.20437686995E+02  0.31089933612E+03  0.00000000000E+00 0.  1.
         13    1    5    5    0    0 -0.10436500964E+03  0.67014605537E+02  0.46272301078E+02  0.13237876884E+03  0.00000000000E+00 0. -1.
        -13    1    5    5    0    0 -0.73510040090E+02  0.43657057418E+02  0.14265659107E+03  0.16631466451E+03  0.00000000000E+00 0.  1.
          1    1    6    6  503    0  0.10512973185E+03 -0.19044286790E+03 -0.23836953928E+03  0.32270851199E+03  0.00000000000E+00 0. -1.
         -1    1    6    6    0  503  0.19626262320E+03 -0.23535301962E+03 -0.21839115530E+03  0.37630407628E+03  0.00000000000E+00 0.  1.
<mgrwt>
<rscale>  0 0.13154271E+04</rscale>
<asrwt>0</asrwt>
<pdfrwt beam="1">  1        1 0.12553701E+00 0.13154271E+04</pdfrwt>
<pdfrwt beam="2">  1       -2 0.81559597E-01 0.13154271E+04</pdfrwt>
<totfact> 0.24370492E+01</totfact>
</mgrwt>
</event>
<event>
12    5  0.5041746E-008  0.1594090E+04  0.7818608E-02  0.8824187E-01
         -2   -1    0    0    0  501 -0.00000000000E+00  0.00000000000E+00  0.26599964629E+03  0.26599964629E+03  0.00000000000E+00 0.  1.
          1   -1    0    0  501    0  0.00000000000E+00 -0.00000000000E+00 -0.23882764295E+04  0.23882764295E+04  0.00000000000E+00 0. -1.
        -24    2    1    2    0    0 -0.28552954508E+03  0.44590058109E+03 -0.57230355710E+03  0.78369966122E+03  0.79368433253E+02 0.  0.
        254    2    1    2    0    0  0.28552954508E+03 -0.44590058109E+03 -0.15499732261E+04  0.18705764146E+04  0.90348473797E+03 0.  0.
         23    2    4    4    0    0  0.57872213247E+03 -0.12324576929E+03 -0.96135825567E+03  0.11322832147E+04  0.88015659321E+02 0.  0.
         23    2    4    4    0    0 -0.29319258739E+03 -0.32265481180E+03 -0.58861497045E+03  0.73829319987E+03  0.92418854501E+02 0.  0.
          3    1    3    3  502    0 -0.18799880453E+03  0.32877738868E+03 -0.45082716464E+03  0.58879814384E+03  0.00000000000E+00 0. -1.
         -4    1    3    3    0  502 -0.97530740545E+02  0.11712319241E+03 -0.12147639247E+03  0.19490151738E+03  0.00000000000E+00 0.  1.
         13    1    5    5    0    0  0.76462263506E+01 -0.70063497653E+01 -0.32813282265E+01  0.10877537836E+02  0.00000000000E+00 0. -1.
        -13    1    5    5    0    0  0.57107590612E+03 -0.11623941953E+03 -0.95807692744E+03  0.11214056769E+04  0.00000000000E+00 0.  1.
          2    1    6    6  503    0 -0.36135750899E+02 -0.54863255821E+02 -0.43493631809E+02  0.78787469437E+02  0.00000000000E+00 0. -1.
         -2    1    6    6    0  503 -0.25705683649E+03 -0.26779155598E+03 -0.54512133864E+03  0.65950573044E+03  0.00000000000E+00 0.  1.
<mgrwt>
<rscale>  0 0.15940899E+04</rscale>
<asrwt>0</asrwt>
<pdfrwt beam="1">  1        1 0.36742714E+00 0.15940899E+04</pdfrwt>
<pdfrwt beam="2">  1       -2 0.40923022E-01 0.15940899E+04</pdfrwt>
<totfact> 0.77277766E+00</totfact>
</mgrwt>
</event>
<event>
12    5  0.5041746E-008  0.1778472E+04  0.7818608E-02  0.8717832E-01
          1   -1    0    0  501    0  0.00000000000E+00  0.00000000000E+00  0.20233519252E+04  0.20233519252E+04  0.00000000000E+00 0. -1.
         -4   -1    0    0    0  501 -0.00000000000E+00 -0.00000000000E+00 -0.39080720203E+03  0.39080720203E+03  0.00000000000E+00 0.  1.
        -24    2    1    2    0    0 -0.63223259349E+03 -0.12310165442E+03  0.80655881276E+03  0.10351613264E+04  0.78420555914E+02 0.  0.
        254    2    1    2    0    0  0.63223259349E+03  0.12310165442E+03  0.82598591042E+03  0.13789978009E+04  0.89694489294E+03 0.  0.
         23    2    4    4    0    0  0.40675016929E+03 -0.35524607032E+03  0.54798539720E+03  0.77451463118E+03  0.89103578320E+02 0.  0.
         23    2    4    4    0    0  0.22548242420E+03  0.47834772474E+03  0.27800051322E+03  0.60448316968E+03  0.91960576795E+02 0.  0.
          1    1    3    3  502    0 -0.62300006217E+03 -0.11018579818E+03  0.79146012780E+03  0.10132517562E+04  0.00000000000E+00 0. -1.
         -2    1    3    3    0  502 -0.92325313197E+01 -0.12915856236E+02  0.15098684961E+02  0.21909570156E+02  0.00000000000E+00 0.  1.
         13    1    5    5    0    0  0.27345843472E+03 -0.23919618824E+03  0.42541089370E+03  0.55943610937E+03  0.00000000000E+00 0.  1.
        -13    1    5    5    0    0  0.13329173457E+03 -0.11604988208E+03  0.12257450351E+03  0.21507852181E+03  0.00000000000E+00 0. -1.
          2    1    6    6  503    0  0.39567839133E+02  0.81834273321E+02  0.10969648031E+02  0.91557606792E+02  0.00000000000E+00 0. -1.
         -2    1    6    6    0  503  0.18591458507E+03  0.39651345142E+03  0.26703086518E+03  0.51292556289E+03  0.00000000000E+00 0.  1.
<mgrwt>
<rscale>  0 0.17784718E+04</rscale>
<asrwt>0</asrwt>
<pdfrwt beam="1">  1        1 0.31128491E+00 0.17784718E+04</pdfrwt>
<pdfrwt beam="2">  1       -4 0.60124186E-01 0.17784718E+04</pdfrwt>
<totfact> 0.35001224E+00</totfact>
</mgrwt>
</event>
<event>
12    5  0.5041746E-008  0.1842769E+04  0.7818608E-02  0.8683880E-01
          1   -1    0    0  501    0  0.00000000000E+00  0.00000000000E+00  0.13535033485E+04  0.13535033485E+04  0.00000000000E+00 0. -1.
         -2   -1    0    0    0  501 -0.00000000000E+00 -0.00000000000E+00 -0.62722403689E+03  0.62722403689E+03  0.00000000000E+00 0.  1.
        -24    2    1    2    0    0 -0.66150974332E+03 -0.16767919983E+03  0.11516006546E+03  0.69671680122E+03  0.80255877377E+02 0.  0.
        254    2    1    2    0    0  0.66150974332E+03  0.16767919983E+03  0.61111924619E+03  0.12840105842E+04  0.89972495395E+03 0.  0.
         23    2    4    4    0    0 -0.12007711548E+03 -0.19487709159E+03  0.49649498938E+02  0.25126915194E+03  0.90969882295E+02 0.  0.
         23    2    4    4    0    0  0.78158685880E+03  0.36255629142E+03  0.56146974725E+03  0.10327414323E+04  0.94770810721E+02 0.  0.
          3    1    3    3  502    0 -0.32267942894E+03 -0.92619923461E+02  0.95901736394E+02  0.34913837819E+03  0.00000000000E+00 0. -1.
         -4    1    3    3    0  502 -0.33883031438E+03 -0.75059276368E+02  0.19258329066E+02  0.34757842302E+03  0.00000000000E+00 0.  1.
         13    1    5    5    0    0  0.14213054164E+02 -0.33282681098E+02  0.82356092832E+01  0.37115670949E+02  0.00000000000E+00 0. -1.
        -13    1    5    5    0    0 -0.13429016964E+03 -0.16159441049E+03  0.41413889655E+02  0.21415348099E+03  0.00000000000E+00 0.  1.
          3    1    6    6  503    0  0.21692253076E+02  0.30108857205E+02  0.29069678698E+02  0.47139615456E+02  0.00000000000E+00 0. -1.
         -3    1    6    6    0  503  0.75989460573E+03  0.33244743421E+03  0.53240006856E+03  0.98560181682E+03  0.00000000000E+00 0.  1.
<mgrwt>
<rscale>  0 0.18427695E+04</rscale>
<asrwt>0</asrwt>
<pdfrwt beam="1">  1        1 0.20823128E+00 0.18427695E+04</pdfrwt>
<pdfrwt beam="2">  1       -2 0.96496006E-01 0.18427695E+04</pdfrwt>
<totfact> 0.61415347E+00</totfact>
</mgrwt>
</event>
<event>
12    5  0.5041746E-008  0.1646354E+04  0.7818608E-02  0.8792566E-01
         -2   -1    0    0    0  501 -0.00000000000E+00  0.00000000000E+00  0.73096027141E+03  0.73096027141E+03  0.00000000000E+00 0.  1.
          1   -1    0    0  501    0  0.00000000000E+00 -0.00000000000E+00 -0.92702758785E+03  0.92702758785E+03  0.00000000000E+00 0. -1.
        -24    2    1    2    0    0 -0.35100966886E+03 -0.28409585928E+03 -0.42331081211E+03  0.62401528886E+03  0.79276681226E+02 0.  0.
        254    2    1    2    0    0  0.35100966886E+03  0.28409585928E+03  0.22724349567E+03  0.10339725704E+04  0.90196531259E+03 0.  0.
         23    2    4    4    0    0  0.53640383191E+03 -0.71825230329E+02 -0.28099912397E+02  0.54966080782E+03  0.91920965964E+02 0.  0.
         23    2    4    4    0    0 -0.18539416304E+03  0.35592108961E+03  0.25534340807E+03  0.48431176257E+03  0.91141700685E+02 0.  0.
          1    1    3    3  502    0 -0.24117035335E+03 -0.22814862813E+03 -0.34022729224E+03  0.47536254190E+03  0.00000000000E+00 0. -1.
         -2    1    3    3    0  502 -0.10983931552E+03 -0.55947231148E+02 -0.83083519869E+02  0.14865274696E+03  0.00000000000E+00 0.  1.
         13    1    5    5    0    0  0.39367164561E+02 -0.98782518393E+01  0.22195159597E+02  0.46259902880E+02  0.00000000000E+00 0.  1.
        -13    1    5    5    0    0  0.49703666735E+03 -0.61946978490E+02 -0.50295071994E+02  0.50340090494E+03  0.00000000000E+00 0. -1.
          1    1    6    6  503    0 -0.11456059455E+03  0.17495910131E+03  0.17986468065E+03  0.27583712640E+03  0.00000000000E+00 0.  1.
         -1    1    6    6    0  503 -0.70833568496E+02  0.18096198830E+03  0.75478727418E+02  0.20847463618E+03  0.00000000000E+00 0. -1.
<mgrwt>
<rscale>  0 0.16463540E+04</rscale>
<asrwt>0</asrwt>
<pdfrwt beam="1">  1        1 0.14261963E+00 0.16463540E+04</pdfrwt>
<pdfrwt beam="2">  1       -2 0.11245543E+00 0.16463540E+04</pdfrwt>
<totfact> 0.90227147E+00</totfact>
</mgrwt>
</event>
<event>
12    5  0.5041746E-008  0.1608625E+04  0.7818608E-02  0.8815267E-01
          3   -1    0    0  501    0  0.00000000000E+00  0.00000000000E+00  0.69955631556E+03  0.69955631556E+03  0.00000000000E+00 0. -1.
         -4   -1    0    0    0  501 -0.00000000000E+00 -0.00000000000E+00 -0.92475574721E+03  0.92475574721E+03  0.00000000000E+00 0.  1.
        -24    2    1    2    0    0  0.20941007237E+03  0.48186740914E+03  0.91046160458E+02  0.53936662952E+03  0.81105975800E+02 0.  0.
        254    2    1    2    0    0 -0.20941007237E+03 -0.48186740914E+03 -0.31624559210E+03  0.10849454332E+04  0.89501203355E+03 0.  0.
         23    2    4    4    0    0 -0.34947986282E+03  0.10999440450E+03  0.30109889103E+02  0.37908278355E+03  0.92532198863E+02 0.  0.
         23    2    4    4    0    0  0.14006979045E+03 -0.59186181364E+03 -0.34635548120E+03  0.70586264969E+03  0.91433080613E+02 0.  0.
          3    1    3    3  502    0  0.16912662167E+03  0.44822690412E+03  0.79422377277E+02  0.48561207331E+03  0.00000000000E+00 0. -1.
         -2    1    3    3    0  502  0.40283450699E+02  0.33640505020E+02  0.11623783181E+02  0.53754556213E+02  0.00000000000E+00 0.  1.
         13    1    5    5    0    0 -0.19053213413E+03  0.89915289012E+02 -0.18937437061E+02  0.21153221943E+03  0.00000000000E+00 0. -1.
        -13    1    5    5    0    0 -0.15894772869E+03  0.20079115490E+02  0.49047326164E+02  0.16755056412E+03  0.00000000000E+00 0.  1.
          3    1    6    6  503    0  0.10474065065E+03 -0.52105562057E+03 -0.27095999996E+03  0.59656423393E+03  0.00000000000E+00 0. -1.
         -3    1    6    6    0  503  0.35329139799E+02 -0.70806193066E+02 -0.75395481247E+02  0.10929841576E+03  0.00000000000E+00 0.  1.
<mgrwt>
<rscale>  0 0.16086252E+04</rscale>
<asrwt>0</asrwt>
<pdfrwt beam="1">  1        3 0.10762405E+00 0.16086252E+04</pdfrwt>
<pdfrwt beam="2">  1       -4 0.14227011E+00 0.16086252E+04</pdfrwt>
<totfact> 0.55280852E-01</totfact>
</mgrwt>
</event>
<event>
12    5  0.5041746E-008  0.1777692E+04  0.7818608E-02  0.8718253E-01
          1   -1    0    0  501    0  0.00000000000E+00  0.00000000000E+00  0.18572047843E+04  0.18572047843E+04  0.00000000000E+00 0. -1.
         -2   -1    0    0    0  501 -0.00000000000E+00 -0.00000000000E+00 -0.42539605920E+03  0.42539605920E+03  0.00000000000E+00 0.  1.
        -24    2    1    2    0    0  0.23776437130E+03 -0.39529758199E+03 -0.70079566638E+02  0.47372433361E+03  0.81923891556E+02 0.  0.
        254    2    1    2    0    0 -0.23776437130E+03  0.39529758199E+03  0.15018882917E+04  0.18088765099E+04  0.89642273098E+03 0.  0.
         23    2    4    4    0    0  0.31760093828E+03  0.26846966441E+03  0.73123270353E+03  0.84625775067E+03  0.92220372705E+02 0.  0.
         23    2    4    4    0    0 -0.55536530958E+03  0.12682791758E+03  0.77065558821E+03  0.96261875923E+03  0.90602937201E+02 0.  0.
          3    1    3    3  502    0  0.86132904443E+02 -0.77467679495E+02 -0.77597656218E+01  0.11610483434E+03  0.00000000000E+00 0. -1.
         -4    1    3    3    0  502  0.15163146685E+03 -0.31782990249E+03 -0.62319801016E+02  0.35761949927E+03  0.00000000000E+00 0.  1.
         13    1    5    5    0    0  0.76021085045E+02  0.12020612347E+03  0.22964392965E+03  0.27012043965E+03  0.00000000000E+00 0.  1.
        -13    1    5    5    0    0  0.24157985324E+03  0.14826354094E+03  0.50158877389E+03  0.57613731102E+03  0.00000000000E+00 0. -1.
          3    1    6    6  503    0 -0.40552049373E+03  0.13111555978E+03  0.54845741141E+03  0.69458166761E+03  0.00000000000E+00 0. -1.
         -3    1    6    6    0  503 -0.14984481585E+03 -0.42876422006E+01  0.22219817680E+03  0.26803709162E+03  0.00000000000E+00 0.  1.
<mgrwt>
<rscale>  0 0.17776924E+04</rscale>
<asrwt>0</asrwt>
<pdfrwt beam="1">  1        1 0.28572381E+00 0.17776924E+04</pdfrwt>
<pdfrwt beam="2">  1       -2 0.65445548E-01 0.17776924E+04</pdfrwt>
<totfact> 0.66517470E+00</totfact>
</mgrwt>
</event>
<event>
12    5  0.5258894E-008  0.2583652E+04  0.7818608E-02  0.8373775E-01
          1   -1    0    0  501    0  0.00000000000E+00  0.00000000000E+00  0.16409747409E+04  0.16409747409E+04  0.00000000000E+00 0. -1.
         -2   -1    0    0    0  501 -0.00000000000E+00 -0.00000000000E+00 -0.10169655490E+04  0.10169655490E+04  0.00000000000E+00 0.  1.
        -24    2    1    2    0    0 -0.28082105118E+02  0.67430079105E+03  0.12086602578E+04  0.13864989476E+04  0.77778863102E+02 0.  0.
        254    2    1    2    0    0  0.28082105118E+02 -0.67430079105E+03 -0.58465106590E+03  0.12714413423E+04  0.90513869468E+03 0.  0.
         23    2    4    4    0    0 -0.18478303509E+03 -0.80802282027E+03 -0.31540199224E+03  0.89169265213E+03  0.92691536943E+02 0.  0.
         23    2    4    4    0    0  0.21286514021E+03  0.13372202922E+03 -0.26924907366E+03  0.37974869017E+03  0.92308477401E+02 0.  0.
          3    1    3    3  502    0 -0.25142953589E+01  0.42832603153E+03  0.83431008796E+03  0.93783944993E+03  0.00000000000E+00 0. -1.
         -4    1    3    3    0  502 -0.25567809759E+02  0.24597475953E+03  0.37435016986E+03  0.44865949772E+03  0.00000000000E+00 0.  1.
         13    1    5    5    0    0 -0.10895914129E+03 -0.52734919011E+03 -0.15854550900E+03  0.56134298001E+03  0.00000000000E+00 0. -1.
        -13    1    5    5    0    0 -0.75823893800E+02 -0.28067363017E+03 -0.15685648323E+03  0.33034967213E+03  0.00000000000E+00 0.  1.
          3    1    6    6  503    0  0.14983665246E+03  0.10602429287E+03 -0.24630952687E+03  0.30718163377E+03  0.00000000000E+00 0. -1.
         -3    1    6    6    0  503  0.63028487745E+02  0.27697736356E+02 -0.22939546790E+02  0.72567056394E+02  0.00000000000E+00 0.  1.
<mgrwt>
<rscale>  0 0.25836523E+04</rscale>
<asrwt>0</asrwt>
<pdfrwt beam="1">  1        1 0.25245765E+00 0.25836523E+04</pdfrwt>
<pdfrwt beam="2">  1       -2 0.15645624E+00 0.25836523E+04</pdfrwt>
<totfact> 0.10846942E+00</totfact>
</mgrwt>
</event>
<event>
12    5  0.5041746E-008  0.1811594E+04  0.7818608E-02  0.8700158E-01
          1   -1    0    0  501    0  0.00000000000E+00  0.00000000000E+00  0.56064819630E+03  0.56064819630E+03  0.00000000000E+00 0. -1.
         -2   -1    0    0    0  501 -0.00000000000E+00 -0.00000000000E+00 -0.14634277594E+04  0.14634277594E+04  0.00000000000E+00 0.  1.
        -24    2    1    2    0    0 -0.19417343534E+03 -0.12649612094E+03 -0.10535827847E+04  0.10814736300E+04  0.76445644834E+02 0.  0.
        254    2    1    2    0    0  0.19417343534E+03  0.12649612094E+03  0.15080322151E+03  0.94260232576E+03  0.90113980120E+03 0.  0.
         23    2    4    4    0    0  0.16688268235E+03  0.17544980492E+03  0.50738083380E+03  0.56970643486E+03  0.92182686535E+02 0.  0.
         23    2    4    4    0    0  0.27290752994E+02 -0.48953683977E+02 -0.35657761230E+03  0.37289589090E+03  0.93608244743E+02 0.  0.
          3    1    3    3  502    0 -0.29165064478E+02  0.54914041825E+01 -0.19648860752E+03  0.19871720960E+03  0.00000000000E+00 0. -1.
         -4    1    3    3    0  502 -0.16500837086E+03 -0.13198752512E+03 -0.85709417714E+03  0.88275642038E+03  0.00000000000E+00 0.  1.
         13    1    5    5    0    0  0.12361283594E+03  0.65020141718E+02  0.29682547249E+03  0.32804437682E+03  0.00000000000E+00 0.  1.
        -13    1    5    5    0    0  0.43269846402E+02  0.11042966320E+03  0.21055536131E+03  0.24166205804E+03  0.00000000000E+00 0. -1.
          3    1    6    6  503    0  0.55978758981E+02 -0.42762725797E+02 -0.16988911238E+03  0.18391460704E+03  0.00000000000E+00 0. -1.
         -3    1    6    6    0  503 -0.28688005986E+02 -0.61909581797E+01 -0.18668849991E+03  0.18898128386E+03  0.00000000000E+00 0.  1.
<mgrwt>
<rscale>  0 0.18115939E+04</rscale>
<asrwt>0</asrwt>
<pdfrwt beam="1">  1        1 0.86253571E-01 0.18115939E+04</pdfrwt>
<pdfrwt beam="2">  1       -2 0.22514273E+00 0.18115939E+04</pdfrwt>
<totfact> 0.28550982E+00</totfact>
</mgrwt>
</event>
<event>
12    5  0.5041746E-008  0.1367841E+04  0.7818608E-02  0.8977431E-01
         -2   -1    0    0    0  501 -0.00000000000E+00  0.00000000000E+00  0.16269858061E+03  0.16269858061E+03  0.00000000000E+00 0.  1.
          1   -1    0    0  501    0  0.00000000000E+00 -0.00000000000E+00 -0.28749318438E+04  0.28749318438E+04  0.00000000000E+00 0. -1.
        -24    2    1    2    0    0 -0.18465641927E+03 -0.33153970744E+03 -0.86050180122E+03  0.94368818889E+03  0.77894012333E+02 0.  0.
        254    2    1    2    0    0  0.18465641927E+03  0.33153970744E+03 -0.18517314619E+04  0.20939422355E+04  0.90092624986E+03 0.  0.
         23    2    4    4    0    0 -0.23730867353E+03  0.14004202455E+03 -0.14350764203E+04  0.14641773477E+04  0.91890142444E+02 0.  0.
         23    2    4    4    0    0  0.42196509280E+03  0.19149768289E+03 -0.41665504165E+03  0.62976488780E+03  0.90975205842E+02 0.  0.
          3    1    3    3  502    0 -0.28475069055E+02 -0.37738539178E+02 -0.57238306804E+02  0.74237798073E+02  0.00000000000E+00 0. -1.
         -4    1    3    3    0  502 -0.15618135021E+03 -0.29380116827E+03 -0.80326349441E+03  0.86945039081E+03  0.00000000000E+00 0.  1.
         13    1    5    5    0    0 -0.24439151374E+03  0.13674012294E+03 -0.13498571750E+04  0.13786005462E+04  0.00000000000E+00 0. -1.
        -13    1    5    5    0    0  0.70828402089E+01  0.33019016074E+01 -0.85219245302E+02  0.85576801468E+02  0.00000000000E+00 0.  1.
          1    1    6    6  503    0  0.33130075492E+03  0.10672585780E+03 -0.30340330388E+03  0.46174036399E+03  0.00000000000E+00 0. -1.
         -1    1    6    6    0  503  0.90664337876E+02  0.84771825095E+02 -0.11325173777E+03  0.16802452380E+03  0.00000000000E+00 0.  1.
<mgrwt>
<rscale>  0 0.13678411E+04</rscale>
<asrwt>0</asrwt>
<pdfrwt beam="1">  1        1 0.44229720E+00 0.13678411E+04</pdfrwt>
<pdfrwt beam="2">  1       -2 0.25030551E-01 0.13678411E+04</pdfrwt>
<totfact> 0.91137856E+00</totfact>
</mgrwt>
</event>
<event>
12    5  0.5041746E-008  0.2881890E+04  0.7818608E-02  0.8278286E-01
          1   -1    0    0  501    0  0.00000000000E+00  0.00000000000E+00  0.42266638989E+04  0.42266638989E+04  0.00000000000E+00 0. -1.
         -2   -1    0    0    0  501 -0.00000000000E+00 -0.00000000000E+00 -0.49124395507E+03  0.49124395507E+03  0.00000000000E+00 0.  1.
        -24    2    1    2    0    0 -0.24390960618E+03 -0.11744694253E+04  0.24686419780E+04  0.27458023836E+04  0.79794656811E+02 0.  0.
        254    2    1    2    0    0  0.24390960618E+03  0.11744694253E+04  0.12667779659E+04  0.19721054704E+04  0.91956687878E+03 0.  0.
         23    2    4    4    0    0 -0.11793073954E+03  0.10809100996E+03 -0.91622061314E+02  0.20537588117E+03  0.90516985614E+02 0.  0.
         23    2    4    4    0    0  0.36184034572E+03  0.10663784154E+04  0.13584000272E+04  0.17667295893E+04  0.89394893706E+02 0.  0.
          3    1    3    3  502    0 -0.23541514476E+03 -0.11085318358E+04  0.22870382337E+04  0.25524119972E+04  0.00000000000E+00 0. -1.
         -4    1    3    3    0  502 -0.84944614116E+01 -0.65937589567E+02  0.18160374429E+03  0.19339038635E+03  0.00000000000E+00 0.  1.
         13    1    5    5    0    0 -0.93383707779E+02  0.12320160629E+03 -0.81950329407E+02  0.17497145242E+03  0.00000000000E+00 0. -1.
        -13    1    5    5    0    0 -0.24547031764E+02 -0.15110596330E+02 -0.96717319078E+01  0.30404428756E+02  0.00000000000E+00 0.  1.
          3    1    6    6  503    0  0.26993963872E+03  0.80286103655E+03  0.10799273312E+04  0.13724781576E+04  0.00000000000E+00 0. -1.
         -3    1    6    6    0  503  0.91900707002E+02  0.26351737883E+03  0.27847269604E+03  0.39425143162E+03  0.00000000000E+00 0.  1.
<mgrwt>
<rscale>  0 0.28818904E+04</rscale>
<asrwt>0</asrwt>
<pdfrwt beam="1">  1        1 0.65025596E+00 0.28818904E+04</pdfrwt>
<pdfrwt beam="2">  1       -2 0.75575996E-01 0.28818904E+04</pdfrwt>
<totfact> 0.70941413E-02</totfact>
</mgrwt>
</event>
<event>
12    5  0.5041746E-008  0.2004385E+04  0.7818608E-02  0.8604573E-01
          1   -1    0    0  501    0  0.00000000000E+00  0.00000000000E+00  0.13502400594E+04  0.13502400594E+04  0.00000000000E+00 0. -1.
         -2   -1    0    0    0  501 -0.00000000000E+00 -0.00000000000E+00 -0.74385985007E+03  0.74385985007E+03  0.00000000000E+00 0.  1.
        -24    2    1    2    0    0  0.42009280168E+03  0.67628630403E+03  0.16562041014E+03  0.81690308342E+03  0.77842150541E+02 0.  0.
        254    2    1    2    0    0 -0.42009280168E+03 -0.67628630403E+03  0.44075979918E+03  0.12771968261E+04  0.89617041062E+03 0.  0.
         23    2    4    4    0    0 -0.44964551607E+03 -0.77157932080E+03  0.59137762782E+03  0.10749124936E+04  0.90518682310E+02 0.  0.
         23    2    4    4    0    0  0.29552714392E+02  0.95293016763E+02 -0.15061782863E+03  0.20228433244E+03  0.90989553667E+02 0.  0.
          1    1    3    3  502    0  0.33148020858E+03  0.56026546944E+03  0.10763642420E+03  0.65981976686E+03  0.00000000000E+00 0. -1.
         -2    1    3    3    0  502  0.88612593098E+02  0.11602083460E+03  0.57983985942E+02  0.15708331656E+03  0.00000000000E+00 0.  1.
         13    1    5    5    0    0 -0.94332882480E+02 -0.21533380239E+03  0.12091844695E+03  0.26436453995E+03  0.00000000000E+00 0. -1.
        -13    1    5    5    0    0 -0.35531263359E+03 -0.55624551841E+03  0.47045918086E+03  0.81054795367E+03  0.00000000000E+00 0.  1.
          3    1    6    6  503    0  0.22218807458E+02 -0.39001821142E+01 -0.72150808447E+02  0.75595145247E+02  0.00000000000E+00 0.  1.
         -3    1    6    6    0  503  0.73339069343E+01  0.99193198878E+02 -0.78467020185E+02  0.12668918719E+03  0.00000000000E+00 0. -1.
<mgrwt>
<rscale>  0 0.20043846E+04</rscale>
<asrwt>0</asrwt>
<pdfrwt beam="1">  1        1 0.20772924E+00 0.20043846E+04</pdfrwt>
<pdfrwt beam="2">  1       -2 0.11443998E+00 0.20043846E+04</pdfrwt>
<totfact> 0.40448748E+00</totfact>
</mgrwt>
</event>
<event>
12    5  0.5041746E-008  0.1524996E+04  0.7818608E-02  0.8867999E-01
         -4   -1    0    0    0  501 -0.00000000000E+00  0.00000000000E+00  0.82238295149E+03  0.82238295149E+03  0.00000000000E+00 0.  1.
          3   -1    0    0  501    0  0.00000000000E+00 -0.00000000000E+00 -0.70697414816E+03  0.70697414816E+03  0.00000000000E+00 0. -1.
        -24    2    1    2    0    0  0.11624798789E+03 -0.37752462966E+03 -0.15285414758E+03  0.43109274442E+03  0.80237916085E+02 0.  0.
        254    2    1    2    0    0 -0.11624798789E+03  0.37752462966E+03  0.26826295090E+03  0.10982643552E+04  0.98903040522E+03 0.  0.
         23    2    4    4    0    0 -0.38618048992E+03 -0.23996772922E+01  0.44058310055E+03  0.59296938989E+03  0.91422642743E+02 0.  0.
         23    2    4    4    0    0  0.26993250203E+03  0.37992430695E+03 -0.17232014965E+03  0.50529496534E+03  0.91775450729E+02 0.  0.
          1    1    3    3  502    0  0.84133709132E+02 -0.33814579777E+03 -0.11237675628E+03  0.36612784231E+03  0.00000000000E+00 0. -1.
         -2    1    3    3    0  502  0.32114278755E+02 -0.39378831887E+02 -0.40477391292E+02  0.64964902113E+02  0.00000000000E+00 0.  1.
         13    1    5    5    0    0 -0.80302046003E+02  0.33142558185E+02  0.73206349105E+02  0.11360465353E+03  0.00000000000E+00 0. -1.
        -13    1    5    5    0    0 -0.30587844392E+03 -0.35542235478E+02  0.36737675145E+03  0.47936473635E+03  0.00000000000E+00 0.  1.
          1    1    6    6  503    0  0.11012526205E+03  0.85691775565E+02 -0.38863550526E+02  0.14484829754E+03  0.00000000000E+00 0.  1.
         -1    1    6    6    0  503  0.15980723998E+03  0.29423253138E+03 -0.13345659913E+03  0.36044666780E+03  0.00000000000E+00 0. -1.
<mgrwt>
<rscale>  0 0.15249964E+04</rscale>
<asrwt>0</asrwt>
<pdfrwt beam="1">  1        3 0.10876525E+00 0.15249964E+04</pdfrwt>
<pdfrwt beam="2">  1       -4 0.12652045E+00 0.15249964E+04</pdfrwt>
<totfact> 0.73394943E-01</totfact>
</mgrwt>
</event>
<event>
12    5  0.5041746E-008  0.1638928E+04  0.7818608E-02  0.8796984E-01
          1   -1    0    0  501    0  0.00000000000E+00  0.00000000000E+00  0.12884180838E+04  0.12884180838E+04  0.00000000000E+00 0. -1.
         -2   -1    0    0    0  501 -0.00000000000E+00 -0.00000000000E+00 -0.52119829076E+03  0.52119829076E+03  0.00000000000E+00 0.  1.
        -24    2    1    2    0    0  0.93990031962E+02 -0.40942446732E+03  0.68870714402E+03  0.81036502238E+03  0.76885751195E+02 0.  0.
        254    2    1    2    0    0 -0.93990031962E+02  0.40942446732E+03  0.78512649029E+02  0.99925135218E+03  0.90325882682E+03 0.  0.
         23    2    4    4    0    0  0.36332332158E+03  0.16850159303E+03 -0.13535475431E+03  0.43246515533E+03  0.91151402637E+02 0.  0.
         23    2    4    4    0    0 -0.45731335354E+03  0.24092287429E+03  0.21386740334E+03  0.56678619685E+03  0.91257832812E+02 0.  0.
          1    1    3    3  502    0  0.95662067331E+02 -0.30050118258E+03  0.54996259226E+03  0.63396454534E+03  0.00000000000E+00 0. -1.
         -2    1    3    3    0  502 -0.16720353688E+01 -0.10892328474E+03  0.13874455175E+03  0.17640047704E+03  0.00000000000E+00 0.  1.
         13    1    5    5    0    0  0.28147785801E+03  0.13012783918E+03 -0.14351836883E+03  0.34170244552E+03  0.00000000000E+00 0. -1.
        -13    1    5    5    0    0  0.81845463564E+02  0.38373753843E+02  0.81636145137E+01  0.90762709809E+02  0.00000000000E+00 0.  1.
          4    1    6    6  503    0 -0.23391278788E+03  0.15273443278E+03  0.15507814823E+03  0.31951874960E+03  0.00000000000E+00 0. -1.
         -4    1    6    6    0  503 -0.22340056566E+03  0.88188441511E+02  0.58789255115E+02  0.24726744725E+03  0.00000000000E+00 0.  1.
<mgrwt>
<rscale>  0 0.16389281E+04</rscale>
<asrwt>0</asrwt>
<pdfrwt beam="1">  1        1 0.19821817E+00 0.16389281E+04</pdfrwt>
<pdfrwt beam="2">  1       -2 0.80184353E-01 0.16389281E+04</pdfrwt>
<totfact> 0.10638177E+01</totfact>
</mgrwt>
</event>
<event>
12    5  0.5041746E-008  0.1462915E+04  0.7818608E-02  0.8909496E-01
          1   -1    0    0  501    0  0.00000000000E+00  0.00000000000E+00  0.36391131574E+03  0.36391131574E+03  0.00000000000E+00 0. -1.
         -2   -1    0    0    0  501 -0.00000000000E+00 -0.00000000000E+00 -0.14702210370E+04  0.14702210370E+04  0.00000000000E+00 0.  1.
        -24    2    1    2    0    0  0.10638582487E+03 -0.77990711537E+02 -0.81622566614E+03  0.83060506615E+03  0.79246091563E+02 0.  0.
        254    2    1    2    0    0 -0.10638582487E+03  0.77990711537E+02 -0.29008405513E+03  0.10035272866E+04  0.95158696980E+03 0.  0.
         23    2    4    4    0    0 -0.18496010890E+02  0.49654530314E+03 -0.25042860944E+03  0.56353500279E+03  0.89206896928E+02 0.  0.
         23    2    4    4    0    0 -0.87889813978E+02 -0.41855459160E+03 -0.39655445692E+02  0.43999228380E+03  0.95436313231E+02 0.  0.
          3    1    3    3  502    0  0.30186674975E+02 -0.40116098747E+02 -0.13405577866E+03  0.14314848416E+03  0.00000000000E+00 0. -1.
         -4    1    3    3    0  502  0.76199149894E+02 -0.37874612791E+02 -0.68216988747E+03  0.68745658198E+03  0.00000000000E+00 0.  1.
         13    1    5    5    0    0  0.10328844556E+02  0.42365102570E+03 -0.23153750856E+03  0.48290422909E+03  0.00000000000E+00 0. -1.
        -13    1    5    5    0    0 -0.28824855446E+02  0.72894277442E+02 -0.18891100876E+02  0.80630773700E+02  0.00000000000E+00 0.  1.
          3    1    6    6  503    0 -0.10387090343E+03 -0.28312447957E+03 -0.20349040001E+02  0.30226266548E+03  0.00000000000E+00 0. -1.
         -3    1    6    6    0  503  0.15981089449E+02 -0.13543011203E+03 -0.19306405691E+02  0.13772961833E+03  0.00000000000E+00 0.  1.
<mgrwt>
<rscale>  0 0.14629150E+04</rscale>
<asrwt>0</asrwt>
<pdfrwt beam="1">  1        1 0.55986355E-01 0.14629150E+04</pdfrwt>
<pdfrwt beam="2">  1       -2 0.22618786E+00 0.14629150E+04</pdfrwt>
<totfact> 0.52080972E+00</totfact>
</mgrwt>
</event>
<event>
12    5  0.5041746E-008  0.1770675E+04  0.7818608E-02  0.8722052E-01
         -2   -1    0    0    0  501 -0.00000000000E+00  0.00000000000E+00  0.62090472739E+03  0.62090472739E+03  0.00000000000E+00 0.  1.
          1   -1    0    0  501    0  0.00000000000E+00 -0.00000000000E+00 -0.12623872134E+04  0.12623872134E+04  0.00000000000E+00 0. -1.
        -24    2    1    2    0    0  0.55151516649E+02  0.35281337806E+03  0.34314361407E+03  0.50169645484E+03  0.80204883857E+02 0.  0.
        254    2    1    2    0    0 -0.55151516649E+02 -0.35281337806E+03 -0.98462610004E+03  0.13815954859E+04  0.90099864609E+03 0.  0.
         23    2    4    4    0    0  0.13742931417E+03 -0.33059474595E+03 -0.10835003932E+04  0.11447083401E+04  0.90578028617E+02 0.  0.
         23    2    4    4    0    0 -0.19258083082E+03 -0.22218632106E+02  0.98874293193E+02  0.23688714582E+03  0.93586056611E+02 0.  0.
          1    1    3    3  502    0  0.58443697036E+00  0.12319899947E+01 -0.42325511710E+01  0.44467803335E+01  0.00000000000E+00 0. -1.
         -2    1    3    3    0  502  0.54567079679E+02  0.35158138806E+03  0.34737616524E+03  0.49724967450E+03  0.00000000000E+00 0.  1.
         13    1    5    5    0    0  0.81252787219E+02 -0.22748420589E+03 -0.84532127147E+03  0.87915819473E+03  0.00000000000E+00 0.  1.
        -13    1    5    5    0    0  0.56176526947E+02 -0.10311054006E+03 -0.23817912176E+03  0.26555014535E+03  0.00000000000E+00 0. -1.
          3    1    6    6  503    0  0.12531728221E+01 -0.20381252199E+02  0.16562330015E+02  0.26292140629E+02  0.00000000000E+00 0. -1.
         -3    1    6    6    0  503 -0.19383400364E+03 -0.18373799070E+01  0.82311963178E+02  0.21059500520E+03  0.00000000000E+00 0.  1.
<mgrwt>
<rscale>  0 0.17706747E+04</rscale>
<asrwt>0</asrwt>
<pdfrwt beam="1">  1        1 0.19421342E+00 0.17706747E+04</pdfrwt>
<pdfrwt beam="2">  1       -2 0.95523805E-01 0.17706747E+04</pdfrwt>
<totfact> 0.73500739E+00</totfact>
</mgrwt>
</event>
<event>
12    5  0.5041746E-008  0.1278333E+04  0.7818608E-02  0.9046926E-01
          1   -1    0    0  501    0  0.00000000000E+00  0.00000000000E+00  0.11025735425E+04  0.11025735425E+04  0.00000000000E+00 0. -1.
         -2   -1    0    0    0  501 -0.00000000000E+00 -0.00000000000E+00 -0.37052723108E+03  0.37052723108E+03  0.00000000000E+00 0.  1.
        -24    2    1    2    0    0 -0.18598182315E+03 -0.19676922391E+03 -0.22965269639E+00  0.28241020469E+03  0.80300093104E+02 0.  0.
        254    2    1    2    0    0  0.18598182315E+03  0.19676922391E+03  0.73227596413E+03  0.11906905689E+04  0.89900421424E+03 0.  0.
         23    2    4    4    0    0 -0.20319459622E+03  0.36552246862E+02  0.72605911751E+03  0.76048900787E+03  0.92507179651E+02 0.  0.
         23    2    4    4    0    0  0.38917641937E+03  0.16021697704E+03  0.62168466143E+01  0.43020156103E+03  0.88921138098E+02 0.  0.
          3    1    3    3  502    0 -0.28126270894E+02 -0.27324716489E+01 -0.14702497999E+02  0.31854622320E+02  0.00000000000E+00 0. -1.
         -4    1    3    3    0  502 -0.15785555226E+03 -0.19403675226E+03  0.14472845303E+02  0.25055558237E+03  0.00000000000E+00 0.  1.
         13    1    5    5    0    0 -0.80473603917E+02 -0.30877722899E+02  0.27259277229E+03  0.28589553023E+03  0.00000000000E+00 0.  1.
        -13    1    5    5    0    0 -0.12272099230E+03  0.67429969761E+02  0.45346634522E+03  0.47459347765E+03  0.00000000000E+00 0. -1.
          1    1    6    6  503    0  0.11433209910E+03  0.49081285578E+01  0.38669557429E+01  0.11450271594E+03  0.00000000000E+00 0. -1.
         -1    1    6    6    0  503  0.27484432027E+03  0.15530884849E+03  0.23498908714E+01  0.31569884509E+03  0.00000000000E+00 0.  1.
<mgrwt>
<rscale>  0 0.12783325E+04</rscale>
<asrwt>0</asrwt>
<pdfrwt beam="1">  1        1 0.16962670E+00 0.12783325E+04</pdfrwt>
<pdfrwt beam="2">  1       -2 0.57004190E-01 0.12783325E+04</pdfrwt>
<totfact> 0.31423261E+01</totfact>
</mgrwt>
</event>
<event>
12    5  0.5041746E-008  0.1817683E+04  0.7818608E-02  0.8696952E-01
          1   -1    0    0  501    0  0.00000000000E+00  0.00000000000E+00  0.55239779198E+03  0.55239779198E+03  0.00000000000E+00 0. -1.
         -2   -1    0    0    0  501 -0.00000000000E+00 -0.00000000000E+00 -0.14952856984E+04  0.14952856984E+04  0.00000000000E+00 0.  1.
        -24    2    1    2    0    0 -0.98471575290E+02 -0.48316645512E+03 -0.87884119001E+03  0.10109285320E+04  0.80425027521E+02 0.  0.
        254    2    1    2    0    0  0.98471575290E+02  0.48316645512E+03 -0.64046716396E+02  0.10367549584E+04  0.90973204150E+03 0.  0.
         23    2    4    4    0    0 -0.37070530544E+02  0.43609170607E+03  0.36284226611E+03  0.57617803267E+03  0.93682521958E+02 0.  0.
         23    2    4    4    0    0  0.13554210583E+03  0.47074749046E+02 -0.42688898250E+03  0.46057692569E+03  0.96484230037E+02 0.  0.
          1    1    3    3  502    0 -0.42434452080E+02 -0.10068595460E+03 -0.24905647622E+03  0.27196961692E+03  0.00000000000E+00 0. -1.
         -2    1    3    3    0  502 -0.56037123210E+02 -0.38248050052E+03 -0.62978471379E+03  0.73895891508E+03  0.00000000000E+00 0.  1.
         13    1    5    5    0    0  0.14893838549E+02  0.14543715145E+02  0.30221414426E+02  0.36697138402E+02  0.00000000000E+00 0.  1.
        -13    1    5    5    0    0 -0.51964369093E+02  0.42154799093E+03  0.33262085168E+03  0.53948089427E+03  0.00000000000E+00 0. -1.
          1    1    6    6  503    0  0.11017684849E+03  0.59227457785E+02 -0.40787948917E+03  0.42662923878E+03  0.00000000000E+00 0. -1.
         -1    1    6    6    0  503  0.25365257341E+02 -0.12152708739E+02 -0.19009493333E+02  0.33947686909E+02  0.00000000000E+00 0.  1.
<mgrwt>
<rscale>  0 0.18176826E+04</rscale>
<asrwt>0</asrwt>
<pdfrwt beam="1">  1        1 0.84984275E-01 0.18176826E+04</pdfrwt>
<pdfrwt beam="2">  1       -2 0.23004395E+00 0.18176826E+04</pdfrwt>
<totfact> 0.27152264E+00</totfact>
</mgrwt>
</event>
<event>
12    5  0.5041746E-008  0.1929812E+04  0.7818608E-02  0.8640158E-01
          1   -1    0    0  501    0  0.00000000000E+00  0.00000000000E+00  0.12575202666E+04  0.12575202666E+04  0.00000000000E+00 0. -1.
         -2   -1    0    0    0  501 -0.00000000000E+00 -0.00000000000E+00 -0.74038074371E+03  0.74038074371E+03  0.00000000000E+00 0.  1.
        -24    2    1    2    0    0  0.10172771602E+03 -0.74060836213E+03  0.25960210594E+03  0.79806399752E+03  0.10326478807E+03 0.  0.
        254    2    1    2    0    0 -0.10172771602E+03  0.74060836213E+03  0.25753741695E+03  0.11998370128E+04  0.90246000570E+03 0.  0.
         23    2    4    4    0    0 -0.77479063778E+02 -0.14773960966E+02 -0.25375820416E+03  0.28285054613E+03  0.96901651283E+02 0.  0.
         23    2    4    4    0    0 -0.24248652242E+02  0.75538232310E+03  0.51129562112E+03  0.91698646667E+03  0.90832354891E+02 0.  0.
          3    1    3    3  502    0 -0.63362959288E+01 -0.13086286573E+03  0.13516360747E+02  0.13171154194E+03  0.00000000000E+00 0. -1.
         -4    1    3    3    0  502  0.10806401195E+03 -0.60974549641E+03  0.24608574519E+03  0.66635245558E+03  0.00000000000E+00 0.  1.
         13    1    5    5    0    0 -0.64769676856E+02  0.31064685168E+02 -0.19129057951E+03  0.20433357902E+03  0.00000000000E+00 0. -1.
        -13    1    5    5    0    0 -0.12709386923E+02 -0.45838646134E+02 -0.62467624649E+02  0.78516967113E+02  0.00000000000E+00 0.  1.
          4    1    6    6  503    0  0.20771983175E+02  0.40241589425E+03  0.30797885463E+03  0.50716959898E+03  0.00000000000E+00 0. -1.
         -4    1    6    6    0  503 -0.45020635417E+02  0.35296642885E+03  0.20331676649E+03  0.40981686769E+03  0.00000000000E+00 0.  1.
<mgrwt>
<rscale>  0 0.19298122E+04</rscale>
<asrwt>0</asrwt>
<pdfrwt beam="1">  1        1 0.19346466E+00 0.19298122E+04</pdfrwt>
<pdfrwt beam="2">  1       -2 0.11390473E+00 0.19298122E+04</pdfrwt>
<totfact> 0.47958637E+00</totfact>
</mgrwt>
</event>
<event>
12    5  0.5041746E-008  0.1255844E+04  0.7818608E-02  0.9065333E-01
          1   -1    0    0  501    0  0.00000000000E+00  0.00000000000E+00  0.37818264672E+03  0.37818264672E+03  0.00000000000E+00 0. -1.
         -2   -1    0    0    0  501 -0.00000000000E+00 -0.00000000000E+00 -0.10425812723E+04  0.10425812723E+04  0.00000000000E+00 0.  1.
        -24    2    1    2    0    0 -0.11463130446E+03 -0.26971943849E+03 -0.94967858153E+02  0.31812708499E+03  0.79353869864E+02 0.  0.
        254    2    1    2    0    0  0.11463130446E+03  0.26971943849E+03 -0.56943076738E+03  0.11026368340E+04  0.89758992718E+03 0.  0.
         23    2    4    4    0    0  0.21913870168E+03 -0.11699735380E+03 -0.63264628503E+03  0.68596048778E+03  0.92683965477E+02 0.  0.
         23    2    4    4    0    0 -0.10450739722E+03  0.38671679229E+03  0.63215517647E+02  0.41667634621E+03  0.95662439382E+02 0.  0.
          3    1    3    3  502    0 -0.51440339332E+02 -0.73436014033E+02  0.32648960432E+01  0.89719653442E+02  0.00000000000E+00 0. -1.
         -4    1    3    3    0  502 -0.63190965123E+02 -0.19628342446E+03 -0.98232754196E+02  0.22840743155E+03  0.00000000000E+00 0.  1.
         13    1    5    5    0    0  0.76906715203E+02 -0.78045256132E+02 -0.18921296132E+03  0.21864868986E+03  0.00000000000E+00 0.  1.
        -13    1    5    5    0    0  0.14223198647E+03 -0.38952097671E+02 -0.44343332371E+03  0.46731179791E+03  0.00000000000E+00 0. -1.
          1    1    6    6  503    0 -0.66772871650E+02  0.34448634271E+03  0.75015656131E+02  0.35882698528E+03  0.00000000000E+00 0. -1.
         -1    1    6    6    0  503 -0.37734525570E+02  0.42230449580E+02 -0.11800138484E+02  0.57849360930E+02  0.00000000000E+00 0.  1.
<mgrwt>
<rscale>  0 0.12558442E+04</rscale>
<asrwt>0</asrwt>
<pdfrwt beam="1">  1        1 0.58181946E-01 0.12558442E+04</pdfrwt>
<pdfrwt beam="2">  1       -2 0.16039712E+00 0.12558442E+04</pdfrwt>
<totfact> 0.13911671E+01</totfact>
</mgrwt>
</event>
<event>
12    5  0.5041746E-008  0.1435701E+04  0.7818608E-02  0.8928374E-01
         -2   -1    0    0    0  501 -0.00000000000E+00  0.00000000000E+00  0.34106262859E+03  0.34106262859E+03  0.00000000000E+00 0.  1.
          1   -1    0    0  501    0  0.00000000000E+00 -0.00000000000E+00 -0.15108929142E+04  0.15108929142E+04  0.00000000000E+00 0. -1.
        -24    2    1    2    0    0 -0.21672159944E+03  0.14137360190E+03 -0.80082015815E+03  0.84531250296E+03  0.79281492030E+02 0.  0.
        254    2    1    2    0    0  0.21672159944E+03 -0.14137360190E+03 -0.36901012749E+03  0.10066430399E+04  0.90011498627E+03 0.  0.
         23    2    4    4    0    0  0.18431102435E+03 -0.45504694334E+03 -0.44553820917E+03  0.66980477897E+03  0.95372279800E+02 0.  0.
         23    2    4    4    0    0  0.32410575095E+02  0.31367334144E+03  0.76528081687E+02  0.33683826088E+03  0.90344098855E+02 0.  0.
          1    1    3    3  502    0 -0.12168757584E+03  0.11874723684E+03 -0.56588038496E+03  0.59087171404E+03  0.00000000000E+00 0. -1.
         -2    1    3    3    0  502 -0.95034023607E+02  0.22626365061E+02 -0.23493977319E+03  0.25444078892E+03  0.00000000000E+00 0.  1.
         13    1    5    5    0    0  0.68619272420E+01 -0.47292894882E+02 -0.13174171801E+02  0.49570785292E+02  0.00000000000E+00 0.  1.
        -13    1    5    5    0    0  0.17744909711E+03 -0.40775404846E+03 -0.43236403737E+03  0.62023399368E+03  0.00000000000E+00 0. -1.
          2    1    6    6  503    0  0.98855079484E+01  0.30215744604E+03  0.75059101393E+02  0.31149753477E+03  0.00000000000E+00 0. -1.
         -2    1    6    6    0  503  0.22525067147E+02  0.11515895403E+02  0.14689802936E+01  0.25340726115E+02  0.00000000000E+00 0.  1.
<mgrwt>
<rscale>  0 0.14357007E+04</rscale>
<asrwt>0</asrwt>
<pdfrwt beam="1">  1        1 0.23244507E+00 0.14357007E+04</pdfrwt>
<pdfrwt beam="2">  1       -2 0.52471173E-01 0.14357007E+04</pdfrwt>
<totfact> 0.18799525E+01</totfact>
</mgrwt>
</event>
<event>
12    5  0.5041746E-008  0.1673155E+04  0.7818608E-02  0.8776825E-01
          1   -1    0    0  501    0  0.00000000000E+00  0.00000000000E+00  0.25663645341E+04  0.25663645341E+04  0.00000000000E+00 0. -1.
         -2   -1    0    0    0  501 -0.00000000000E+00 -0.00000000000E+00 -0.27270558832E+03  0.27270558832E+03  0.00000000000E+00 0.  1.
        -24    2    1    2    0    0 -0.40501311078E+03 -0.15215163343E+03  0.23709862933E+03  0.49997752245E+03  0.81092684442E+02 0.  0.
        254    2    1    2    0    0  0.40501311078E+03  0.15215163343E+03  0.20565603165E+04  0.23390926000E+04  0.10269995699E+04 0.  0.
         23    2    4    4    0    0  0.47842140554E+03  0.18758572485E+03  0.35048548862E+03  0.62863774663E+03  0.90938953780E+02 0.  0.
         23    2    4    4    0    0 -0.73408294760E+02 -0.35434091414E+02  0.17060748279E+04  0.17104548534E+04  0.91214771764E+02 0.  0.
          3    1    3    3  502    0 -0.24761165666E+02  0.66692809572E+01  0.27673209703E+02  0.37727989198E+02  0.00000000000E+00 0. -1.
         -4    1    3    3    0  502 -0.38025194511E+03 -0.15882091439E+03  0.20942541963E+03  0.46224953326E+03  0.00000000000E+00 0.  1.
         13    1    5    5    0    0  0.19911784116E+03  0.10792932431E+03  0.11115384241E+03  0.25229314378E+03  0.00000000000E+00 0. -1.
        -13    1    5    5    0    0  0.27930356438E+03  0.79656400533E+02  0.23933164621E+03  0.37634460285E+03  0.00000000000E+00 0.  1.
          3    1    6    6  503    0 -0.11170579847E+02 -0.50452858275E+02  0.10479105433E+04  0.10491838636E+04  0.00000000000E+00 0. -1.
         -3    1    6    6    0  503 -0.62237714913E+02  0.15018766860E+02  0.65816428452E+03  0.66127098979E+03  0.00000000000E+00 0.  1.
<mgrwt>
<rscale>  0 0.16731550E+04</rscale>
<asrwt>0</asrwt>
<pdfrwt beam="1">  1        1 0.39482530E+00 0.16731550E+04</pdfrwt>
<pdfrwt beam="2">  1       -2 0.41954708E-01 0.16731550E+04</pdfrwt>
<totfact> 0.55032109E+00</totfact>
</mgrwt>
</event>
<event>
12    5  0.5041746E-008  0.1289738E+04  0.7818608E-02  0.9037743E-01
          1   -1    0    0  501    0  0.00000000000E+00  0.00000000000E+00  0.28235697819E+04  0.28235697819E+04  0.00000000000E+00 0. -1.
         -2   -1    0    0    0  501 -0.00000000000E+00 -0.00000000000E+00 -0.14728020699E+03  0.14728020699E+03  0.00000000000E+00 0.  1.
        -24    2    1    2    0    0  0.27114761510E+03  0.14157335114E+03  0.88075894327E+03  0.93593359422E+03  0.81678232815E+02 0.  0.
        254    2    1    2    0    0 -0.27114761510E+03 -0.14157335114E+03  0.17955306317E+04  0.20349163947E+04  0.90740864073E+03 0.  0.
         23    2    4    4    0    0  0.29986403511E+03 -0.14436212886E+03  0.95028073933E+03  0.10110412885E+04  0.91717716984E+02 0.  0.
         23    2    4    4    0    0 -0.57101165021E+03  0.27887777212E+01  0.84524989235E+03  0.10238751063E+04  0.88378565042E+02 0.  0.
          1    1    3    3  502    0  0.14646157094E+03  0.87787138581E+02  0.60373382714E+03  0.62741701243E+03  0.00000000000E+00 0. -1.
         -2    1    3    3    0  502  0.12468604416E+03  0.53786212555E+02  0.27702511614E+03  0.30851658179E+03  0.00000000000E+00 0.  1.
         13    1    5    5    0    0  0.66187407582E+02 -0.44428141110E+02  0.35387356914E+03  0.36274114129E+03  0.00000000000E+00 0. -1.
        -13    1    5    5    0    0  0.23367662753E+03 -0.99933987748E+02  0.59640717019E+03  0.64830014717E+03  0.00000000000E+00 0.  1.
          2    1    6    6  503    0 -0.93728601908E+02 -0.22764999035E+02  0.10359040681E+03  0.14154246140E+03  0.00000000000E+00 0. -1.
         -2    1    6    6    0  503 -0.47728304830E+03  0.25553776756E+02  0.74165948554E+03  0.88233264487E+03  0.00000000000E+00 0.  1.
<mgrwt>
<rscale>  0 0.12897379E+04</rscale>
<asrwt>0</asrwt>
<pdfrwt beam="1">  1        1 0.43439531E+00 0.12897379E+04</pdfrwt>
<pdfrwt beam="2">  1       -2 0.22658495E-01 0.12897379E+04</pdfrwt>
<totfact> 0.11952470E+01</totfact>
</mgrwt>
</event>
<event>
12    5  0.5041746E-008  0.2948747E+04  0.7818608E-02  0.8258520E-01
         -2   -1    0    0    0  501 -0.00000000000E+00  0.00000000000E+00  0.57254388034E+03  0.57254388034E+03  0.00000000000E+00 0.  1.
          1   -1    0    0  501    0  0.00000000000E+00 -0.00000000000E+00 -0.37966998831E+04  0.37966998831E+04  0.00000000000E+00 0. -1.
        -24    2    1    2    0    0  0.14373547558E+02  0.44496605729E+02 -0.34370224416E+04  0.34382745495E+04  0.80137800893E+02 0.  0.
        254    2    1    2    0    0 -0.14373547558E+02 -0.44496605729E+02  0.21286643884E+03  0.93096921389E+03  0.90509944737E+03 0.  0.
         23    2    4    4    0    0  0.13130869758E+03 -0.36034442940E+03 -0.14735205812E+03  0.42107288678E+03  0.92193628246E+02 0.  0.
         23    2    4    4    0    0 -0.14568224514E+03  0.31584782367E+03  0.36021849696E+03  0.50989632711E+03  0.96196333484E+02 0.  0.
          1    1    3    3  502    0 -0.70721686071E+01  0.51784513668E+02 -0.31225841277E+04  0.31230214994E+04  0.00000000000E+00 0. -1.
         -2    1    3    3    0  502  0.21445716165E+02 -0.72879079395E+01 -0.31443831393E+03  0.31525305013E+03  0.00000000000E+00 0.  1.
         13    1    5    5    0    0  0.14594963928E+02 -0.14925591679E+03 -0.83113802531E+02  0.17145916668E+03  0.00000000000E+00 0.  1.
        -13    1    5    5    0    0  0.11671373365E+03 -0.21108851262E+03 -0.64238255590E+02  0.24961372010E+03  0.00000000000E+00 0. -1.
          3    1    6    6  503    0 -0.59191537146E+02  0.39336258842E+02  0.66470323575E+02  0.97310242244E+02  0.00000000000E+00 0. -1.
         -3    1    6    6    0  503 -0.86490707994E+02  0.27651156483E+03  0.29374817339E+03  0.41258608487E+03  0.00000000000E+00 0.  1.
<mgrwt>
<rscale>  0 0.29487470E+04</rscale>
<asrwt>0</asrwt>
<pdfrwt beam="1">  1        1 0.58410767E+00 0.29487470E+04</pdfrwt>
<pdfrwt beam="2">  1       -2 0.88083674E-01 0.29487470E+04</pdfrwt>
<totfact> 0.11976965E-01</totfact>
</mgrwt>
</event>
<event>
12    5  0.5041746E-008  0.1567840E+04  0.7818608E-02  0.8840552E-01
          1   -1    0    0  501    0  0.00000000000E+00  0.00000000000E+00  0.24306791452E+04  0.24306791452E+04  0.00000000000E+00 0. -1.
         -2   -1    0    0    0  501 -0.00000000000E+00 -0.00000000000E+00 -0.25282260188E+03  0.25282260188E+03  0.00000000000E+00 0.  1.
        -24    2    1    2    0    0  0.50690535501E+03 -0.54578919185E+02  0.65518089149E+03  0.83414416727E+03  0.81256346557E+02 0.  0.
        254    2    1    2    0    0 -0.50690535501E+03  0.54578919185E+02  0.15226756518E+04  0.18493575798E+04  0.91741507506E+03 0.  0.
         23    2    4    4    0    0 -0.10433329520E+03  0.38867320932E+03  0.28202896627E+03  0.49988962136E+03  0.91635122081E+02 0.  0.
         23    2    4    4    0    0 -0.40257205981E+03 -0.33409429013E+03  0.12406466856E+04  0.13494679585E+04  0.90422975126E+02 0.  0.
          3    1    3    3  502    0  0.44941994752E+03 -0.47733679599E+02  0.61691478871E+03  0.76474874954E+03  0.00000000000E+00 0. -1.
         -4    1    3    3    0  502  0.57485407492E+02 -0.68452395860E+01  0.38266102780E+02  0.69395417727E+02  0.00000000000E+00 0.  1.
         13    1    5    5    0    0 -0.24566818738E+02  0.22823000492E+03  0.12357005494E+03  0.26069526695E+03  0.00000000000E+00 0. -1.
        -13    1    5    5    0    0 -0.79766476459E+02  0.16044320440E+03  0.15845891133E+03  0.23919435441E+03  0.00000000000E+00 0.  1.
          3    1    6    6  503    0 -0.22506774138E+03 -0.13160012425E+03  0.64973769532E+03  0.70009510328E+03  0.00000000000E+00 0. -1.
         -3    1    6    6    0  503 -0.17750431843E+03 -0.20249416589E+03  0.59090899025E+03  0.64937285517E+03  0.00000000000E+00 0.  1.
<mgrwt>
<rscale>  0 0.15678401E+04</rscale>
<asrwt>0</asrwt>
<pdfrwt beam="1">  1        1 0.37395062E+00 0.15678401E+04</pdfrwt>
<pdfrwt beam="2">  1       -2 0.38895787E-01 0.15678401E+04</pdfrwt>
<totfact> 0.80001518E+00</totfact>
</mgrwt>
</event>
<event>
12    5  0.5041746E-008  0.1521055E+04  0.7818608E-02  0.8870571E-01
         -2   -1    0    0    0  501 -0.00000000000E+00  0.00000000000E+00  0.50223500013E+03  0.50223500013E+03  0.00000000000E+00 0.  1.
          1   -1    0    0  501    0  0.00000000000E+00 -0.00000000000E+00 -0.11516562271E+04  0.11516562271E+04  0.00000000000E+00 0. -1.
        -24    2    1    2    0    0 -0.14378482205E+03  0.47977486901E+03 -0.19578247488E+03  0.54382204842E+03  0.80954572985E+02 0.  0.
        254    2    1    2    0    0  0.14378482205E+03 -0.47977486901E+03 -0.45363875208E+03  0.11100691788E+04  0.88068579208E+03 0.  0.
         23    2    4    4    0    0 -0.93051763961E+02 -0.28129468907E+03  0.20847436815E+03  0.37330110701E+03  0.90037888940E+02 0.  0.
         23    2    4    4    0    0  0.23683658602E+03 -0.19848017994E+03 -0.66211312023E+03  0.73676807180E+03  0.94591000284E+02 0.  0.
          3    1    3    3  502    0 -0.14335025440E+03  0.47944832544E+03 -0.18576073530E+03  0.53378557772E+03  0.00000000000E+00 0. -1.
         -4    1    3    3    0  502 -0.43456765462E+00  0.32654357007E+00 -0.10021739585E+02  0.10036470698E+02  0.00000000000E+00 0.  1.
         13    1    5    5    0    0 -0.42796469720E+02 -0.78205336084E+02  0.19242212704E+02  0.91202385727E+02  0.00000000000E+00 0.  1.
        -13    1    5    5    0    0 -0.50255294241E+02 -0.20308935298E+03  0.18923215544E+03  0.28209872128E+03  0.00000000000E+00 0. -1.
          3    1    6    6  503    0  0.16176201225E+03 -0.16346561913E+03 -0.39461928006E+03  0.45674099163E+03  0.00000000000E+00 0. -1.
         -3    1    6    6    0  503  0.75074573767E+02 -0.35014560808E+02 -0.26749384018E+03  0.28002708017E+03  0.00000000000E+00 0.  1.
<mgrwt>
<rscale>  0 0.15210550E+04</rscale>
<asrwt>0</asrwt>
<pdfrwt beam="1">  1        1 0.17717788E+00 0.15210550E+04</pdfrwt>
<pdfrwt beam="2">  1       -2 0.77266924E-01 0.15210550E+04</pdfrwt>
<totfact> 0.14680290E+01</totfact>
</mgrwt>
</event>
<event>
12    5  0.5041746E-008  0.2420705E+04  0.7818608E-02  0.8431792E-01
          1   -1    0    0  501    0  0.00000000000E+00  0.00000000000E+00  0.26884906759E+04  0.26884906759E+04  0.00000000000E+00 0. -1.
         -2   -1    0    0    0  501 -0.00000000000E+00 -0.00000000000E+00 -0.54489811761E+03  0.54489811761E+03  0.00000000000E+00 0.  1.
        -24    2    1    2    0    0 -0.42548307883E+03 -0.34388674266E+03 -0.26054410682E+03  0.61120003370E+03  0.79926888151E+02 0.  0.
        254    2    1    2    0    0  0.42548307883E+03  0.34388674266E+03  0.24041366651E+04  0.26221887598E+04  0.89258436320E+03 0.  0.
         23    2    4    4    0    0  0.39029796539E+03 -0.12644388089E+03  0.47454975769E+03  0.63374480831E+03  0.90080257138E+02 0.  0.
         23    2    4    4    0    0  0.35185113440E+02  0.47033062355E+03  0.19295869074E+04  0.19884439515E+04  0.90304082664E+02 0.  0.
          3    1    3    3  502    0 -0.17997280890E+03 -0.19650116661E+03 -0.13041373858E+03  0.29666591249E+03  0.00000000000E+00 0. -1.
         -4    1    3    3    0  502 -0.24551026993E+03 -0.14738557605E+03 -0.13013036824E+03  0.31453412122E+03  0.00000000000E+00 0.  1.
         13    1    5    5    0    0  0.32906866316E+03 -0.10408041685E+03  0.34122841903E+03  0.48534086187E+03  0.00000000000E+00 0.  1.
        -13    1    5    5    0    0  0.61229302230E+02 -0.22363464044E+02  0.13332133866E+03  0.14840394644E+03  0.00000000000E+00 0. -1.
          3    1    6    6  503    0  0.20420825051E+02  0.16839488153E+02  0.10315366617E+03  0.10649533934E+03  0.00000000000E+00 0. -1.
         -3    1    6    6    0  503  0.14764288389E+02  0.45349113540E+03  0.18264332413E+04  0.18819486122E+04  0.00000000000E+00 0.  1.
<mgrwt>
<rscale>  0 0.24207053E+04</rscale>
<asrwt>0</asrwt>
<pdfrwt beam="1">  1        1 0.41361394E+00 0.24207053E+04</pdfrwt>
<pdfrwt beam="2">  1       -2 0.83830481E-01 0.24207053E+04</pdfrwt>
<totfact> 0.97768629E-01</totfact>
</mgrwt>
</event>
<event>
12    5  0.5041746E-008  0.1438914E+04  0.7818608E-02  0.8926122E-01
          1   -1    0    0  501    0  0.00000000000E+00  0.00000000000E+00  0.13279491329E+04  0.13279491329E+04  0.00000000000E+00 0. -1.
         -2   -1    0    0    0  501 -0.00000000000E+00 -0.00000000000E+00 -0.38978801276E+03  0.38978801276E+03  0.00000000000E+00 0.  1.
        -24    2    1    2    0    0 -0.16448814310E+03 -0.12193440765E+03  0.75869546722E+03  0.78985394716E+03  0.79536764371E+02 0.  0.
        254    2    1    2    0    0  0.16448814310E+03  0.12193440765E+03  0.17946565291E+03  0.92788319849E+03  0.88703718100E+03 0.  0.
         23    2    4    4    0    0  0.38471333612E+03 -0.18754123921E+03  0.28625196310E+03  0.52284957974E+03  0.90859392787E+02 0.  0.
         23    2    4    4    0    0 -0.22022519301E+03  0.30947564686E+03 -0.10678631019E+03  0.40503361875E+03  0.91512865971E+02 0.  0.
          1    1    3    3  502    0 -0.16783502666E+03 -0.11577139401E+03  0.75475434963E+03  0.78180927350E+03  0.00000000000E+00 0. -1.
         -2    1    3    3    0  502  0.33468835530E+01 -0.61630136331E+01  0.39411175887E+01  0.80446736670E+01  0.00000000000E+00 0.  1.
         13    1    5    5    0    0  0.26043374643E+00 -0.13820126939E+02  0.15895393623E+01  0.13913675637E+02  0.00000000000E+00 0.  1.
        -13    1    5    5    0    0  0.38445290237E+03 -0.17372111228E+03  0.28466242374E+03  0.50893590410E+03  0.00000000000E+00 0. -1.
          2    1    6    6  503    0 -0.11773765066E+03  0.23847110876E+03 -0.76265973730E+02  0.27667150711E+03  0.00000000000E+00 0. -1.
         -2    1    6    6    0  503 -0.10248754235E+03  0.71004538100E+02 -0.30520336459E+02  0.12836211164E+03  0.00000000000E+00 0.  1.
<mgrwt>
<rscale>  0 0.14389144E+04</rscale>
<asrwt>0</asrwt>
<pdfrwt beam="1">  1        1 0.20429986E+00 0.14389144E+04</pdfrwt>
<pdfrwt beam="2">  1       -2 0.59967387E-01 0.14389144E+04</pdfrwt>
<totfact> 0.19102481E+01</totfact>
</mgrwt>
</event>
<event>
12    5  0.5041746E-008  0.2057600E+04  0.7818608E-02  0.8580154E-01
         -2   -1    0    0    0  501 -0.00000000000E+00  0.00000000000E+00  0.36498044110E+03  0.36498044110E+03  0.00000000000E+00 0.  1.
          1   -1    0    0  501    0  0.00000000000E+00 -0.00000000000E+00 -0.28999625954E+04  0.28999625954E+04  0.00000000000E+00 0. -1.
        -24    2    1    2    0    0  0.52810816140E+03  0.43820145295E+03 -0.29016535147E+03  0.74926880565E+03  0.79303647031E+02 0.  0.
        254    2    1    2    0    0 -0.52810816140E+03 -0.43820145295E+03 -0.22448168028E+04  0.25156742309E+04  0.90470747427E+03 0.  0.
         23    2    4    4    0    0  0.23743753816E+03 -0.12624647616E+03 -0.79248727833E+03  0.84180098006E+03  0.90983770200E+02 0.  0.
         23    2    4    4    0    0 -0.76554569955E+03 -0.31195497679E+03 -0.14523295245E+04  0.16738732508E+04  0.95992116025E+02 0.  0.
          1    1    3    3  502    0  0.20242980863E+03  0.20930880090E+03 -0.14746840509E+03  0.32639689345E+03  0.00000000000E+00 0. -1.
         -2    1    3    3    0  502  0.32567835277E+03  0.22889265205E+03 -0.14269694638E+03  0.42287191220E+03  0.00000000000E+00 0.  1.
         13    1    5    5    0    0  0.15324868708E+03 -0.12625600620E+03 -0.52073736929E+03  0.55730884343E+03  0.00000000000E+00 0. -1.
        -13    1    5    5    0    0  0.84188851079E+02  0.95300463976E-02 -0.27174990905E+03  0.28449213663E+03  0.00000000000E+00 0.  1.
          1    1    6    6  503    0 -0.21008768423E+03 -0.40456409219E+02 -0.37747401817E+03  0.43388960636E+03  0.00000000000E+00 0. -1.
         -1    1    6    6    0  503 -0.55545801533E+03 -0.27149856757E+03 -0.10748555063E+04  0.12399836444E+04  0.00000000000E+00 0.  1.
<mgrwt>
<rscale>  0 0.20576002E+04</rscale>
<asrwt>0</asrwt>
<pdfrwt beam="1">  1        1 0.44614810E+00 0.20576002E+04</pdfrwt>
<pdfrwt beam="2">  1       -2 0.56150836E-01 0.20576002E+04</pdfrwt>
<totfact> 0.17083326E+00</totfact>
</mgrwt>
</event>
<event>
12    5  0.5041746E-008  0.2195729E+04  0.7818608E-02  0.8520208E-01
         -2   -1    0    0    0  501 -0.00000000000E+00  0.00000000000E+00  0.27111595357E+03  0.27111595357E+03  0.00000000000E+00 0.  1.
          1   -1    0    0  501    0  0.00000000000E+00 -0.00000000000E+00 -0.44457232368E+04  0.44457232368E+04  0.00000000000E+00 0. -1.
        -24    2    1    2    0    0  0.42746029293E+03 -0.71703921561E+03 -0.25409719103E+04  0.26757905652E+04  0.80307916641E+02 0.  0.
        254    2    1    2    0    0 -0.42746029293E+03  0.71703921561E+03 -0.16336353729E+04  0.20410486251E+04  0.89456549208E+03 0.  0.
         23    2    4    4    0    0  0.39236832719E+02  0.73826751645E+03 -0.10627367086E+04  0.12978257629E+04  0.91454601471E+02 0.  0.
         23    2    4    4    0    0 -0.46669712565E+03 -0.21228300840E+02 -0.57089866431E+03  0.74322286220E+03  0.90543305322E+02 0.  0.
          1    1    3    3  502    0  0.10810817335E+03 -0.20136736027E+03 -0.59068373266E+03  0.63335887375E+03  0.00000000000E+00 0. -1.
         -2    1    3    3    0  502  0.31935211959E+03 -0.51567185534E+03 -0.19502881776E+04  0.20424316915E+04  0.00000000000E+00 0.  1.
         13    1    5    5    0    0  0.57141139247E+02  0.28646882228E+03 -0.44437034253E+03  0.53178425819E+03  0.00000000000E+00 0.  1.
        -13    1    5    5    0    0 -0.17904306528E+02  0.45179869417E+03 -0.61836636608E+03  0.76604150471E+03  0.00000000000E+00 0. -1.
          4    1    6    6  503    0 -0.20899976407E+03  0.35525704845E+02 -0.25546925430E+03  0.33197517524E+03  0.00000000000E+00 0.  1.
         -4    1    6    6    0  503 -0.25769736159E+03 -0.56754005685E+02 -0.31542941001E+03  0.41124768696E+03  0.00000000000E+00 0. -1.
<mgrwt>
<rscale>  0 0.21957290E+04</rscale>
<asrwt>0</asrwt>
<pdfrwt beam="1">  1        1 0.68395742E+00 0.21957290E+04</pdfrwt>
<pdfrwt beam="2">  1       -2 0.41710146E-01 0.21957290E+04</pdfrwt>
<totfact> 0.16117982E-01</totfact>
</mgrwt>
</event>
<event>
12    5  0.5041746E-008  0.1861933E+04  0.7818608E-02  0.8674040E-01
          3   -1    0    0  501    0  0.00000000000E+00  0.00000000000E+00  0.49004793213E+03  0.49004793213E+03  0.00000000000E+00 0. -1.
         -4   -1    0    0    0  501 -0.00000000000E+00 -0.00000000000E+00 -0.17685998162E+04  0.17685998162E+04  0.00000000000E+00 0.  1.
        -24    2    1    2    0    0 -0.69298476525E+03 -0.11765878356E+03 -0.37001417305E+03  0.79828558641E+03  0.79233294796E+02 0.  0.
        254    2    1    2    0    0  0.69298476525E+03  0.11765878356E+03 -0.90853771105E+03  0.14603621619E+04  0.90174574988E+03 0.  0.
         23    2    4    4    0    0  0.89014859484E+03  0.12810650257E+03 -0.59824711188E+03  0.10839463634E+04  0.90908277222E+02 0.  0.
         23    2    4    4    0    0 -0.19716382959E+03 -0.10447719014E+02 -0.31029059917E+03  0.37641579859E+03  0.80161505517E+02 0.  0.
          1    1    3    3  502    0 -0.52133092764E+03 -0.12273373374E+03 -0.27645390340E+03  0.60272403819E+03  0.00000000000E+00 0. -1.
         -2    1    3    3    0  502 -0.17165383761E+03  0.50749501851E+01 -0.93560269646E+02  0.19556154822E+03  0.00000000000E+00 0.  1.
         13    1    5    5    0    0  0.51765842010E+03  0.50475730667E+02 -0.29947584180E+03  0.60016982522E+03  0.00000000000E+00 0. -1.
        -13    1    5    5    0    0  0.37249017474E+03  0.77630771907E+02 -0.29877127008E+03  0.48377653814E+03  0.00000000000E+00 0.  1.
          4    1    6    6  503    0 -0.88197889789E+02 -0.44605741976E+02 -0.14851903425E+03  0.17839967352E+03  0.00000000000E+00 0.  1.
         -4    1    6    6    0  503 -0.10896593980E+03  0.34158022962E+02 -0.16177156492E+03  0.19801612507E+03  0.00000000000E+00 0. -1.
<mgrwt>
<rscale>  0 0.18619331E+04</rscale>
<asrwt>0</asrwt>
<pdfrwt beam="1">  1        3 0.75391989E-01 0.18619331E+04</pdfrwt>
<pdfrwt beam="2">  1       -4 0.27209228E+00 0.18619331E+04</pdfrwt>
<totfact> 0.16422812E-01</totfact>
</mgrwt>
</event>
<event>
12    5  0.5041746E-008  0.1545635E+04  0.7818608E-02  0.8854661E-01
         -2   -1    0    0    0  501 -0.00000000000E+00  0.00000000000E+00  0.65655148286E+03  0.65655148286E+03  0.00000000000E+00 0.  1.
          1   -1    0    0  501    0  0.00000000000E+00 -0.00000000000E+00 -0.90967240807E+03  0.90967240807E+03  0.00000000000E+00 0. -1.
        -24    2    1    2    0    0  0.24705970618E+03 -0.39554917149E+03 -0.30564835594E+03  0.56335310388E+03  0.80300415192E+02 0.  0.
        254    2    1    2    0    0 -0.24705970618E+03  0.39554917149E+03  0.52527430725E+02  0.10028707871E+04  0.88628045171E+03 0.  0.
         23    2    4    4    0    0  0.72882547906E+02  0.76079247970E+01 -0.33927024643E+03  0.35887832691E+03  0.91211880287E+02 0.  0.
         23    2    4    4    0    0 -0.31994225408E+03  0.38794124669E+03  0.39179767715E+03  0.64399246015E+03  0.91429820548E+02 0.  0.
          3    1    3    3  502    0  0.93485062730E+02 -0.21377217978E+03 -0.17682799978E+03  0.29275611575E+03  0.00000000000E+00 0. -1.
         -4    1    3    3    0  502  0.15357464345E+03 -0.18177699171E+03 -0.12882035615E+03  0.27059698813E+03  0.00000000000E+00 0.  1.
         13    1    5    5    0    0  0.52966579973E+02  0.39146822906E+02 -0.28823856536E+03  0.29566772380E+03  0.00000000000E+00 0. -1.
        -13    1    5    5    0    0  0.19915967933E+02 -0.31538898109E+02 -0.51031681070E+02  0.63210603110E+02  0.00000000000E+00 0.  1.
          1    1    6    6  503    0 -0.29045632083E+03  0.33575849136E+03  0.30546973894E+03  0.53889739305E+03  0.00000000000E+00 0. -1.
         -1    1    6    6    0  503 -0.29485933252E+02  0.52182755333E+02  0.86327938213E+02  0.10509506711E+03  0.00000000000E+00 0.  1.
<mgrwt>
<rscale>  0 0.15456348E+04</rscale>
<asrwt>0</asrwt>
<pdfrwt beam="1">  1        1 0.13994960E+00 0.15456348E+04</pdfrwt>
<pdfrwt beam="2">  1       -2 0.10100792E+00 0.15456348E+04</pdfrwt>
<totfact> 0.12172396E+01</totfact>
</mgrwt>
</event>
<event>
12    5  0.5041746E-008  0.4632861E+04  0.7818608E-02  0.7887781E-01
         -2   -1    0    0    0  501 -0.00000000000E+00  0.00000000000E+00  0.18385935961E+04  0.18385935961E+04  0.00000000000E+00 0.  1.
          1   -1    0    0  501    0  0.00000000000E+00 -0.00000000000E+00 -0.29184532568E+04  0.29184532568E+04  0.00000000000E+00 0. -1.
        -24    2    1    2    0    0 -0.93364229391E+03  0.11453394132E+04 -0.22261813541E+04  0.26731732302E+04  0.80507099527E+02 0.  0.
        254    2    1    2    0    0  0.93364229391E+03 -0.11453394132E+04  0.11463216933E+04  0.20838736227E+04  0.91923095394E+03 0.  0.
         23    2    4    4    0    0  0.50064893540E+03 -0.10969223064E+04  0.11025751806E+04  0.16362664284E+04  0.88362283245E+02 0.  0.
         23    2    4    4    0    0  0.43299335851E+03 -0.48417106801E+02  0.43746512722E+02  0.44760719436E+03  0.92795357221E+02 0.  0.
          3    1    3    3  502    0 -0.92059094388E+03  0.11244937199E+04 -0.22043322118E+04  0.26402754235E+04  0.00000000000E+00 0. -1.
         -4    1    3    3    0  502 -0.13051350026E+02  0.20845693300E+02 -0.21849142247E+02  0.32897806669E+02  0.00000000000E+00 0.  1.
         13    1    5    5    0    0  0.26884547114E+02 -0.11201720995E+03  0.87422353593E+02  0.14461432193E+03  0.00000000000E+00 0. -1.
        -13    1    5    5    0    0  0.47376438829E+03 -0.98490509640E+03  0.10151528270E+04  0.14916521064E+04  0.00000000000E+00 0.  1.
          4    1    6    6  503    0  0.34570813720E+02 -0.29551044582E+02 -0.50726669500E+01  0.45761745455E+02  0.00000000000E+00 0. -1.
         -4    1    6    6    0  503  0.39842254479E+03 -0.18866062219E+02  0.48819179672E+02  0.40184544890E+03  0.00000000000E+00 0.  1.
<mgrwt>
<rscale>  0 0.46328607E+04</rscale>
<asrwt>0</asrwt>
<pdfrwt beam="1">  1        1 0.44899281E+00 0.46328607E+04</pdfrwt>
<pdfrwt beam="2">  1       -2 0.28286056E+00 0.46328607E+04</pdfrwt>
<totfact> 0.18129169E-02</totfact>
</mgrwt>
</event>
<event>
12    5  0.5041746E-008  0.1247180E+04  0.7818608E-02  0.9072534E-01
          1   -1    0    0  501    0  0.00000000000E+00  0.00000000000E+00  0.54385801824E+03  0.54385801824E+03  0.00000000000E+00 0. -1.
         -2   -1    0    0    0  501 -0.00000000000E+00 -0.00000000000E+00 -0.71501062781E+03  0.71501062781E+03  0.00000000000E+00 0.  1.
        -24    2    1    2    0    0  0.15405391951E+03  0.23557070814E+03  0.17775893261E+03  0.34239818553E+03  0.80075655957E+02 0.  0.
        254    2    1    2    0    0 -0.15405391951E+03 -0.23557070814E+03 -0.34891154217E+03  0.91647046052E+03  0.79934515204E+03 0.  0.
         23    2    4    4    0    0  0.30058438148E+03 -0.21219962871E+03 -0.20004153801E+03  0.42905728900E+03  0.93241018322E+02 0.  0.
         23    2    4    4    0    0 -0.45463830100E+03 -0.23371079439E+02 -0.14887000417E+03  0.48741317152E+03  0.90372172396E+02 0.  0.
          1    1    3    3  502    0  0.11531955925E+03  0.20312847844E+03  0.17487654300E+03  0.29179030962E+03  0.00000000000E+00 0. -1.
         -2    1    3    3    0  502  0.38734360266E+02  0.32442229709E+02  0.28823896032E+01  0.50607875904E+02  0.00000000000E+00 0.  1.
         13    1    5    5    0    0  0.12136311229E+03 -0.13154534473E+03 -0.64189523448E+02  0.19014067862E+03  0.00000000000E+00 0. -1.
        -13    1    5    5    0    0  0.17922126920E+03 -0.80654283978E+02 -0.13585201456E+03  0.23891661038E+03  0.00000000000E+00 0.  1.
          4    1    6    6  503    0 -0.38101053959E+03  0.10516664131E+02 -0.10549848140E+03  0.39548648660E+03  0.00000000000E+00 0. -1.
         -4    1    6    6    0  503 -0.73627761407E+02 -0.33887743570E+02 -0.43371522764E+02  0.91926684923E+02  0.00000000000E+00 0.  1.
<mgrwt>
<rscale>  0 0.12471796E+04</rscale>
<asrwt>0</asrwt>
<pdfrwt beam="1">  1        1 0.83670464E-01 0.12471796E+04</pdfrwt>
<pdfrwt beam="2">  1       -2 0.11000164E+00 0.12471796E+04</pdfrwt>
<totfact> 0.22340253E+01</totfact>
</mgrwt>
</event>
<event>
12    5  0.5041746E-008  0.1457786E+04  0.7818608E-02  0.8913020E-01
         -2   -1    0    0    0  501 -0.00000000000E+00  0.00000000000E+00  0.91457944792E+03  0.91457944792E+03  0.00000000000E+00 0.  1.
          1   -1    0    0  501    0  0.00000000000E+00 -0.00000000000E+00 -0.58090630291E+03  0.58090630291E+03  0.00000000000E+00 0. -1.
        -24    2    1    2    0    0 -0.11553063582E+01  0.33002252577E+03 -0.20735246162E+03  0.39781501007E+03  0.79658876758E+02 0.  0.
        254    2    1    2    0    0  0.11553063582E+01 -0.33002252577E+03  0.54102560663E+03  0.10976707408E+04  0.89624558345E+03 0.  0.
         23    2    4    4    0    0  0.38078089625E+02 -0.52256946019E+03  0.18683745089E+02  0.53221568861E+03  0.91518715213E+02 0.  0.
         23    2    4    4    0    0 -0.36922783266E+02  0.19254693442E+03  0.52234186154E+03  0.56545505215E+03  0.91982508175E+02 0.  0.
          3    1    3    3  502    0 -0.27308705665E+02  0.24136845607E+03 -0.17690015673E+03  0.30049652651E+03  0.00000000000E+00 0. -1.
         -4    1    3    3    0  502  0.26153399307E+02  0.88654069694E+02 -0.30452304890E+02  0.97318483557E+02  0.00000000000E+00 0.  1.
         13    1    5    5    0    0  0.12673178816E+02 -0.48993777212E+03  0.11467434930E+02  0.49023579233E+03  0.00000000000E+00 0. -1.
        -13    1    5    5    0    0  0.25404910809E+02 -0.32631688070E+02  0.72163101593E+01  0.41979896281E+02  0.00000000000E+00 0.  1.
          1    1    6    6  503    0 -0.29850912663E+02  0.19205220544E+03  0.52336865165E+03  0.55829192375E+03  0.00000000000E+00 0. -1.
         -1    1    6    6    0  503 -0.70718706034E+01  0.49472898909E+00 -0.10267901068E+01  0.71631284037E+01  0.00000000000E+00 0.  1.
<mgrwt>
<rscale>  0 0.14577859E+04</rscale>
<asrwt>0</asrwt>
<pdfrwt beam="1">  1        1 0.89370200E-01 0.14577859E+04</pdfrwt>
<pdfrwt beam="2">  1       -2 0.14070453E+00 0.14577859E+04</pdfrwt>
<totfact> 0.10797063E+01</totfact>
</mgrwt>
</event>
<event>
12    5  0.5041746E-008  0.3062803E+04  0.7818608E-02  0.8226021E-01
         -2   -1    0    0    0  501 -0.00000000000E+00  0.00000000000E+00  0.89584539215E+03  0.89584539215E+03  0.00000000000E+00 0.  1.
          1   -1    0    0  501    0  0.00000000000E+00 -0.00000000000E+00 -0.26178515163E+04  0.26178515163E+04  0.00000000000E+00 0. -1.
        -24    2    1    2    0    0 -0.11080599080E+04 -0.10977496953E+03 -0.17504559527E+04  0.20760856312E+04  0.78665124999E+02 0.  0.
        254    2    1    2    0    0  0.11080599080E+04  0.10977496953E+03  0.28449828597E+02  0.14376112772E+04  0.90888364929E+03 0.  0.
         23    2    4    4    0    0  0.10961993950E+04  0.35186329109E+03  0.12339090602E+03  0.11613572959E+04  0.89802916524E+02 0.  0.
         23    2    4    4    0    0  0.11860513001E+02 -0.24208832156E+03 -0.94941077420E+02  0.27625398131E+03  0.92493387893E+02 0.  0.
          3    1    3    3  502    0 -0.10656171592E+04 -0.96395075480E+02 -0.16547672455E+04  0.19705548907E+04  0.00000000000E+00 0. -1.
         -4    1    3    3    0  502 -0.42442748801E+02 -0.13379894051E+02 -0.95688707247E+02  0.10553074047E+03  0.00000000000E+00 0.  1.
         13    1    5    5    0    0  0.62377924181E+03  0.15773378367E+03  0.87665098865E+02  0.64935788174E+03  0.00000000000E+00 0. -1.
        -13    1    5    5    0    0  0.47242015323E+03  0.19412950742E+03  0.35725807153E+02  0.51199941418E+03  0.00000000000E+00 0.  1.
          4    1    6    6  503    0 -0.29775493996E+02 -0.71615550080E+02 -0.17904345193E+01  0.77579460631E+02  0.00000000000E+00 0. -1.
         -4    1    6    6    0  503  0.41636006997E+02 -0.17047277148E+03 -0.93150642901E+02  0.19867452068E+03  0.00000000000E+00 0.  1.
<mgrwt>
<rscale>  0 0.30628028E+04</rscale>
<asrwt>0</asrwt>
<pdfrwt beam="1">  1        1 0.40274639E+00 0.30628028E+04</pdfrwt>
<pdfrwt beam="2">  1       -2 0.13782237E+00 0.30628028E+04</pdfrwt>
<totfact> 0.31224168E-01</totfact>
</mgrwt>
</event>
<event>
12    5  0.5041746E-008  0.1963237E+04  0.7818608E-02  0.8624004E-01
          1   -1    0    0  501    0  0.00000000000E+00  0.00000000000E+00  0.40165099890E+04  0.40165099890E+04  0.00000000000E+00 0. -1.
         -2   -1    0    0    0  501 -0.00000000000E+00 -0.00000000000E+00 -0.23990363065E+03  0.23990363065E+03  0.00000000000E+00 0.  1.
        -24    2    1    2    0    0 -0.12796938137E+03 -0.33209947772E+03  0.29929784960E+04  0.30151706060E+04  0.81653415229E+02 0.  0.
        254    2    1    2    0    0  0.12796938137E+03  0.33209947772E+03  0.78362786229E+03  0.12412430136E+04  0.89439664944E+03 0.  0.
         23    2    4    4    0    0  0.44142858655E+02  0.20737942848E+03 -0.16027993644E+03  0.28136512285E+03  0.92313893862E+02 0.  0.
         23    2    4    4    0    0  0.83826522718E+02  0.12472004924E+03  0.94390779873E+03  0.95987789073E+03  0.88440126726E+02 0.  0.
          1    1    3    3  502    0 -0.25482382267E+02 -0.17945575724E+03  0.15066564262E+04  0.15175201175E+04  0.00000000000E+00 0. -1.
         -2    1    3    3    0  502 -0.10248699911E+03 -0.15264372048E+03  0.14863220699E+04  0.14976504885E+04  0.00000000000E+00 0.  1.
         13    1    5    5    0    0  0.10936394802E+02  0.15504459384E+03 -0.66737066545E+02  0.16915160910E+03  0.00000000000E+00 0.  1.
        -13    1    5    5    0    0  0.33206463852E+02  0.52334834645E+02 -0.93542869898E+02  0.11221351375E+03  0.00000000000E+00 0. -1.
          2    1    6    6  503    0 -0.16056590190E+02  0.39508826233E+02  0.26152897456E+03  0.26498333150E+03  0.00000000000E+00 0. -1.
         -2    1    6    6    0  503  0.99883112908E+02  0.85211223007E+02  0.68237882417E+03  0.69489455923E+03  0.00000000000E+00 0.  1.
<mgrwt>
<rscale>  0 0.19632375E+04</rscale>
<asrwt>0</asrwt>
<pdfrwt beam="1">  1        1 0.61792457E+00 0.19632375E+04</pdfrwt>
<pdfrwt beam="2">  1       -2 0.36908254E-01 0.19632375E+04</pdfrwt>
<totfact> 0.52943675E-01</totfact>
</mgrwt>
</event>
<event>
12    5  0.5041746E-008  0.2672385E+04  0.7818608E-02  0.8344021E-01
         -2   -1    0    0    0  501 -0.00000000000E+00  0.00000000000E+00  0.51261046677E+03  0.51261046677E+03  0.00000000000E+00 0.  1.
          1   -1    0    0  501    0  0.00000000000E+00 -0.00000000000E+00 -0.34829767340E+04  0.34829767340E+04  0.00000000000E+00 0. -1.
        -24    2    1    2    0    0  0.11021236414E+04  0.53148307959E+02 -0.71315529868E+03  0.13162368755E+04  0.79923519658E+02 0.  0.
        254    2    1    2    0    0 -0.11021236414E+04 -0.53148307959E+02 -0.22572109686E+04  0.26793503253E+04  0.93081445268E+03 0.  0.
         23    2    4    4    0    0 -0.81300331689E+03 -0.43881887458E+03 -0.12279989796E+04  0.15391618677E+04  0.86610410294E+02 0.  0.
         23    2    4    4    0    0 -0.28912032448E+03  0.38567056662E+03 -0.10292119890E+04  0.11401884576E+04  0.91760843956E+02 0.  0.
          3    1    3    3  502    0  0.69661904841E+02 -0.15938141236E+02 -0.49549277813E+02  0.86959394340E+02  0.00000000000E+00 0. -1.
         -4    1    3    3    0  502  0.10324617365E+04  0.69086449195E+02 -0.66360602087E+03  0.12292774812E+04  0.00000000000E+00 0.  1.
         13    1    5    5    0    0 -0.70766586687E+03 -0.37171156996E+03 -0.10115273209E+04  0.12892431854E+04  0.00000000000E+00 0. -1.
        -13    1    5    5    0    0 -0.10533745002E+03 -0.67107304619E+02 -0.21647165872E+03  0.24991868225E+03  0.00000000000E+00 0.  1.
          3    1    6    6  503    0 -0.24651761208E+03  0.36981393655E+03 -0.95087781164E+03  0.10496198804E+04  0.00000000000E+00 0. -1.
         -3    1    6    6    0  503 -0.42602712404E+02  0.15856630064E+02 -0.78334177368E+02  0.90568577140E+02  0.00000000000E+00 0.  1.
<mgrwt>
<rscale>  0 0.26723849E+04</rscale>
<asrwt>0</asrwt>
<pdfrwt beam="1">  1        1 0.53584259E+00 0.26723849E+04</pdfrwt>
<pdfrwt beam="2">  1       -2 0.78863147E-01 0.26723849E+04</pdfrwt>
<totfact> 0.28327235E-01</totfact>
</mgrwt>
</event>
<event>
12    5  0.5041746E-008  0.1042145E+04  0.7818608E-02  0.9263492E-01
         -2   -1    0    0    0  501 -0.00000000000E+00  0.00000000000E+00  0.18651070802E+03  0.18651070802E+03  0.00000000000E+00 0.  1.
          1   -1    0    0  501    0  0.00000000000E+00 -0.00000000000E+00 -0.14557682780E+04  0.14557682780E+04  0.00000000000E+00 0. -1.
        -24    2    1    2    0    0  0.21312910162E+02  0.37790321886E+01 -0.33144093953E+03  0.34162751234E+03  0.79923335580E+02 0.  0.
        254    2    1    2    0    0 -0.21312910162E+02 -0.37790321886E+01 -0.93781663046E+03  0.13006514737E+04  0.90095821347E+03 0.  0.
         23    2    4    4    0    0 -0.32459773355E+03 -0.14696205991E+03 -0.87298537691E+03  0.94725769495E+03  0.90731122954E+02 0.  0.
         23    2    4    4    0    0  0.30328482338E+03  0.14318302772E+03 -0.64831253550E+02  0.35339377874E+03  0.90559416348E+02 0.  0.
          1    1    3    3  502    0 -0.14708699343E+02  0.26424380091E+02 -0.22458495180E+03  0.22661199058E+03  0.00000000000E+00 0. -1.
         -2    1    3    3    0  502  0.36021609505E+02 -0.22645347903E+02 -0.10685598773E+03  0.11501552176E+03  0.00000000000E+00 0.  1.
         13    1    5    5    0    0 -0.33036206831E+03 -0.14219729830E+03 -0.84657576406E+03  0.91980959558E+03  0.00000000000E+00 0.  1.
        -13    1    5    5    0    0  0.57643347633E+01 -0.47647616114E+01 -0.26409612852E+02  0.27448099378E+02  0.00000000000E+00 0. -1.
          1    1    6    6  503    0  0.74532418041E+02  0.70616001858E+02  0.69334756388E+01  0.10290662827E+03  0.00000000000E+00 0. -1.
         -1    1    6    6    0  503  0.22875240534E+03  0.72567025866E+02 -0.71764729188E+02  0.25048715047E+03  0.00000000000E+00 0.  1.
<mgrwt>
<rscale>  0 0.10421447E+04</rscale>
<asrwt>0</asrwt>
<pdfrwt beam="1">  1        1 0.22396435E+00 0.10421447E+04</pdfrwt>
<pdfrwt beam="2">  1       -2 0.28693956E-01 0.10421447E+04</pdfrwt>
<totfact> 0.68637132E+01</totfact>
</mgrwt>
</event>
<event>
12    5  0.5041746E-008  0.2634438E+04  0.7818608E-02  0.8356597E-01
          1   -1    0    0  501    0  0.00000000000E+00  0.00000000000E+00  0.32585773344E+04  0.32585773344E+04  0.00000000000E+00 0. -1.
         -2   -1    0    0    0  501 -0.00000000000E+00 -0.00000000000E+00 -0.53246118847E+03  0.53246118847E+03  0.00000000000E+00 0.  1.
        -24    2    1    2    0    0 -0.10085409589E+04 -0.20061585601E+03  0.40481497226E+03  0.11079785568E+04  0.79622440856E+02 0.  0.
        254    2    1    2    0    0  0.10085409589E+04  0.20061585601E+03  0.23213011737E+04  0.26830599661E+04  0.86773847172E+03 0.  0.
         23    2    4    4    0    0  0.57188760808E+03  0.42224453091E+03  0.18995477996E+04  0.20302127107E+04  0.90199376541E+02 0.  0.
         23    2    4    4    0    0  0.43665335081E+03 -0.22162867490E+03  0.42175337408E+03  0.65284725540E+03  0.92456541318E+02 0.  0.
          3    1    3    3  502    0 -0.18812656196E+03 -0.14987772002E+02  0.97711646734E+02  0.21251776992E+03  0.00000000000E+00 0. -1.
         -4    1    3    3    0  502 -0.82041439693E+03 -0.18562808401E+03  0.30710332552E+03  0.89546078686E+03  0.00000000000E+00 0.  1.
         13    1    5    5    0    0  0.65530582196E+02  0.29151452831E+02  0.13561828442E+03  0.15341572108E+03  0.00000000000E+00 0. -1.
        -13    1    5    5    0    0  0.50635702588E+03  0.39309307808E+03  0.17639295152E+04  0.18767969896E+04  0.00000000000E+00 0.  1.
          4    1    6    6  503    0  0.65080363692E+02 -0.46473250250E+02  0.30614223459E+02  0.85629710995E+02  0.00000000000E+00 0. -1.
         -4    1    6    6    0  503  0.37157298712E+03 -0.17515542465E+03  0.39113915062E+03  0.56721754441E+03  0.00000000000E+00 0.  1.
<mgrwt>
<rscale>  0 0.26344381E+04</rscale>
<asrwt>0</asrwt>
<pdfrwt beam="1">  1        1 0.50131958E+00 0.26344381E+04</pdfrwt>
<pdfrwt beam="2">  1       -2 0.81917108E-01 0.26344381E+04</pdfrwt>
<totfact> 0.38857424E-01</totfact>
</mgrwt>
</event>
<event>
12    5  0.5041746E-008  0.1098580E+04  0.7818608E-02  0.9206577E-01
         -2   -1    0    0    0  501 -0.00000000000E+00  0.00000000000E+00  0.78244479429E+03  0.78244479429E+03  0.00000000000E+00 0.  1.
          1   -1    0    0  501    0  0.00000000000E+00 -0.00000000000E+00 -0.38561149960E+03  0.38561149960E+03  0.00000000000E+00 0. -1.
        -24    2    1    2    0    0 -0.72732619477E+01 -0.15074530891E+03  0.15347500646E+03  0.22932309054E+03  0.79104069097E+02 0.  0.
        254    2    1    2    0    0  0.72732619477E+01  0.15074530891E+03  0.24335828822E+03  0.93873320335E+03  0.89399089600E+03 0.  0.
         23    2    4    4    0    0  0.16748975411E+03  0.36153296145E+03 -0.16644944045E+03  0.44233216220E+03  0.95882352628E+02 0.  0.
         23    2    4    4    0    0 -0.16021649216E+03 -0.21078765254E+03  0.40980772867E+03  0.49640104115E+03  0.91492405962E+02 0.  0.
          1    1    3    3  502    0 -0.86118779327E+01 -0.16168741972E+02  0.66747889345E+02  0.69216135333E+02  0.00000000000E+00 0. -1.
         -2    1    3    3    0  502  0.13386159850E+01 -0.13457656694E+03  0.86727117119E+02  0.16010695521E+03  0.00000000000E+00 0.  1.
         13    1    5    5    0    0  0.16980288888E+03  0.35219572154E+03 -0.17599863765E+03  0.42877776038E+03  0.00000000000E+00 0.  1.
        -13    1    5    5    0    0 -0.23131347700E+01  0.93372399108E+01  0.95491971983E+01  0.13554401822E+02  0.00000000000E+00 0. -1.
          3    1    6    6  503    0 -0.58669242309E+02 -0.13597893318E+03  0.17009944308E+03  0.22553529834E+03  0.00000000000E+00 0. -1.
         -3    1    6    6    0  503 -0.10154724985E+03 -0.74808719368E+02  0.23970828560E+03  0.27086574281E+03  0.00000000000E+00 0.  1.
<mgrwt>
<rscale>  0 0.10985804E+04</rscale>
<asrwt>0</asrwt>
<pdfrwt beam="1">  1        1 0.59324847E-01 0.10985804E+04</pdfrwt>
<pdfrwt beam="2">  1       -2 0.12037612E+00 0.10985804E+04</pdfrwt>
<totfact> 0.28882253E+01</totfact>
</mgrwt>
</event>
<event>
12    5  0.5041746E-008  0.2026089E+04  0.7818608E-02  0.8594519E-01
         -2   -1    0    0    0  501 -0.00000000000E+00  0.00000000000E+00  0.48276230718E+03  0.48276230718E+03  0.00000000000E+00 0.  1.
          1   -1    0    0  501    0  0.00000000000E+00 -0.00000000000E+00 -0.21258060816E+04  0.21258060816E+04  0.00000000000E+00 0. -1.
        -24    2    1    2    0    0  0.35054916426E+02  0.48825825302E+03  0.16951763180E+03  0.52407654427E+03  0.79341212237E+02 0.  0.
        254    2    1    2    0    0 -0.35054916426E+02 -0.48825825302E+03 -0.18125614062E+04  0.20844918445E+04  0.90559506938E+03 0.  0.
         23    2    4    4    0    0  0.76643958667E+01 -0.34701553400E+02  0.85434097989E+02  0.13046535631E+03  0.91974362326E+02 0.  0.
         23    2    4    4    0    0 -0.42719312293E+02 -0.45355669962E+03 -0.18979955042E+04  0.19540264882E+04  0.91071198282E+02 0.  0.
          3    1    3    3  502    0 -0.24762768595E+02  0.19778467465E+03  0.66917225057E+02  0.21026147351E+03  0.00000000000E+00 0. -1.
         -4    1    3    3    0  502  0.59817685021E+02  0.29047357837E+03  0.10260040674E+03  0.31381507076E+03  0.00000000000E+00 0.  1.
         13    1    5    5    0    0  0.21845823119E+02  0.26976315215E+02  0.37299175677E+02  0.50952822066E+02  0.00000000000E+00 0. -1.
        -13    1    5    5    0    0 -0.14181427253E+02 -0.61677868614E+02  0.48134922313E+02  0.79512534243E+02  0.00000000000E+00 0.  1.
          3    1    6    6  503    0 -0.36757618949E+02 -0.16938416957E+03 -0.56159934561E+03  0.58773798961E+03  0.00000000000E+00 0. -1.
         -3    1    6    6    0  503 -0.59616933444E+01 -0.28417253005E+03 -0.13363961586E+04  0.13662884986E+04  0.00000000000E+00 0.  1.
<mgrwt>
<rscale>  0 0.20260889E+04</rscale>
<asrwt>0</asrwt>
<pdfrwt beam="1">  1        1 0.32704708E+00 0.20260889E+04</pdfrwt>
<pdfrwt beam="2">  1       -2 0.74271126E-01 0.20260889E+04</pdfrwt>
<totfact> 0.32467972E+00</totfact>
</mgrwt>
</event>
<event>
12    5  0.5041746E-008  0.2105362E+04  0.7818608E-02  0.8558885E-01
         -2   -1    0    0    0  501 -0.00000000000E+00  0.00000000000E+00  0.70681226123E+03  0.70681226123E+03  0.00000000000E+00 0.  1.
          1   -1    0    0  501    0  0.00000000000E+00 -0.00000000000E+00 -0.15677962059E+04  0.15677962059E+04  0.00000000000E+00 0. -1.
        -24    2    1    2    0    0 -0.21754354476E+03  0.37282280570E+03  0.45185234615E+03  0.63055409641E+03  0.84296426134E+02 0.  0.
        254    2    1    2    0    0  0.21754354476E+03 -0.37282280570E+03 -0.13128362908E+04  0.16440543707E+04  0.89053557429E+03 0.  0.
         23    2    4    4    0    0  0.22599198181E+03 -0.85806339795E+02 -0.13176511578E+04  0.13427794636E+04  0.91744265460E+02 0.  0.
         23    2    4    4    0    0 -0.84484370496E+01 -0.28701646590E+03  0.48148670490E+01  0.30127490712E+03  0.91068978959E+02 0.  0.
          1    1    3    3  502    0 -0.32860604533E+02  0.20298361327E+02  0.64594300790E+02  0.75261321390E+02  0.00000000000E+00 0. -1.
         -2    1    3    3    0  502 -0.18468294023E+03  0.35252444437E+03  0.38725804536E+03  0.55529277502E+03  0.00000000000E+00 0.  1.
         13    1    5    5    0    0  0.14573890639E+03 -0.63408940660E+02 -0.10637220284E+04  0.10755301373E+04  0.00000000000E+00 0. -1.
        -13    1    5    5    0    0  0.80253075423E+02 -0.22397399135E+02 -0.25392912949E+03  0.26724932629E+03  0.00000000000E+00 0.  1.
          1    1    6    6  503    0 -0.20877998134E+02 -0.13080476576E+03  0.44299088899E+02  0.13967171091E+03  0.00000000000E+00 0. -1.
         -1    1    6    6    0  503  0.12429561085E+02 -0.15621170015E+03 -0.39484221850E+02  0.16160319621E+03  0.00000000000E+00 0.  1.
<mgrwt>
<rscale>  0 0.21053623E+04</rscale>
<asrwt>0</asrwt>
<pdfrwt beam="1">  1        1 0.24119941E+00 0.21053623E+04</pdfrwt>
<pdfrwt beam="2">  1       -2 0.10874035E+00 0.21053623E+04</pdfrwt>
<totfact> 0.32017125E+00</totfact>
</mgrwt>
</event>
<event>
12    5  0.5041746E-008  0.2143056E+04  0.7818608E-02  0.8542511E-01
          1   -1    0    0  501    0  0.00000000000E+00  0.00000000000E+00  0.78152215533E+03  0.78152215533E+03  0.00000000000E+00 0. -1.
         -2   -1    0    0    0  501 -0.00000000000E+00 -0.00000000000E+00 -0.14691481428E+04  0.14691481428E+04  0.00000000000E+00 0.  1.
        -24    2    1    2    0    0 -0.16789019369E+03  0.56766630549E+03  0.40825873700E+03  0.72356344518E+03  0.80229117789E+02 0.  0.
        254    2    1    2    0    0  0.16789019369E+03 -0.56766630549E+03 -0.10958847244E+04  0.15271068529E+04  0.88354957950E+03 0.  0.
         23    2    4    4    0    0 -0.18081566653E+03  0.11383473974E+03 -0.50508829018E+03  0.55571257616E+03  0.89719748061E+02 0.  0.
         23    2    4    4    0    0  0.34870586023E+03 -0.68150104523E+03 -0.59079643425E+03  0.97139427675E+03  0.92341553836E+02 0.  0.
          3    1    3    3  502    0 -0.15557350973E+03  0.41522961788E+03  0.32181299415E+03  0.54788899943E+03  0.00000000000E+00 0. -1.
         -4    1    3    3    0  502 -0.12316683968E+02  0.15243668762E+03  0.86445742852E+02  0.17567444576E+03  0.00000000000E+00 0.  1.
         13    1    5    5    0    0 -0.12394299743E+03  0.26661303402E+02 -0.30117900883E+03  0.32677436722E+03  0.00000000000E+00 0. -1.
        -13    1    5    5    0    0 -0.56872669106E+02  0.87173436337E+02 -0.20390928135E+03  0.22893820894E+03  0.00000000000E+00 0.  1.
          4    1    6    6  503    0  0.31531426332E+03 -0.55207782881E+03 -0.46330129855E+03  0.78667725717E+03  0.00000000000E+00 0. -1.
         -4    1    6    6    0  503  0.33391596912E+02 -0.12942321643E+03 -0.12749513570E+03  0.18471701958E+03  0.00000000000E+00 0.  1.
<mgrwt>
<rscale>  0 0.21430556E+04</rscale>
<asrwt>0</asrwt>
<pdfrwt beam="1">  1        1 0.12023418E+00 0.21430556E+04</pdfrwt>
<pdfrwt beam="2">  1       -2 0.22602279E+00 0.21430556E+04</pdfrwt>
<totfact> 0.16681731E+00</totfact>
</mgrwt>
</event>
<event>
12    5  0.5041746E-008  0.1839794E+04  0.7818608E-02  0.8685419E-01
          1   -1    0    0  501    0  0.00000000000E+00  0.00000000000E+00  0.14987746056E+04  0.14987746056E+04  0.00000000000E+00 0. -1.
         -2   -1    0    0    0  501 -0.00000000000E+00 -0.00000000000E+00 -0.56460148353E+03  0.56460148353E+03  0.00000000000E+00 0.  1.
        -24    2    1    2    0    0 -0.45440215137E+03  0.47450335492E+03  0.77332506308E+02  0.66625394223E+03  0.79241718806E+02 0.  0.
        254    2    1    2    0    0  0.45440215137E+03 -0.47450335492E+03  0.85684061573E+03  0.13971221469E+04  0.88664519596E+03 0.  0.
         23    2    4    4    0    0  0.49349023064E+03  0.81756140106E+02  0.56856127767E+03  0.76288772046E+03  0.92298826557E+02 0.  0.
         23    2    4    4    0    0 -0.39088079274E+02 -0.55625949503E+03  0.28827933806E+03  0.63423442641E+03  0.90530807709E+02 0.  0.
          3    1    3    3  502    0 -0.47064682758E+02  0.26664149524E+02 -0.87134975178E+01  0.54790384850E+02  0.00000000000E+00 0. -1.
         -4    1    3    3    0  502 -0.40733746861E+03  0.44783920540E+03  0.86046003825E+02  0.61146355738E+03  0.00000000000E+00 0.  1.
         13    1    5    5    0    0  0.39236469900E+03  0.30094842045E+02  0.46538846470E+03  0.60946056445E+03  0.00000000000E+00 0. -1.
        -13    1    5    5    0    0  0.10112553164E+03  0.51661298061E+02  0.10317281296E+03  0.15342715601E+03  0.00000000000E+00 0.  1.
          2    1    6    6  503    0 -0.60658296853E+02 -0.22858782888E+03  0.12495118938E+03  0.26747826868E+03  0.00000000000E+00 0. -1.
         -2    1    6    6    0  503  0.21570217579E+02 -0.32767166615E+03  0.16332814867E+03  0.36675615773E+03  0.00000000000E+00 0.  1.
<mgrwt>
<rscale>  0 0.18397939E+04</rscale>
<asrwt>0</asrwt>
<pdfrwt beam="1">  1        1 0.23058071E+00 0.18397939E+04</pdfrwt>
<pdfrwt beam="2">  1       -2 0.86861767E-01 0.18397939E+04</pdfrwt>
<totfact> 0.62030157E+00</totfact>
</mgrwt>
</event>
<event>
12    5  0.5041746E-008  0.1596381E+04  0.7818608E-02  0.8822774E-01
         -2   -1    0    0    0  501 -0.00000000000E+00  0.00000000000E+00  0.39690044433E+03  0.39690044433E+03  0.00000000000E+00 0.  1.
          1   -1    0    0  501    0  0.00000000000E+00 -0.00000000000E+00 -0.16052088599E+04  0.16052088599E+04  0.00000000000E+00 0. -1.
        -24    2    1    2    0    0  0.13220506928E+03  0.43949532993E+03 -0.70991401188E+02  0.47091854540E+03  0.78039553950E+02 0.  0.
        254    2    1    2    0    0 -0.13220506928E+03 -0.43949532993E+03 -0.11373170144E+04  0.15311907589E+04  0.91674468821E+03 0.  0.
         23    2    4    4    0    0 -0.46415663204E+03 -0.60866753357E+02 -0.34220165457E+03  0.58570629695E+03  0.82484866277E+02 0.  0.
         23    2    4    4    0    0  0.33195156277E+03 -0.37862857658E+03 -0.79511535986E+03  0.94548446192E+03  0.90448843141E+02 0.  0.
          1    1    3    3  502    0  0.11833525532E+02  0.13631282987E+03  0.11607325275E+01  0.13683043234E+03  0.00000000000E+00 0. -1.
         -2    1    3    3    0  502  0.12037154374E+03  0.30318250006E+03 -0.72152133715E+02  0.33408811306E+03  0.00000000000E+00 0.  1.
         13    1    5    5    0    0 -0.19360776348E+03 -0.12212653802E+02 -0.94961272732E+02  0.21598786612E+03  0.00000000000E+00 0. -1.
        -13    1    5    5    0    0 -0.27054886856E+03 -0.48654099555E+02 -0.24724038184E+03  0.36971843083E+03  0.00000000000E+00 0.  1.
          1    1    6    6  503    0  0.21797238496E+03 -0.26712930385E+03 -0.61404966482E+03  0.70422085772E+03  0.00000000000E+00 0. -1.
         -1    1    6    6    0  503  0.11397917781E+03 -0.11149927273E+03 -0.18106569504E+03  0.24126360420E+03  0.00000000000E+00 0.  1.
<mgrwt>
<rscale>  0 0.15963810E+04</rscale>
<asrwt>0</asrwt>
<pdfrwt beam="1">  1        1 0.24695521E+00 0.15963810E+04</pdfrwt>
<pdfrwt beam="2">  1       -2 0.61061608E-01 0.15963810E+04</pdfrwt>
<totfact> 0.11632863E+01</totfact>
</mgrwt>
</event>
<event>
12    5  0.5041746E-008  0.1440109E+04  0.7818608E-02  0.8925287E-01
         -2   -1    0    0    0  501 -0.00000000000E+00  0.00000000000E+00  0.25510358816E+03  0.25510358816E+03  0.00000000000E+00 0.  1.
          1   -1    0    0  501    0  0.00000000000E+00 -0.00000000000E+00 -0.20324229509E+04  0.20324229509E+04  0.00000000000E+00 0. -1.
        -24    2    1    2    0    0 -0.22696500245E+03  0.22714936119E+03 -0.99414405732E+03  0.10476954104E+04  0.78951388106E+02 0.  0.
        254    2    1    2    0    0  0.22696500245E+03 -0.22714936119E+03 -0.78317530540E+03  0.12398311286E+04  0.90592920467E+03 0.  0.
         23    2    4    4    0    0 -0.10532144952E+03  0.26056770993E+03 -0.58038669130E+02  0.30079987238E+03  0.90132884821E+02 0.  0.
         23    2    4    4    0    0  0.33228645196E+03 -0.48771707112E+03 -0.72513663628E+03  0.93903125624E+03  0.87603260828E+02 0.  0.
          3    1    3    3  502    0 -0.20131698958E+03  0.21696544253E+03 -0.95491373587E+03  0.99973135216E+03  0.00000000000E+00 0. -1.
         -4    1    3    3    0  502 -0.25648012868E+02  0.10183918666E+02 -0.39230321455E+02  0.47964058261E+02  0.00000000000E+00 0.  1.
         13    1    5    5    0    0  0.46880874301E+01  0.62704883743E+02 -0.38129961970E+02  0.73537572769E+02  0.00000000000E+00 0. -1.
        -13    1    5    5    0    0 -0.11000953695E+03  0.19786282618E+03 -0.19908707159E+02  0.22726229961E+03  0.00000000000E+00 0.  1.
          2    1    6    6  503    0  0.40824221505E+02 -0.12361559560E+03 -0.15334362404E+03  0.20115093728E+03  0.00000000000E+00 0. -1.
         -2    1    6    6    0  503  0.29146223046E+03 -0.36410147552E+03 -0.57179301224E+03  0.73788031895E+03  0.00000000000E+00 0.  1.
<mgrwt>
<rscale>  0 0.14401089E+04</rscale>
<asrwt>0</asrwt>
<pdfrwt beam="1">  1        1 0.31268046E+00 0.14401089E+04</pdfrwt>
<pdfrwt beam="2">  1       -2 0.39246706E-01 0.14401089E+04</pdfrwt>
<totfact> 0.14851131E+01</totfact>
</mgrwt>
</event>
<event>
12    5  0.5041746E-008  0.1777654E+04  0.7818608E-02  0.8718274E-01
         -2   -1    0    0    0  501 -0.00000000000E+00  0.00000000000E+00  0.97761319719E+03  0.97761319719E+03  0.00000000000E+00 0.  1.
          1   -1    0    0  501    0  0.00000000000E+00 -0.00000000000E+00 -0.80810402427E+03  0.80810402427E+03  0.00000000000E+00 0. -1.
        -24    2    1    2    0    0 -0.19861391606E+03 -0.28291456030E+03  0.64303725385E+03  0.73430944169E+03  0.78900635248E+02 0.  0.
        254    2    1    2    0    0  0.19861391606E+03  0.28291456030E+03 -0.47352808093E+03  0.10514077798E+04  0.87277794417E+03 0.  0.
         23    2    4    4    0    0 -0.45874457158E+02  0.47111475763E+03 -0.53967676670E+03  0.72351766801E+03  0.90405877786E+02 0.  0.
         23    2    4    4    0    0  0.24448837321E+03 -0.18820019733E+03  0.66148685768E+02  0.32789011175E+03  0.89120131530E+02 0.  0.
          3    1    3    3  502    0  0.65960720506E+01 -0.45559711147E+01  0.87108207890E+01  0.11838219381E+02  0.00000000000E+00 0. -1.
         -4    1    3    3    0  502 -0.20520998811E+03 -0.27835858919E+03  0.63432643306E+03  0.72247122231E+03  0.00000000000E+00 0.  1.
         13    1    5    5    0    0 -0.61715808883E+02  0.20199508153E+03 -0.26148561300E+03  0.33613327689E+03  0.00000000000E+00 0.  1.
        -13    1    5    5    0    0  0.15841351725E+02  0.26911967610E+03 -0.27819115369E+03  0.38738439112E+03  0.00000000000E+00 0. -1.
          3    1    6    6  503    0  0.40049575277E+02 -0.66295940367E+02  0.43390121068E+02  0.88779630520E+02  0.00000000000E+00 0. -1.
         -3    1    6    6    0  503  0.20443879794E+03 -0.12190425696E+03  0.22758564700E+02  0.23911048123E+03  0.00000000000E+00 0.  1.
<mgrwt>
<rscale>  0 0.17776537E+04</rscale>
<asrwt>0</asrwt>
<pdfrwt beam="1">  1        1 0.12432370E+00 0.17776537E+04</pdfrwt>
<pdfrwt beam="2">  1       -2 0.15040203E+00 0.17776537E+04</pdfrwt>
<totfact> 0.53578295E+00</totfact>
</mgrwt>
</event>
<event>
12    5  0.5202779E-008  0.1357670E+04  0.7818608E-02  0.8985042E-01
         -2   -1    0    0    0  501 -0.00000000000E+00  0.00000000000E+00  0.70320623679E+03  0.70320623679E+03  0.00000000000E+00 0.  1.
          1   -1    0    0  501    0  0.00000000000E+00 -0.00000000000E+00 -0.65530836064E+03  0.65530836064E+03  0.00000000000E+00 0. -1.
        -24    2    1    2    0    0 -0.27653184209E+03 -0.21886730594E+03  0.22705464673E+03  0.42790959941E+03  0.84735207349E+02 0.  0.
        254    2    1    2    0    0  0.27653184209E+03  0.21886730594E+03 -0.17915677059E+03  0.93060499802E+03  0.84235132610E+03 0.  0.
         23    2    4    4    0    0 -0.25087765374E+03 -0.10314934083E+03 -0.26232855261E+02  0.28770484129E+03  0.92230848135E+02 0.  0.
         23    2    4    4    0    0  0.52740949582E+03  0.32201664677E+03 -0.15292391533E+03  0.64290015673E+03  0.89885430178E+02 0.  0.
          3    1    3    3  502    0 -0.67622843086E+01  0.63327319384E+01  0.14524130975E+02  0.17227372506E+02  0.00000000000E+00 0. -1.
         -4    1    3    3    0  502 -0.26976955778E+03 -0.22520003788E+03  0.21253051576E+03  0.41068222691E+03  0.00000000000E+00 0.  1.
         13    1    5    5    0    0 -0.14774142117E+02  0.85385667054E+01  0.15681587969E+02  0.23175301463E+02  0.00000000000E+00 0. -1.
        -13    1    5    5    0    0 -0.23610351162E+03 -0.11168790753E+03 -0.41914443231E+02  0.26452953982E+03  0.00000000000E+00 0.  1.
          1    1    6    6  503    0  0.27100646520E+02 -0.34280690285E+01 -0.10750769869E+02  0.29356017302E+02  0.00000000000E+00 0. -1.
         -1    1    6    6    0  503  0.50030884930E+03  0.32544471580E+03 -0.14217314546E+03  0.61354413943E+03  0.00000000000E+00 0.  1.
<mgrwt>
<rscale>  0 0.13576700E+04</rscale>
<asrwt>0</asrwt>
<pdfrwt beam="1">  1        1 0.10081667E+00 0.13576700E+04</pdfrwt>
<pdfrwt beam="2">  1       -2 0.10818557E+00 0.13576700E+04</pdfrwt>
<totfact> 0.17625071E+01</totfact>
</mgrwt>
</event>
<event>
12    5  0.5041746E-008  0.1534083E+04  0.7818608E-02  0.8862100E-01
         -2   -1    0    0    0  501 -0.00000000000E+00  0.00000000000E+00  0.30400437192E+03  0.30400437192E+03  0.00000000000E+00 0.  1.
          1   -1    0    0  501    0  0.00000000000E+00 -0.00000000000E+00 -0.19353415659E+04  0.19353415659E+04  0.00000000000E+00 0. -1.
        -24    2    1    2    0    0  0.16864762271E+03  0.86793686592E+02 -0.12063695258E+04  0.12237635739E+04  0.79339065116E+02 0.  0.
        254    2    1    2    0    0 -0.16864762271E+03 -0.86793686592E+02 -0.42496766809E+03  0.10155823639E+04  0.90268203384E+03 0.  0.
         23    2    4    4    0    0  0.36157957743E+03 -0.85869610959E+02 -0.16077753250E+03  0.41572009205E+03  0.94129692845E+02 0.  0.
         23    2    4    4    0    0 -0.53022720014E+03 -0.92407563258E+00 -0.26419013558E+03  0.59986227183E+03  0.94321682257E+02 0.  0.
          1    1    3    3  502    0  0.11087082631E+03  0.87133014924E+02 -0.98206467116E+03  0.99213684578E+03  0.00000000000E+00 0. -1.
         -2    1    3    3    0  502  0.57776796406E+02 -0.33932833265E+00 -0.22430485468E+03  0.23162672812E+03  0.00000000000E+00 0.  1.
         13    1    5    5    0    0  0.19437671257E+03 -0.84224740351E+02 -0.58733631309E+02  0.21983119142E+03  0.00000000000E+00 0. -1.
        -13    1    5    5    0    0  0.16720286486E+03 -0.16448706080E+01 -0.10204390120E+03  0.19588890062E+03  0.00000000000E+00 0.  1.
          3    1    6    6  503    0 -0.10802833938E+03  0.36103084715E+02 -0.69818649791E+02  0.13359715077E+03  0.00000000000E+00 0. -1.
         -3    1    6    6    0  503 -0.42219886075E+03 -0.37027160348E+02 -0.19437148579E+03  0.46626512106E+03  0.00000000000E+00 0.  1.
<mgrwt>
<rscale>  0 0.15340825E+04</rscale>
<asrwt>0</asrwt>
<pdfrwt beam="1">  1        1 0.29774485E+00 0.15340825E+04</pdfrwt>
<pdfrwt beam="2">  1       -2 0.46769904E-01 0.15340825E+04</pdfrwt>
<totfact> 0.12104810E+01</totfact>
</mgrwt>
</event>
<event>
12    5  0.5041746E-008  0.1269514E+04  0.7818608E-02  0.9054097E-01
         -2   -1    0    0    0  501 -0.00000000000E+00  0.00000000000E+00  0.15586557678E+04  0.15586557678E+04  0.00000000000E+00 0.  1.
          1   -1    0    0  501    0  0.00000000000E+00 -0.00000000000E+00 -0.25850237371E+03  0.25850237371E+03  0.00000000000E+00 0. -1.
        -24    2    1    2    0    0 -0.17269991448E+03  0.36759489574E+01  0.68573444002E+03  0.71219985066E+03  0.84605744409E+02 0.  0.
        254    2    1    2    0    0  0.17269991448E+03 -0.36759489574E+01  0.61441895406E+03  0.11049582908E+04  0.90198858103E+03 0.  0.
         23    2    4    4    0    0  0.25239217852E+03 -0.40160834198E+03  0.43667812768E+03  0.65223543303E+03  0.98651917255E+02 0.  0.
         23    2    4    4    0    0 -0.79692264041E+02  0.39793239303E+03  0.17774082638E+03  0.45272285780E+03  0.93086724336E+02 0.  0.
          3    1    3    3  502    0 -0.71820385605E+02 -0.38574412152E+02  0.25039306510E+03  0.26333028712E+03  0.00000000000E+00 0. -1.
         -4    1    3    3    0  502 -0.10087952888E+03  0.42250361110E+02  0.43534137492E+03  0.44886956354E+03  0.00000000000E+00 0.  1.
         13    1    5    5    0    0  0.19880800748E+03 -0.37286556664E+03  0.39573428773E+03  0.57892916761E+03  0.00000000000E+00 0. -1.
        -13    1    5    5    0    0  0.53584171037E+02 -0.28742775349E+02  0.40943839949E+02  0.73306265423E+02  0.00000000000E+00 0.  1.
          1    1    6    6  503    0 -0.33982630688E+02  0.28417140916E+03  0.16268004388E+03  0.32920055536E+03  0.00000000000E+00 0. -1.
         -1    1    6    6    0  503 -0.45709633353E+02  0.11376098387E+03  0.15060782502E+02  0.12352230245E+03  0.00000000000E+00 0.  1.
<mgrwt>
<rscale>  0 0.12695136E+04</rscale>
<asrwt>0</asrwt>
<pdfrwt beam="1">  1        1 0.39769597E-01 0.12695136E+04</pdfrwt>
<pdfrwt beam="2">  1       -2 0.23979319E+00 0.12695136E+04</pdfrwt>
<totfact> 0.68042561E+00</totfact>
</mgrwt>
</event>
<event>
12    5  0.5041746E-008  0.1719026E+04  0.7818608E-02  0.8750587E-01
          1   -1    0    0  501    0  0.00000000000E+00  0.00000000000E+00  0.13301188543E+04  0.13301188543E+04  0.00000000000E+00 0. -1.
         -2   -1    0    0    0  501 -0.00000000000E+00 -0.00000000000E+00 -0.55541108792E+03  0.55541108792E+03  0.00000000000E+00 0.  1.
        -24    2    1    2    0    0 -0.54134452503E+03 -0.16640398802E+03  0.56544029600E+03  0.80348470288E+03  0.71559467662E+02 0.  0.
        254    2    1    2    0    0  0.54134452503E+03  0.16640398802E+03  0.20926747036E+03  0.10820452393E+04  0.89793365220E+03 0.  0.
         23    2    4    4    0    0  0.71784252488E+03  0.31567817354E+03  0.58126960468E+02  0.79160599474E+03  0.91163082395E+02 0.  0.
         23    2    4    4    0    0 -0.17649799985E+03 -0.14927418553E+03  0.15114050989E+03  0.29043924457E+03  0.89873102985E+02 0.  0.
          1    1    3    3  502    0 -0.23612324850E+02  0.11925698280E+01  0.43219048039E+02  0.49263071575E+02  0.00000000000E+00 0. -1.
         -2    1    3    3    0  502 -0.51773220018E+03 -0.16759655784E+03  0.52222124796E+03  0.75422163130E+03  0.00000000000E+00 0.  1.
         13    1    5    5    0    0  0.13414465207E+03  0.22135518224E+02  0.15982300245E+02  0.13689486027E+03  0.00000000000E+00 0. -1.
        -13    1    5    5    0    0  0.58369787281E+03  0.29354265532E+03  0.42144660223E+02  0.65471113447E+03  0.00000000000E+00 0.  1.
          3    1    6    6  503    0 -0.44739449649E+02 -0.13247167339E+02  0.70648698730E+02  0.84666076026E+02  0.00000000000E+00 0. -1.
         -3    1    6    6    0  503 -0.13175855020E+03 -0.13602701819E+03  0.80491811160E+02  0.20577316854E+03  0.00000000000E+00 0.  1.
<mgrwt>
<rscale>  0 0.17190262E+04</rscale>
<asrwt>0</asrwt>
<pdfrwt beam="1">  1        1 0.20463367E+00 0.17190262E+04</pdfrwt>
<pdfrwt beam="2">  1       -2 0.85447860E-01 0.17190262E+04</pdfrwt>
<totfact> 0.85431701E+00</totfact>
</mgrwt>
</event>
<event>
12    5  0.5041746E-008  0.1859120E+04  0.7818608E-02  0.8675477E-01
         -4   -1    0    0    0  501 -0.00000000000E+00  0.00000000000E+00  0.83767396418E+03  0.83767396418E+03  0.00000000000E+00 0.  1.
          1   -1    0    0  501    0  0.00000000000E+00 -0.00000000000E+00 -0.10315251855E+04  0.10315251855E+04  0.00000000000E+00 0. -1.
        -24    2    1    2    0    0  0.48489468808E+03 -0.24932792426E+03 -0.54023922114E+03  0.77171986116E+03  0.80036589720E+02 0.  0.
        254    2    1    2    0    0 -0.48489468808E+03  0.24932792426E+03  0.34638799981E+03  0.10974792885E+04  0.88723664826E+03 0.  0.
         23    2    4    4    0    0 -0.70754562613E+03  0.99878686696E+02  0.11197613314E+03  0.72898656429E+03  0.91028519750E+02 0.  0.
         23    2    4    4    0    0  0.22265093805E+03  0.14944923757E+03  0.23441186666E+03  0.36849272425E+03  0.94495765882E+02 0.  0.
          1    1    3    3  502    0  0.27179148103E+03 -0.95404797514E+02 -0.27331483144E+03  0.39708145466E+03  0.00000000000E+00 0. -1.
         -2    1    3    3    0  502  0.21310320705E+03 -0.15392312675E+03 -0.26692438970E+03  0.37463840649E+03  0.00000000000E+00 0.  1.
         13    1    5    5    0    0 -0.31408307448E+03  0.79392909508E+00  0.35344640174E+02  0.31606653032E+03  0.00000000000E+00 0.  1.
        -13    1    5    5    0    0 -0.39346255165E+03  0.99084757601E+02  0.76631492968E+02  0.41292003397E+03  0.00000000000E+00 0. -1.
          2    1    6    6  503    0  0.31312326919E+02  0.65083109826E+01 -0.25081847727E+01  0.32079758724E+02  0.00000000000E+00 0. -1.
         -2    1    6    6    0  503  0.19133861113E+03  0.14294092658E+03  0.23692005144E+03  0.33641296553E+03  0.00000000000E+00 0.  1.
<mgrwt>
<rscale>  0 0.18591200E+04</rscale>
<asrwt>0</asrwt>
<pdfrwt beam="1">  1        1 0.15869618E+00 0.18591200E+04</pdfrwt>
<pdfrwt beam="2">  1       -4 0.12887292E+00 0.18591200E+04</pdfrwt>
<totfact> 0.28829288E+00</totfact>
</mgrwt>
</event>
<event>
12    5  0.5041746E-008  0.1575454E+04  0.7818608E-02  0.8835771E-01
         -2   -1    0    0    0  501 -0.00000000000E+00  0.00000000000E+00  0.24259767402E+03  0.24259767402E+03  0.00000000000E+00 0.  1.
          1   -1    0    0  501    0  0.00000000000E+00 -0.00000000000E+00 -0.25577888736E+04  0.25577888736E+04  0.00000000000E+00 0. -1.
        -24    2    1    2    0    0 -0.38101833156E+03 -0.19317704660E+03 -0.23874526361E+03  0.49675714649E+03  0.85299597756E+02 0.  0.
        254    2    1    2    0    0  0.38101833156E+03  0.19317704660E+03 -0.20764459359E+04  0.23036294011E+04  0.90143682663E+03 0.  0.
         23    2    4    4    0    0  0.48702605900E+02 -0.34394016680E+03 -0.77958589330E+03  0.85826171068E+03  0.90510865798E+02 0.  0.
         23    2    4    4    0    0  0.33231572566E+03  0.53711721340E+03 -0.12968600426E+04  0.14453676904E+04  0.91176465438E+02 0.  0.
          1    1    3    3  502    0 -0.85774068703E+02 -0.75094654756E+02 -0.92256491892E+02  0.14665489535E+03  0.00000000000E+00 0. -1.
         -2    1    3    3    0  502 -0.29524426285E+03 -0.11808239184E+03 -0.14648877172E+03  0.35010225114E+03  0.00000000000E+00 0.  1.
         13    1    5    5    0    0 -0.18866626075E+02 -0.24764207992E+02 -0.47801624036E+02  0.57045690787E+02  0.00000000000E+00 0.  1.
        -13    1    5    5    0    0  0.67569231976E+02 -0.31917595881E+03 -0.73178426926E+03  0.80121601989E+03  0.00000000000E+00 0. -1.
          1    1    6    6  503    0  0.19041176655E+03  0.22146193904E+03 -0.59079297992E+03  0.65904353149E+03  0.00000000000E+00 0.  1.
         -1    1    6    6    0  503  0.14190395911E+03  0.31565527437E+03 -0.70606706271E+03  0.78632415891E+03  0.00000000000E+00 0. -1.
<mgrwt>
<rscale>  0 0.15754538E+04</rscale>
<asrwt>0</asrwt>
<pdfrwt beam="1">  1        1 0.39350598E+00 0.15754538E+04</pdfrwt>
<pdfrwt beam="2">  1       -2 0.37322719E-01 0.15754538E+04</pdfrwt>
<totfact> 0.70747590E+00</totfact>
</mgrwt>
</event>
<event>
12    5  0.5041746E-008  0.1676464E+04  0.7818608E-02  0.8774903E-01
          1   -1    0    0  501    0  0.00000000000E+00  0.00000000000E+00  0.71664274683E+03  0.71664274683E+03  0.00000000000E+00 0. -1.
         -2   -1    0    0    0  501 -0.00000000000E+00 -0.00000000000E+00 -0.98045079505E+03  0.98045079505E+03  0.00000000000E+00 0.  1.
        -24    2    1    2    0    0 -0.53586608940E+03 -0.11973371903E+03  0.13781239371E+03  0.57176551525E+03  0.80217948904E+02 0.  0.
        254    2    1    2    0    0  0.53586608940E+03  0.11973371903E+03 -0.40162044194E+03  0.11253280266E+04  0.89642376079E+03 0.  0.
         23    2    4    4    0    0 -0.35858457824E+02  0.17626783501E+03 -0.49640646955E+03  0.53592028387E+03  0.91842196182E+02 0.  0.
         23    2    4    4    0    0  0.57172454722E+03 -0.56534115979E+02  0.94786027612E+02  0.58940774276E+03  0.91389452517E+02 0.  0.
          3    1    3    3  502    0 -0.32776410364E+03 -0.43005921644E+02  0.10913765855E+03  0.34812331931E+03  0.00000000000E+00 0. -1.
         -4    1    3    3    0  502 -0.20810198576E+03 -0.76727797390E+02  0.28674735157E+02  0.22364219594E+03  0.00000000000E+00 0.  1.
         13    1    5    5    0    0  0.68732767683E+00  0.15464688529E+03 -0.33418164228E+03  0.36823022905E+03  0.00000000000E+00 0.  1.
        -13    1    5    5    0    0 -0.36545785501E+02  0.21620949727E+02 -0.16222482726E+03  0.16769005482E+03  0.00000000000E+00 0. -1.
          2    1    6    6  503    0  0.28625659978E+03 -0.60812265711E+01  0.65929632552E+01  0.28639708344E+03  0.00000000000E+00 0. -1.
         -2    1    6    6    0  503  0.28546794744E+03 -0.50452889408E+02  0.88193064357E+02  0.30301065932E+03  0.00000000000E+00 0.  1.
<mgrwt>
<rscale>  0 0.16764641E+04</rscale>
<asrwt>0</asrwt>
<pdfrwt beam="1">  1        1 0.11025273E+00 0.16764641E+04</pdfrwt>
<pdfrwt beam="2">  1       -2 0.15083858E+00 0.16764641E+04</pdfrwt>
<totfact> 0.64749761E+00</totfact>
</mgrwt>
</event>
<event>
12    5  0.5041746E-008  0.1365474E+04  0.7818608E-02  0.8979197E-01
          1   -1    0    0  501    0  0.00000000000E+00  0.00000000000E+00  0.79865854363E+03  0.79865854363E+03  0.00000000000E+00 0. -1.
         -2   -1    0    0    0  501 -0.00000000000E+00 -0.00000000000E+00 -0.58364087171E+03  0.58364087171E+03  0.00000000000E+00 0.  1.
        -24    2    1    2    0    0 -0.37745223016E+02  0.35580597801E+03 -0.72718710109E+02  0.37369781402E+03  0.79620660376E+02 0.  0.
        254    2    1    2    0    0  0.37745223016E+02 -0.35580597801E+03  0.28773638203E+03  0.10086016013E+04  0.89803249873E+03 0.  0.
         23    2    4    4    0    0 -0.41916142817E+03 -0.21626317669E+03  0.13244453524E+03  0.49815786944E+03  0.90297527720E+02 0.  0.
         23    2    4    4    0    0  0.45690665118E+03 -0.13954280132E+03  0.15529184679E+03  0.51044373188E+03  0.90561384908E+02 0.  0.
          3    1    3    3  502    0 -0.29813147079E+02  0.72616174110E+02  0.85724040911E+01  0.78964666738E+02  0.00000000000E+00 0. -1.
         -4    1    3    3    0  502 -0.79320759366E+01  0.28318980390E+03 -0.81291114200E+02  0.29473314729E+03  0.00000000000E+00 0.  1.
         13    1    5    5    0    0 -0.40534590508E+02 -0.36462055950E+02  0.43323325320E+02  0.69637957096E+02  0.00000000000E+00 0.  1.
        -13    1    5    5    0    0 -0.37862683766E+03 -0.17980112074E+03  0.89121209919E+02  0.42851991234E+03  0.00000000000E+00 0. -1.
          2    1    6    6  503    0  0.34680090192E+03 -0.11518208754E+03  0.15684192225E+03  0.39766464192E+03  0.00000000000E+00 0. -1.
         -2    1    6    6    0  503  0.11010574926E+03 -0.24360713782E+02 -0.15500754544E+01  0.11277908995E+03  0.00000000000E+00 0.  1.
<mgrwt>
<rscale>  0 0.13654739E+04</rscale>
<asrwt>0</asrwt>
<pdfrwt beam="1">  1        1 0.12287055E+00 0.13654739E+04</pdfrwt>
<pdfrwt beam="2">  1       -2 0.89790903E-01 0.13654739E+04</pdfrwt>
<totfact> 0.20177022E+01</totfact>
</mgrwt>
</event>
<event>
12    5  0.5428902E-008  0.1658741E+04  0.7818608E-02  0.8785252E-01
          1   -1    0    0  501    0  0.00000000000E+00  0.00000000000E+00  0.18873545081E+04  0.18873545081E+04  0.00000000000E+00 0. -1.
         -2   -1    0    0    0  501 -0.00000000000E+00 -0.00000000000E+00 -0.36445473190E+03  0.36445473190E+03  0.00000000000E+00 0.  1.
        -24    2    1    2    0    0 -0.53473030005E+03  0.94150000989E+02  0.81429312815E+03  0.98205205989E+03  0.80945866530E+02 0.  0.
        254    2    1    2    0    0  0.53473030005E+03 -0.94150000989E+02  0.70860664805E+03  0.12697571801E+04  0.90297242390E+03 0.  0.
         23    2    4    4    0    0  0.46266618445E+03 -0.30716330617E+03  0.82692198150E+03  0.10001906159E+04  0.90399168777E+02 0.  0.
         23    2    4    4    0    0  0.72064115599E+02  0.21301330518E+03 -0.11831533345E+03  0.26956656424E+03  0.89998386015E+02 0.  0.
          3    1    3    3  502    0 -0.47391996806E+03  0.97304394555E+02  0.67946078887E+03  0.83410745408E+03  0.00000000000E+00 0. -1.
         -4    1    3    3    0  502 -0.60810331984E+02 -0.31543935659E+01  0.13483233928E+03  0.14794460582E+03  0.00000000000E+00 0.  1.
         13    1    5    5    0    0  0.69568353667E+02 -0.11004267058E+02  0.99276802470E+02  0.12172400435E+03  0.00000000000E+00 0. -1.
        -13    1    5    5    0    0  0.39309783078E+03 -0.29615903911E+03  0.72764517903E+03  0.87846661154E+03  0.00000000000E+00 0.  1.
          2    1    6    6  503    0 -0.16551320968E+02  0.11283135683E+02 -0.19949872163E+02  0.28271058982E+02  0.00000000000E+00 0. -1.
         -2    1    6    6    0  503  0.88615436567E+02  0.20173016950E+03 -0.98365461288E+02  0.24129550526E+03  0.00000000000E+00 0.  1.
<mgrwt>
<rscale>  0 0.16587408E+04</rscale>
<asrwt>0</asrwt>
<pdfrwt beam="1">  1        1 0.29036223E+00 0.16587408E+04</pdfrwt>
<pdfrwt beam="2">  1       -2 0.56069960E-01 0.16587408E+04</pdfrwt>
<totfact> 0.88983913E+00</totfact>
</mgrwt>
</event>
<event>
12    5  0.5041746E-008  0.1189645E+04  0.7818608E-02  0.9121969E-01
         -2   -1    0    0    0  501 -0.00000000000E+00  0.00000000000E+00  0.42500803409E+03  0.42500803409E+03  0.00000000000E+00 0.  1.
          1   -1    0    0  501    0  0.00000000000E+00 -0.00000000000E+00 -0.83248677511E+03  0.83248677511E+03  0.00000000000E+00 0. -1.
        -24    2    1    2    0    0 -0.65070287103E+02 -0.29148137469E+00 -0.33501477729E+03  0.35022886278E+03  0.78683721926E+02 0.  0.
        254    2    1    2    0    0  0.65070287103E+02  0.29148137469E+00 -0.72463963727E+02  0.90726594642E+03  0.90202341670E+03 0.  0.
         23    2    4    4    0    0 -0.31862926476E+03  0.38183857262E+02 -0.30116734922E+03  0.44966252088E+03  0.92260474377E+02 0.  0.
         23    2    4    4    0    0  0.38369955186E+03 -0.37892375887E+02  0.22870338549E+03  0.45760342554E+03  0.91839415694E+02 0.  0.
          3    1    3    3  502    0 -0.40983744824E+02  0.34376444363E+02 -0.24549209528E+03  0.25125241514E+03  0.00000000000E+00 0. -1.
         -4    1    3    3    0  502 -0.24086542279E+02 -0.34667925737E+02 -0.89522682012E+02  0.98976447646E+02  0.00000000000E+00 0.  1.
         13    1    5    5    0    0 -0.24033817949E+03  0.61797306954E+02 -0.19472515538E+03  0.31543499141E+03  0.00000000000E+00 0. -1.
        -13    1    5    5    0    0 -0.78291085275E+02 -0.23613449692E+02 -0.10644219384E+03  0.13422752948E+03  0.00000000000E+00 0.  1.
          2    1    6    6  503    0  0.32902916007E+03 -0.16703013891E+01  0.17403433642E+03  0.37222429842E+03  0.00000000000E+00 0. -1.
         -2    1    6    6    0  503  0.54670391793E+02 -0.36222074498E+02  0.54669049078E+02  0.85379127115E+02  0.00000000000E+00 0.  1.
<mgrwt>
<rscale>  0 0.11896446E+04</rscale>
<asrwt>0</asrwt>
<pdfrwt beam="1">  1        1 0.12807489E+00 0.11896446E+04</pdfrwt>
<pdfrwt beam="2">  1       -2 0.65385852E-01 0.11896446E+04</pdfrwt>
<totfact> 0.38779212E+01</totfact>
</mgrwt>
</event>
<event>
12    5  0.5041746E-008  0.2235498E+04  0.7818608E-02  0.8503797E-01
         -2   -1    0    0    0  501 -0.00000000000E+00  0.00000000000E+00  0.46895295668E+03  0.46895295668E+03  0.00000000000E+00 0.  1.
          1   -1    0    0  501    0  0.00000000000E+00 -0.00000000000E+00 -0.26641544135E+04  0.26641544135E+04  0.00000000000E+00 0. -1.
        -24    2    1    2    0    0 -0.78670394887E+03  0.42406626641E+03 -0.53285395296E+03  0.10431025794E+04  0.73446269420E+02 0.  0.
        254    2    1    2    0    0  0.78670394887E+03 -0.42406626641E+03 -0.16623475039E+04  0.20900047908E+04  0.89776695219E+03 0.  0.
         23    2    4    4    0    0 -0.90082704548E+02 -0.14153857349E+03 -0.38922712212E+01  0.19070519139E+03  0.90582883598E+02 0.  0.
         23    2    4    4    0    0  0.87678665341E+03 -0.28252769291E+03 -0.16584552327E+04  0.18992995994E+04  0.91041071647E+02 0.  0.
          1    1    3    3  502    0 -0.37828962491E+03  0.19870000298E+03 -0.29716945352E+03  0.52047518251E+03  0.00000000000E+00 0. -1.
         -2    1    3    3    0  502 -0.40841432396E+03  0.22536626343E+03 -0.23568449943E+03  0.52262739689E+03  0.00000000000E+00 0.  1.
         13    1    5    5    0    0 -0.84436191664E+02 -0.92007559002E+02 -0.37729336798E+02  0.13045445271E+03  0.00000000000E+00 0.  1.
        -13    1    5    5    0    0 -0.56465128839E+01 -0.49531014492E+02  0.33837065577E+02  0.60250738678E+02  0.00000000000E+00 0. -1.
          3    1    6    6  503    0  0.10396219588E+03 -0.65480607716E+02 -0.21176978896E+03  0.24483114931E+03  0.00000000000E+00 0. -1.
         -3    1    6    6    0  503  0.77282445753E+03 -0.21704708520E+03 -0.14466854437E+04  0.16544684501E+04  0.00000000000E+00 0.  1.
<mgrwt>
<rscale>  0 0.22354982E+04</rscale>
<asrwt>0</asrwt>
<pdfrwt beam="1">  1        1 0.40986990E+00 0.22354982E+04</pdfrwt>
<pdfrwt beam="2">  1       -2 0.72146610E-01 0.22354982E+04</pdfrwt>
<totfact> 0.14457834E+00</totfact>
</mgrwt>
</event>
<event>
12    5  0.5041746E-008  0.1588300E+04  0.7818608E-02  0.8827768E-01
         -2   -1    0    0    0  501 -0.00000000000E+00  0.00000000000E+00  0.17041374563E+04  0.17041374563E+04  0.00000000000E+00 0.  1.
          1   -1    0    0  501    0  0.00000000000E+00 -0.00000000000E+00 -0.37008398619E+03  0.37008398619E+03  0.00000000000E+00 0. -1.
        -24    2    1    2    0    0 -0.47809692583E+03 -0.10645690362E+03  0.74754070011E+03  0.89722757531E+03  0.79312550994E+02 0.  0.
        254    2    1    2    0    0  0.47809692583E+03  0.10645690362E+03  0.58651277001E+03  0.11769938672E+04  0.89521371260E+03 0.  0.
         23    2    4    4    0    0 -0.21837228549E+03 -0.13864548521E+03  0.18317526906E+03  0.32967524065E+03  0.90683843457E+02 0.  0.
         23    2    4    4    0    0  0.69646921132E+03  0.24510238884E+03  0.40333750095E+03  0.84731862655E+03  0.10061397464E+03 0.  0.
          3    1    3    3  502    0 -0.15548480756E+03 -0.36556218624E+01  0.27442188823E+03  0.31543028025E+03  0.00000000000E+00 0. -1.
         -4    1    3    3    0  502 -0.32261211827E+03 -0.10280128176E+03  0.47311881188E+03  0.58179729506E+03  0.00000000000E+00 0.  1.
         13    1    5    5    0    0 -0.99757634555E+02 -0.10823229394E+03  0.70231248757E+02  0.16308967903E+03  0.00000000000E+00 0.  1.
        -13    1    5    5    0    0 -0.11861465093E+03 -0.30413191275E+02  0.11294402030E+03  0.16658556163E+03  0.00000000000E+00 0. -1.
          1    1    6    6  503    0  0.42729774864E+03  0.98252793975E+02  0.23083089213E+03  0.49549962491E+03  0.00000000000E+00 0. -1.
         -1    1    6    6    0  503  0.26917146268E+03  0.14684959486E+03  0.17250660882E+03  0.35181900164E+03  0.00000000000E+00 0.  1.
<mgrwt>
<rscale>  0 0.15882997E+04</rscale>
<asrwt>0</asrwt>
<pdfrwt beam="1">  1        1 0.56935998E-01 0.15882997E+04</pdfrwt>
<pdfrwt beam="2">  1       -2 0.26217499E+00 0.15882997E+04</pdfrwt>
<totfact> 0.30245643E+00</totfact>
</mgrwt>
</event>
<event>
12    5  0.5041746E-008  0.1418450E+04  0.7818608E-02  0.8940571E-01
         -2   -1    0    0    0  501 -0.00000000000E+00  0.00000000000E+00  0.44060229125E+03  0.44060229125E+03  0.00000000000E+00 0.  1.
          1   -1    0    0  501    0  0.00000000000E+00 -0.00000000000E+00 -0.11416193324E+04  0.11416193324E+04  0.00000000000E+00 0. -1.
        -24    2    1    2    0    0  0.39161996228E+03 -0.14405734535E+03 -0.27502093749E+03  0.50607621694E+03  0.79736489082E+02 0.  0.
        254    2    1    2    0    0 -0.39161996228E+03  0.14405734535E+03 -0.42599610365E+03  0.10761454067E+04  0.89582227168E+03 0.  0.
         23    2    4    4    0    0 -0.51984633119E+03 -0.72068790225E+02 -0.56175367305E+03  0.77342431088E+03  0.84757636168E+02 0.  0.
         23    2    4    4    0    0  0.12822636891E+03  0.21612613558E+03  0.13575756941E+03  0.30272109583E+03  0.10028676904E+03 0.  0.
          1    1    3    3  502    0  0.11719302122E+03 -0.30817977288E+02 -0.12252939947E+03  0.17232935235E+03  0.00000000000E+00 0. -1.
         -2    1    3    3    0  502  0.27442694105E+03 -0.11323936806E+03 -0.15249153803E+03  0.33374686459E+03  0.00000000000E+00 0.  1.
         13    1    5    5    0    0 -0.20246839391E+03 -0.29700576933E+02 -0.28073679535E+03  0.34740282536E+03  0.00000000000E+00 0.  1.
        -13    1    5    5    0    0 -0.31737793728E+03 -0.42368213292E+02 -0.28101687770E+03  0.42602148552E+03  0.00000000000E+00 0. -1.
          4    1    6    6  503    0  0.13831203249E+03  0.15149892084E+03  0.10118259025E+03  0.22873578189E+03  0.00000000000E+00 0. -1.
         -4    1    6    6    0  503 -0.10085663583E+02  0.64627214732E+02  0.34574979161E+02  0.73985313934E+02  0.00000000000E+00 0.  1.
<mgrwt>
<rscale>  0 0.14184500E+04</rscale>
<asrwt>0</asrwt>
<pdfrwt beam="1">  1        1 0.17563374E+00 0.14184500E+04</pdfrwt>
<pdfrwt beam="2">  1       -2 0.67784968E-01 0.14184500E+04</pdfrwt>
<totfact> 0.20089833E+01</totfact>
</mgrwt>
</event>
<event>
12    5  0.5041746E-008  0.1142087E+04  0.7818608E-02  0.9165115E-01
         -2   -1    0    0    0  501 -0.00000000000E+00  0.00000000000E+00  0.84519635513E+03  0.84519635513E+03  0.00000000000E+00 0.  1.
          1   -1    0    0  501    0  0.00000000000E+00 -0.00000000000E+00 -0.38581622194E+03  0.38581622194E+03  0.00000000000E+00 0. -1.
        -24    2    1    2    0    0  0.11607145087E+03 -0.10891233543E+03 -0.14343840781E+02  0.17855014575E+03  0.79623679014E+02 0.  0.
        254    2    1    2    0    0 -0.11607145087E+03  0.10891233543E+03  0.47372397397E+03  0.10524624313E+04  0.92624418341E+03 0.  0.
         23    2    4    4    0    0 -0.36026039098E+03  0.37278300765E+03  0.42717123923E+03  0.67814021951E+03  0.92974026391E+02 0.  0.
         23    2    4    4    0    0  0.24418894011E+03 -0.26387067222E+03  0.46552734745E+02  0.37432221181E+03  0.93241573416E+02 0.  0.
          1    1    3    3  502    0  0.10317188036E+03 -0.10655430770E+03  0.12327435421E+02  0.14882951001E+03  0.00000000000E+00 0. -1.
         -2    1    3    3    0  502  0.12899570517E+02 -0.23580277360E+01 -0.26671276202E+02  0.29720635737E+02  0.00000000000E+00 0.  1.
         13    1    5    5    0    0 -0.72112304086E+01  0.42139125313E+02  0.29349238652E+02  0.51856393392E+02  0.00000000000E+00 0.  1.
        -13    1    5    5    0    0 -0.35304916058E+03  0.33064388234E+03  0.39782200058E+03  0.62628382612E+03  0.00000000000E+00 0. -1.
          3    1    6    6  503    0  0.23594723546E+03 -0.25437073188E+03  0.64009286523E+02  0.35280696694E+03  0.00000000000E+00 0. -1.
         -3    1    6    6    0  503  0.82417046530E+01 -0.94999403373E+01 -0.17456551778E+02  0.21515244874E+02  0.00000000000E+00 0.  1.
<mgrwt>
<rscale>  0 0.11420866E+04</rscale>
<asrwt>0</asrwt>
<pdfrwt beam="1">  1        1 0.59356342E-01 0.11420866E+04</pdfrwt>
<pdfrwt beam="2">  1       -2 0.13003021E+00 0.11420866E+04</pdfrwt>
<totfact> 0.23702598E+01</totfact>
</mgrwt>
</event>
<event>
12    5  0.5041746E-008  0.1200939E+04  0.7818608E-02  0.9112035E-01
         -2   -1    0    0    0  501 -0.00000000000E+00  0.00000000000E+00  0.40616491081E+03  0.40616491081E+03  0.00000000000E+00 0.  1.
          1   -1    0    0  501    0  0.00000000000E+00 -0.00000000000E+00 -0.88772721659E+03  0.88772721659E+03  0.00000000000E+00 0. -1.
        -24    2    1    2    0    0 -0.17926602464E+02 -0.25497979478E+03 -0.30684833508E+03  0.40738174723E+03  0.80423431998E+02 0.  0.
        254    2    1    2    0    0  0.17926602464E+02  0.25497979478E+03 -0.17471397070E+03  0.88651038016E+03  0.83068623665E+03 0.  0.
         23    2    4    4    0    0  0.64104606980E+02  0.30641028017E+03 -0.46876593627E+03  0.57136629903E+03  0.93387816291E+02 0.  0.
         23    2    4    4    0    0 -0.46178004515E+02 -0.51430485395E+02  0.29405196557E+03  0.31514408113E+03  0.89842809858E+02 0.  0.
          1    1    3    3  502    0 -0.70818313315E+01 -0.25283088190E+02 -0.80678419939E+02  0.84843351697E+02  0.00000000000E+00 0. -1.
         -2    1    3    3    0  502 -0.10844771133E+02 -0.22969670659E+03 -0.22616991514E+03  0.32253839553E+03  0.00000000000E+00 0.  1.
         13    1    5    5    0    0  0.15706681214E+02  0.11992465779E+03 -0.26302024205E+03  0.28949658221E+03  0.00000000000E+00 0.  1.
        -13    1    5    5    0    0  0.48397925766E+02  0.18648562238E+03 -0.20574569422E+03  0.28186971682E+03  0.00000000000E+00 0. -1.
          2    1    6    6  503    0 -0.30123612017E+02 -0.69153999599E+02  0.27318091156E+03  0.28340345464E+03  0.00000000000E+00 0.  1.
         -2    1    6    6    0  503 -0.16054392499E+02  0.17723514204E+02  0.20871054019E+02  0.31740626492E+02  0.00000000000E+00 0. -1.
<mgrwt>
<rscale>  0 0.12009390E+04</rscale>
<asrwt>0</asrwt>
<pdfrwt beam="1">  1        1 0.13657342E+00 0.12009390E+04</pdfrwt>
<pdfrwt beam="2">  1       -2 0.62486910E-01 0.12009390E+04</pdfrwt>
<totfact> 0.38383217E+01</totfact>
</mgrwt>
</event>
<event>
12    5  0.5041746E-008  0.2010094E+04  0.7818608E-02  0.8601916E-01
          1   -1    0    0  501    0  0.00000000000E+00  0.00000000000E+00  0.15715475029E+04  0.15715475029E+04  0.00000000000E+00 0. -1.
         -2   -1    0    0    0  501 -0.00000000000E+00 -0.00000000000E+00 -0.64275472435E+03  0.64275472435E+03  0.00000000000E+00 0.  1.
        -24    2    1    2    0    0  0.41380037548E+03  0.67232031087E+03  0.40671818736E+03  0.89129395756E+03  0.75762020135E+02 0.  0.
        254    2    1    2    0    0 -0.41380037548E+03 -0.67232031087E+03  0.52207459114E+03  0.13230082696E+04  0.92441530261E+03 0.  0.
         23    2    4    4    0    0 -0.90220345017E+02 -0.55140121171E+03 -0.12926034172E+03  0.58017139841E+03  0.87792987542E+02 0.  0.
         23    2    4    4    0    0 -0.32358003046E+03 -0.12091909916E+03  0.65133493286E+03  0.74283687124E+03  0.90796243637E+02 0.  0.
          3    1    3    3  502    0  0.31735889454E+03  0.47239396983E+03  0.32069225890E+03  0.65323522225E+03  0.00000000000E+00 0. -1.
         -4    1    3    3    0  502  0.96441480936E+02  0.19992634103E+03  0.86025928465E+02  0.23805873530E+03  0.00000000000E+00 0.  1.
         13    1    5    5    0    0  0.11491406514E+02 -0.84589853154E+02 -0.52877874271E+00  0.85368467758E+02  0.00000000000E+00 0. -1.
        -13    1    5    5    0    0 -0.10171175153E+03 -0.46681135855E+03 -0.12873156297E+03  0.49480293065E+03  0.00000000000E+00 0.  1.
          1    1    6    6  503    0 -0.66184668227E+02  0.11112806869E+02  0.14266742134E+03  0.15766387632E+03  0.00000000000E+00 0. -1.
         -1    1    6    6    0  503 -0.25739536223E+03 -0.13203190603E+03  0.50866751152E+03  0.58517299492E+03  0.00000000000E+00 0.  1.
<mgrwt>
<rscale>  0 0.20100941E+04</rscale>
<asrwt>0</asrwt>
<pdfrwt beam="1">  1        1 0.24177654E+00 0.20100941E+04</pdfrwt>
<pdfrwt beam="2">  1       -2 0.98885343E-01 0.20100941E+04</pdfrwt>
<totfact> 0.40284722E+00</totfact>
</mgrwt>
</event>
<event>
12    5  0.5041746E-008  0.1830998E+04  0.7818608E-02  0.8689986E-01
         -2   -1    0    0    0  501 -0.00000000000E+00  0.00000000000E+00  0.28257832953E+04  0.28257832953E+04  0.00000000000E+00 0.  1.
          1   -1    0    0  501    0  0.00000000000E+00 -0.00000000000E+00 -0.29660401879E+03  0.29660401879E+03  0.00000000000E+00 0. -1.
        -24    2    1    2    0    0  0.35861155329E+03 -0.45873699476E+03  0.31946377434E+03  0.66896165372E+03  0.80066937720E+02 0.  0.
        254    2    1    2    0    0 -0.35861155329E+03  0.45873699476E+03  0.22097155021E+04  0.24534256603E+04  0.89297983961E+03 0.  0.
         23    2    4    4    0    0  0.12149534899E+03  0.33131792317E+03  0.16893983029E+04  0.17282953249E+04  0.91681068405E+02 0.  0.
         23    2    4    4    0    0 -0.48010690228E+03  0.12741907159E+03  0.52031719923E+03  0.72513033541E+03  0.91355120766E+02 0.  0.
          1    1    3    3  502    0  0.14868907322E+03 -0.20632638577E+03  0.18356975561E+03  0.31365087779E+03  0.00000000000E+00 0. -1.
         -2    1    3    3    0  502  0.20992248007E+03 -0.25241060899E+03  0.13589401873E+03  0.35531077593E+03  0.00000000000E+00 0.  1.
         13    1    5    5    0    0  0.13297401750E+03  0.31176040260E+03  0.16263709355E+04  0.16613124503E+04  0.00000000000E+00 0. -1.
        -13    1    5    5    0    0 -0.11478668514E+02  0.19557520575E+02  0.63027367450E+02  0.66982874599E+02  0.00000000000E+00 0.  1.
          2    1    6    6  503    0 -0.44569613132E+03  0.13935731736E+03  0.49656699814E+03  0.68164821354E+03  0.00000000000E+00 0. -1.
         -2    1    6    6    0  503 -0.34410770965E+02 -0.11938245779E+02  0.23750201092E+02  0.43482121873E+02  0.00000000000E+00 0.  1.
<mgrwt>
<rscale>  0 0.18309983E+04</rscale>
<asrwt>0</asrwt>
<pdfrwt beam="1">  1        1 0.45631389E-01 0.18309983E+04</pdfrwt>
<pdfrwt beam="2">  1       -2 0.43473587E+00 0.18309983E+04</pdfrwt>
<totfact> 0.32187073E-01</totfact>
</mgrwt>
</event>
<event>
12    5  0.5041746E-008  0.2640693E+04  0.7818608E-02  0.8354509E-01
         -2   -1    0    0    0  501 -0.00000000000E+00  0.00000000000E+00  0.10458433263E+04  0.10458433263E+04  0.00000000000E+00 0.  1.
          1   -1    0    0  501    0  0.00000000000E+00 -0.00000000000E+00 -0.16668980765E+04  0.16668980765E+04  0.00000000000E+00 0. -1.
        -24    2    1    2    0    0 -0.29507806084E+03  0.67447436876E+03 -0.12034973564E+04  0.14131108576E+04  0.80558505952E+02 0.  0.
        254    2    1    2    0    0  0.29507806084E+03 -0.67447436876E+03  0.58244260626E+03  0.12996305452E+04  0.89878441710E+03 0.  0.
         23    2    4    4    0    0  0.38344705293E+03 -0.22766602039E+03 -0.10688157910E+03  0.46854162022E+03  0.96146339931E+02 0.  0.
         23    2    4    4    0    0 -0.88368992096E+02 -0.44680834837E+03  0.68932418536E+03  0.83108892502E+03  0.89967715463E+02 0.  0.
          3    1    3    3  502    0 -0.12213212992E+03  0.30750887472E+03 -0.61462665983E+03  0.69802857833E+03  0.00000000000E+00 0. -1.
         -4    1    3    3    0  502 -0.17294593092E+03  0.36696549404E+03 -0.58887069658E+03  0.71508227928E+03  0.00000000000E+00 0.  1.
         13    1    5    5    0    0  0.18335879425E+03 -0.11561184558E+03 -0.30060533576E+01  0.21678464573E+03  0.00000000000E+00 0. -1.
        -13    1    5    5    0    0  0.20008825869E+03 -0.11205417481E+03 -0.10387552574E+03  0.25175697449E+03  0.00000000000E+00 0.  1.
          1    1    6    6  503    0 -0.16207151295E+02 -0.49708433625E+02  0.13992520872E+03  0.14937424196E+03  0.00000000000E+00 0. -1.
         -1    1    6    6    0  503 -0.72161840801E+02 -0.39709991474E+03  0.54939897664E+03  0.68171468305E+03  0.00000000000E+00 0.  1.
<mgrwt>
<rscale>  0 0.26406925E+04</rscale>
<asrwt>0</asrwt>
<pdfrwt beam="1">  1        1 0.25644586E+00 0.26406925E+04</pdfrwt>
<pdfrwt beam="2">  1       -2 0.16089897E+00 0.26406925E+04</pdfrwt>
<totfact> 0.96029166E-01</totfact>
</mgrwt>
</event>
<event>
12    5  0.5041746E-008  0.1650247E+04  0.7818608E-02  0.8790260E-01
          1   -1    0    0  501    0  0.00000000000E+00  0.00000000000E+00  0.70691456614E+03  0.70691456614E+03  0.00000000000E+00 0. -1.
         -2   -1    0    0    0  501 -0.00000000000E+00 -0.00000000000E+00 -0.96309967883E+03  0.96309967883E+03  0.00000000000E+00 0.  1.
        -24    2    1    2    0    0 -0.33192857550E+03 -0.10332689397E+03  0.42044882869E+03  0.55127387144E+03  0.79199984364E+02 0.  0.
        254    2    1    2    0    0  0.33192857550E+03  0.10332689397E+03 -0.67663394138E+03  0.11187403735E+04  0.82030086340E+03 0.  0.
         23    2    4    4    0    0  0.23400769722E+01  0.87548038521E+01  0.17321383814E+03  0.19766180993E+03  0.94789423606E+02 0.  0.
         23    2    4    4    0    0  0.32958849853E+03  0.94572090122E+02 -0.84984777953E+03  0.92107856361E+03  0.92585168299E+02 0.  0.
          1    1    3    3  502    0 -0.14895693270E+03 -0.31291559649E+02  0.12806997024E+03  0.19892020205E+03  0.00000000000E+00 0. -1.
         -2    1    3    3    0  502 -0.18297164280E+03 -0.72035334325E+02  0.29237885845E+03  0.35235366939E+03  0.00000000000E+00 0.  1.
         13    1    5    5    0    0 -0.48232696417E+00  0.22594601768E+02 -0.12431974229E+01  0.22633917208E+02  0.00000000000E+00 0.  1.
        -13    1    5    5    0    0  0.28224039363E+01 -0.13839797916E+02  0.17445703557E+03  0.17502789272E+03  0.00000000000E+00 0. -1.
          4    1    6    6  503    0  0.19995663514E+03  0.92242906144E+02 -0.60834514331E+03  0.64697389673E+03  0.00000000000E+00 0. -1.
         -4    1    6    6    0  503  0.12963186339E+03  0.23291839774E+01 -0.24150263622E+03  0.27410466688E+03  0.00000000000E+00 0.  1.
<mgrwt>
<rscale>  0 0.16502475E+04</rscale>
<asrwt>0</asrwt>
<pdfrwt beam="1">  1        1 0.10875609E+00 0.16502475E+04</pdfrwt>
<pdfrwt beam="2">  1       -2 0.14816918E+00 0.16502475E+04</pdfrwt>
<totfact> 0.69473726E+00</totfact>
</mgrwt>
</event>
<event>
12    5  0.5041746E-008  0.2527621E+04  0.7818608E-02  0.8393211E-01
         -2   -1    0    0    0  501 -0.00000000000E+00  0.00000000000E+00  0.10732008576E+04  0.10732008576E+04  0.00000000000E+00 0.  1.
          1   -1    0    0  501    0  0.00000000000E+00 -0.00000000000E+00 -0.14882743494E+04  0.14882743494E+04  0.00000000000E+00 0. -1.
        -24    2    1    2    0    0  0.19059965807E+03 -0.50458085384E+03  0.79000991492E+03  0.95989063423E+03  0.79651090887E+02 0.  0.
        254    2    1    2    0    0 -0.19059965807E+03  0.50458085384E+03 -0.12050834067E+04  0.16015845728E+04  0.90659641452E+03 0.  0.
         23    2    4    4    0    0  0.34882887455E+02  0.50971589776E+02  0.13260215234E+03  0.16833346115E+03  0.83294084646E+02 0.  0.
         23    2    4    4    0    0 -0.22548254552E+03  0.45360926407E+03 -0.13376855591E+04  0.14332511116E+04  0.90566832857E+02 0.  0.
          1    1    3    3  502    0  0.31778671142E+02 -0.16500715203E+03  0.20495445651E+03  0.26503504184E+03  0.00000000000E+00 0. -1.
         -2    1    3    3    0  502  0.15882098692E+03 -0.33957370182E+03  0.58505545841E+03  0.69485559238E+03  0.00000000000E+00 0.  1.
         13    1    5    5    0    0  0.50153434103E+01  0.57640813686E+02  0.12353883763E+03  0.13641650001E+03  0.00000000000E+00 0. -1.
        -13    1    5    5    0    0  0.29867544045E+02 -0.66692239106E+01  0.90633147034E+01  0.31916961138E+02  0.00000000000E+00 0.  1.
          3    1    6    6  503    0 -0.11965186316E+03  0.31463492908E+03 -0.95479634158E+03  0.10123970372E+04  0.00000000000E+00 0. -1.
         -3    1    6    6    0  503 -0.10583068236E+03  0.13897433498E+03 -0.38288921750E+03  0.42085407446E+03  0.00000000000E+00 0.  1.
<mgrwt>
<rscale>  0 0.25276213E+04</rscale>
<asrwt>0</asrwt>
<pdfrwt beam="1">  1        1 0.22896528E+00 0.25276213E+04</pdfrwt>
<pdfrwt beam="2">  1       -2 0.16510782E+00 0.25276213E+04</pdfrwt>
<totfact> 0.11988140E+00</totfact>
</mgrwt>
</event>
<event>
12    5  0.5041746E-008  0.1720718E+04  0.7818608E-02  0.8749635E-01
         -2   -1    0    0    0  501 -0.00000000000E+00  0.00000000000E+00  0.83308252180E+03  0.83308252180E+03  0.00000000000E+00 0.  1.
          1   -1    0    0  501    0  0.00000000000E+00 -0.00000000000E+00 -0.88852893170E+03  0.88852893170E+03  0.00000000000E+00 0. -1.
        -24    2    1    2    0    0  0.45311904440E+03 -0.29411189128E+03 -0.34392861675E+03  0.64477715217E+03  0.75046715809E+02 0.  0.
        254    2    1    2    0    0 -0.45311904440E+03  0.29411189128E+03  0.28848220685E+03  0.10768343013E+04  0.88573780310E+03 0.  0.
         23    2    4    4    0    0 -0.14711341889E+03  0.34137508513E+03  0.54373852532E+03  0.66497460927E+03  0.91434896511E+02 0.  0.
         23    2    4    4    0    0 -0.30600562552E+03 -0.47263193852E+02 -0.25525631846E+03  0.41185969205E+03  0.92732763794E+02 0.  0.
          3    1    3    3  502    0  0.44892347278E+03 -0.28604383179E+03 -0.32474806927E+03  0.62355005141E+03  0.00000000000E+00 0. -1.
         -4    1    3    3    0  502  0.41955716217E+01 -0.80680594825E+01 -0.19180547482E+02  0.21227100762E+02  0.00000000000E+00 0.  1.
         13    1    5    5    0    0 -0.38547765584E+00  0.44549534107E+02  0.11453897527E+03  0.12289827679E+03  0.00000000000E+00 0.  1.
        -13    1    5    5    0    0 -0.14672794123E+03  0.29682555102E+03  0.42919955005E+03  0.54207633248E+03  0.00000000000E+00 0. -1.
          3    1    6    6  503    0 -0.21316637947E+03 -0.63464753761E+02 -0.13929684445E+03  0.26243340332E+03  0.00000000000E+00 0. -1.
         -3    1    6    6    0  503 -0.92839246050E+02  0.16201559909E+02 -0.11595947401E+03  0.14942628873E+03  0.00000000000E+00 0.  1.
<mgrwt>
<rscale>  0 0.17207184E+04</rscale>
<asrwt>0</asrwt>
<pdfrwt beam="1">  1        1 0.13669676E+00 0.17207184E+04</pdfrwt>
<pdfrwt beam="2">  1       -2 0.12816654E+00 0.17207184E+04</pdfrwt>
<totfact> 0.69684809E+00</totfact>
</mgrwt>
</event>
<event>
12    5  0.5041746E-008  0.1897938E+04  0.7818608E-02  0.8655883E-01
         -2   -1    0    0    0  501 -0.00000000000E+00  0.00000000000E+00  0.14206031485E+04  0.14206031485E+04  0.00000000000E+00 0.  1.
          1   -1    0    0  501    0  0.00000000000E+00 -0.00000000000E+00 -0.63391543692E+03  0.63391543692E+03  0.00000000000E+00 0. -1.
        -24    2    1    2    0    0  0.11008303730E+03 -0.22060303945E+03 -0.44419731496E+03  0.51451564325E+03  0.81431667158E+02 0.  0.
        254    2    1    2    0    0 -0.11008303730E+03  0.22060303945E+03  0.12308850265E+04  0.15400029422E+04  0.89204660036E+03 0.  0.
         23    2    4    4    0    0 -0.31211911479E+03  0.11828182239E+03  0.72332083203E+02  0.35550430240E+03  0.98703837028E+02 0.  0.
         23    2    4    4    0    0  0.20203607748E+03  0.10232121706E+03  0.11585529433E+04  0.11844986398E+04  0.97487932803E+02 0.  0.
          1    1    3    3  502    0 -0.28898392281E+00 -0.38010078713E+02 -0.12440034026E+03  0.13007803140E+03  0.00000000000E+00 0. -1.
         -2    1    3    3    0  502  0.11037202123E+03 -0.18259296074E+03 -0.31979697470E+03  0.38443761185E+03  0.00000000000E+00 0.  1.
         13    1    5    5    0    0 -0.41487850730E+02 -0.27089124334E+01 -0.18426622087E+02  0.45476591410E+02  0.00000000000E+00 0. -1.
        -13    1    5    5    0    0 -0.27063126406E+03  0.12099073483E+03  0.90758705290E+02  0.31002771099E+03  0.00000000000E+00 0.  1.
          3    1    6    6  503    0  0.59328080386E+02 -0.10598327825E+02  0.20239746476E+03  0.21117973249E+03  0.00000000000E+00 0. -1.
         -3    1    6    6    0  503  0.14270799710E+03  0.11291954489E+03  0.95615547856E+03  0.97331890726E+03  0.00000000000E+00 0.  1.
<mgrwt>
<rscale>  0 0.18979381E+04</rscale>
<asrwt>0</asrwt>
<pdfrwt beam="1">  1        1 0.97525452E-01 0.18979381E+04</pdfrwt>
<pdfrwt beam="2">  1       -2 0.21855433E+00 0.18979381E+04</pdfrwt>
<totfact> 0.26127546E+00</totfact>
</mgrwt>
</event>
<event>
12    5  0.5041746E-008  0.2022013E+04  0.7818608E-02  0.8596397E-01
         -2   -1    0    0    0  501 -0.00000000000E+00  0.00000000000E+00  0.75278550646E+03  0.75278550646E+03  0.00000000000E+00 0.  1.
          1   -1    0    0  501    0  0.00000000000E+00 -0.00000000000E+00 -0.13578030449E+04  0.13578030449E+04  0.00000000000E+00 0. -1.
        -24    2    1    2    0    0 -0.35469658112E+03 -0.12100136713E+03  0.50306894359E+03  0.63257703847E+03  0.81390122862E+02 0.  0.
        254    2    1    2    0    0  0.35469658112E+03  0.12100136713E+03 -0.11080864821E+04  0.14780115129E+04  0.90344417930E+03 0.  0.
         23    2    4    4    0    0  0.41225209203E+03 -0.29105926392E+03 -0.39484706597E+03  0.64725816824E+03  0.91496712224E+02 0.  0.
         23    2    4    4    0    0 -0.57555510914E+02  0.41206063105E+03 -0.71323941609E+03  0.83075334469E+03  0.91291043070E+02 0.  0.
          1    1    3    3  502    0  0.32368413234E+00  0.15616751955E+01 -0.23788225958E+01  0.28639828519E+01  0.00000000000E+00 0. -1.
         -2    1    3    3    0  502 -0.35502026525E+03 -0.12256304232E+03  0.50544776618E+03  0.62971305562E+03  0.00000000000E+00 0.  1.
         13    1    5    5    0    0  0.68608306542E+02 -0.94854087192E+02 -0.84925691384E+02  0.14462631379E+03  0.00000000000E+00 0. -1.
        -13    1    5    5    0    0  0.34364378549E+03 -0.19620517673E+03 -0.30992137458E+03  0.50263185445E+03  0.00000000000E+00 0.  1.
          1    1    6    6  503    0 -0.42736750513E+02  0.39254108003E+03 -0.62593167751E+03  0.74007120892E+03  0.00000000000E+00 0. -1.
         -1    1    6    6    0  503 -0.14818760400E+02  0.19519551017E+02 -0.87307738576E+02  0.90682135765E+02  0.00000000000E+00 0.  1.
<mgrwt>
<rscale>  0 0.20220133E+04</rscale>
<asrwt>0</asrwt>
<pdfrwt beam="1">  1        1 0.20889277E+00 0.20220133E+04</pdfrwt>
<pdfrwt beam="2">  1       -2 0.11581316E+00 0.20220133E+04</pdfrwt>
<totfact> 0.38746954E+00</totfact>
</mgrwt>
</event>
<event>
12    5  0.5041746E-008  0.1622891E+04  0.7818608E-02  0.8806607E-01
          1   -1    0    0  501    0  0.00000000000E+00  0.00000000000E+00  0.96029745926E+03  0.96029745926E+03  0.00000000000E+00 0. -1.
         -2   -1    0    0    0  501 -0.00000000000E+00 -0.00000000000E+00 -0.68566630397E+03  0.68566630397E+03  0.00000000000E+00 0.  1.
        -24    2    1    2    0    0  0.76074393029E+02 -0.44067066157E+03  0.43763497020E+03  0.63041734931E+03  0.76965719167E+02 0.  0.
        254    2    1    2    0    0 -0.76074393029E+02  0.44067066157E+03 -0.16300381491E+03  0.10155464139E+04  0.89709884066E+03 0.  0.
         23    2    4    4    0    0 -0.16548539091E+03  0.24343265811E+03 -0.51070110664E+03  0.59654896755E+03  0.91707015666E+02 0.  0.
         23    2    4    4    0    0  0.89410997882E+02  0.19723800346E+03  0.34769729173E+03  0.41899744637E+03  0.88137942083E+02 0.  0.
          1    1    3    3  502    0  0.75421032180E+02 -0.44133396948E+03  0.42363070850E+03  0.61638217195E+03  0.00000000000E+00 0. -1.
         -2    1    3    3    0  502  0.65336084832E+00  0.66330791128E+00  0.14004261701E+02  0.14035177362E+02  0.00000000000E+00 0.  1.
         13    1    5    5    0    0 -0.17025605220E+03  0.24430967937E+03 -0.51126676958E+03  0.59166549031E+03  0.00000000000E+00 0. -1.
        -13    1    5    5    0    0  0.47706612908E+01 -0.87702125696E+00  0.56566293829E+00  0.48834772444E+01  0.00000000000E+00 0.  1.
          2    1    6    6  503    0  0.89195686137E+02  0.20097406170E+03  0.35088242320E+03  0.41408322692E+03  0.00000000000E+00 0. -1.
         -2    1    6    6    0  503  0.21531174471E+00 -0.37360582435E+01 -0.31851314685E+01  0.49142194516E+01  0.00000000000E+00 0.  1.
<mgrwt>
<rscale>  0 0.16228908E+04</rscale>
<asrwt>0</asrwt>
<pdfrwt beam="1">  1        1 0.14773807E+00 0.16228908E+04</pdfrwt>
<pdfrwt beam="2">  1       -2 0.10548712E+00 0.16228908E+04</pdfrwt>
<totfact> 0.99251327E+00</totfact>
</mgrwt>
</event>
<event>
12    5  0.5041746E-008  0.1704383E+04  0.7818608E-02  0.8758869E-01
         -4   -1    0    0    0  501 -0.00000000000E+00  0.00000000000E+00  0.29734161274E+04  0.29734161274E+04  0.00000000000E+00 0.  1.
          3   -1    0    0  501    0  0.00000000000E+00 -0.00000000000E+00 -0.24424100691E+03  0.24424100691E+03  0.00000000000E+00 0. -1.
        -24    2    1    2    0    0  0.22767939404E+03  0.41566280521E+03  0.19385197919E+04  0.19972248203E+04  0.80215490577E+02 0.  0.
        254    2    1    2    0    0 -0.22767939404E+03 -0.41566280521E+03  0.79065532858E+03  0.12204323141E+04  0.79981604790E+03 0.  0.
         23    2    4    4    0    0 -0.43497990838E+03 -0.24580575814E+03  0.78779091502E+03  0.93730301922E+03  0.91073775749E+02 0.  0.
         23    2    4    4    0    0  0.20730051434E+03 -0.16985704708E+03  0.28644135600E+01  0.28312929483E+03  0.91263755362E+02 0.  0.
          1    1    3    3  502    0 -0.59243456250E+01  0.17088559782E+02  0.94422132646E+02  0.96138732464E+02  0.00000000000E+00 0. -1.
         -2    1    3    3    0  502  0.23360373966E+03  0.39857424543E+03  0.18440976593E+04  0.19010860878E+04  0.00000000000E+00 0.  1.
         13    1    5    5    0    0 -0.46480009346E+02 -0.25714453759E+02  0.14687028414E+03  0.15618100001E+03  0.00000000000E+00 0.  1.
        -13    1    5    5    0    0 -0.38849989903E+03 -0.22009130438E+03  0.64092063089E+03  0.78112201922E+03  0.00000000000E+00 0. -1.
          2    1    6    6  503    0  0.95825542631E+02 -0.10093097277E+03 -0.40720257682E+02  0.14500943166E+03  0.00000000000E+00 0.  1.
         -2    1    6    6    0  503  0.11147497171E+03 -0.68926074309E+02  0.43584671242E+02  0.13811986318E+03  0.00000000000E+00 0. -1.
<mgrwt>
<rscale>  0 0.17043828E+04</rscale>
<asrwt>0</asrwt>
<pdfrwt beam="1">  1        3 0.37575542E-01 0.17043828E+04</pdfrwt>
<pdfrwt beam="2">  1       -4 0.45744861E+00 0.17043828E+04</pdfrwt>
<totfact> 0.40275020E-02</totfact>
</mgrwt>
</event>
<event>
12    5  0.5041746E-008  0.1653467E+04  0.7818608E-02  0.8788358E-01
          1   -1    0    0  501    0  0.00000000000E+00  0.00000000000E+00  0.11454200741E+04  0.11454200741E+04  0.00000000000E+00 0. -1.
         -2   -1    0    0    0  501 -0.00000000000E+00 -0.00000000000E+00 -0.59671385374E+03  0.59671385374E+03  0.00000000000E+00 0.  1.
        -24    2    1    2    0    0 -0.39740337671E+03  0.40851024288E+03  0.94993493824E+02  0.58319804979E+03  0.79285175456E+02 0.  0.
        254    2    1    2    0    0  0.39740337671E+03 -0.40851024288E+03  0.45371272658E+03  0.11589358781E+04  0.90136955180E+03 0.  0.
         23    2    4    4    0    0  0.58888732306E+03 -0.18102767496E+03  0.55152114997E+03  0.83202076901E+03  0.92323793492E+02 0.  0.
         23    2    4    4    0    0 -0.19148394635E+03 -0.22748256792E+03 -0.97808423387E+02  0.32691510909E+03  0.94300479560E+02 0.  0.
          1    1    3    3  502    0 -0.29521902886E+03  0.30726094823E+03  0.10548406651E+03  0.43896520773E+03  0.00000000000E+00 0. -1.
         -2    1    3    3    0  502 -0.10218434785E+03  0.10124929465E+03 -0.10490572689E+02  0.14423284206E+03  0.00000000000E+00 0.  1.
         13    1    5    5    0    0  0.50335946471E+03 -0.13303300996E+03  0.42590903393E+03  0.67265670117E+03  0.00000000000E+00 0. -1.
        -13    1    5    5    0    0  0.85527858350E+02 -0.47994664999E+02  0.12561211604E+03  0.15936406784E+03  0.00000000000E+00 0.  1.
          1    1    6    6  503    0 -0.18567583406E+03 -0.21380258719E+03 -0.64477759279E+02  0.29042114779E+03  0.00000000000E+00 0. -1.
         -1    1    6    6    0  503 -0.58081122906E+01 -0.13679980735E+02 -0.33330664108E+02  0.36493961297E+02  0.00000000000E+00 0.  1.
<mgrwt>
<rscale>  0 0.16534667E+04</rscale>
<asrwt>0</asrwt>
<pdfrwt beam="1">  1        1 0.17621847E+00 0.16534667E+04</pdfrwt>
<pdfrwt beam="2">  1       -2 0.91802132E-01 0.16534667E+04</pdfrwt>
<totfact> 0.99146834E+00</totfact>
</mgrwt>
</event>
<event>
12    5  0.5041746E-008  0.1834853E+04  0.7818608E-02  0.8687982E-01
         -4   -1    0    0    0  501 -0.00000000000E+00  0.00000000000E+00  0.15305130147E+04  0.15305130147E+04  0.00000000000E+00 0.  1.
          3   -1    0    0  501    0  0.00000000000E+00 -0.00000000000E+00 -0.54992748136E+03  0.54992748136E+03  0.00000000000E+00 0. -1.
        -24    2    1    2    0    0  0.92438963461E+02 -0.69717843224E+03  0.51363263751E+03  0.87477316412E+03  0.82503781765E+02 0.  0.
        254    2    1    2    0    0 -0.92438963461E+02  0.69717843224E+03  0.46695289585E+03  0.12056673320E+04  0.86080542520E+03 0.  0.
         23    2    4    4    0    0  0.19028742888E+03 -0.39728998101E+02  0.34177164301E+03  0.40221928369E+03  0.84763183804E+02 0.  0.
         23    2    4    4    0    0 -0.28272639234E+03  0.73690743034E+03  0.12518125284E+03  0.80344804826E+03  0.83015940531E+02 0.  0.
          3    1    3    3  502    0  0.26410163298E+02 -0.47563379872E+03  0.32933529303E+03  0.57912584336E+03  0.00000000000E+00 0. -1.
         -4    1    3    3    0  502  0.66028800163E+02 -0.22154463352E+03  0.18429734447E+03  0.29564732076E+03  0.00000000000E+00 0.  1.
         13    1    5    5    0    0  0.11177702939E+03  0.16585002664E+02  0.21431169514E+03  0.24227808256E+03  0.00000000000E+00 0.  1.
        -13    1    5    5    0    0  0.78510399489E+02 -0.56314000765E+02  0.12745994786E+03  0.15994120113E+03  0.00000000000E+00 0. -1.
          3    1    6    6  503    0 -0.23200122061E+02  0.15150514109E+03  0.26046015810E+02  0.15546848035E+03  0.00000000000E+00 0. -1.
         -3    1    6    6    0  503 -0.25952627028E+03  0.58540228925E+03  0.99135237035E+02  0.64797956792E+03  0.00000000000E+00 0.  1.
<mgrwt>
<rscale>  0 0.18348528E+04</rscale>
<asrwt>0</asrwt>
<pdfrwt beam="1">  1        3 0.84604229E-01 0.18348528E+04</pdfrwt>
<pdfrwt beam="2">  1       -4 0.23546354E+00 0.18348528E+04</pdfrwt>
<totfact> 0.21507600E-01</totfact>
</mgrwt>
</event>
<event>
12    5  0.5041746E-008  0.1329911E+04  0.7818608E-02  0.9006176E-01
          1   -1    0    0  501    0  0.00000000000E+00  0.00000000000E+00  0.17562797237E+04  0.17562797237E+04  0.00000000000E+00 0. -1.
         -2   -1    0    0    0  501 -0.00000000000E+00 -0.00000000000E+00 -0.25176273601E+03  0.25176273601E+03  0.00000000000E+00 0.  1.
        -24    2    1    2    0    0  0.12356674334E+03  0.11329998796E+03  0.86824816855E+03  0.88780471049E+03  0.78972744968E+02 0.  0.
        254    2    1    2    0    0 -0.12356674334E+03 -0.11329998796E+03  0.63626881913E+03  0.11202377492E+04  0.90663607761E+03 0.  0.
         23    2    4    4    0    0  0.22808748392E+03 -0.24163051645E+03  0.64939481339E+03  0.73508416227E+03  0.90696720788E+02 0.  0.
         23    2    4    4    0    0 -0.35165422726E+03  0.12833052849E+03 -0.13125994263E+02  0.38515358694E+03  0.89674822063E+02 0.  0.
          1    1    3    3  502    0  0.11925186664E+03  0.63667822183E+02  0.61083848995E+03  0.62561830223E+03  0.00000000000E+00 0. -1.
         -2    1    3    3    0  502  0.43148766989E+01  0.49632165775E+02  0.25740967860E+03  0.26218640826E+03  0.00000000000E+00 0.  1.
         13    1    5    5    0    0  0.77644441323E+02 -0.68760910058E+02  0.12248834218E+03  0.16049958253E+03  0.00000000000E+00 0. -1.
        -13    1    5    5    0    0  0.15044304260E+03 -0.17286960639E+03  0.52690647121E+03  0.57458457974E+03  0.00000000000E+00 0.  1.
          4    1    6    6  503    0 -0.34344025961E+02  0.95684472070E+01  0.25956361793E+02  0.44099886833E+02  0.00000000000E+00 0. -1.
         -4    1    6    6    0  503 -0.31731020130E+03  0.11876208128E+03 -0.39082356056E+02  0.34105370010E+03  0.00000000000E+00 0.  1.
<mgrwt>
<rscale>  0 0.13299110E+04</rscale>
<asrwt>0</asrwt>
<pdfrwt beam="1">  1        1 0.27019687E+00 0.13299110E+04</pdfrwt>
<pdfrwt beam="2">  1       -2 0.38732730E-01 0.13299110E+04</pdfrwt>
<totfact> 0.23652552E+01</totfact>
</mgrwt>
</event>
<event>
12    5  0.5041746E-008  0.1346930E+04  0.7818608E-02  0.8993156E-01
          1   -1    0    0  501    0  0.00000000000E+00  0.00000000000E+00  0.92452616473E+03  0.92452616473E+03  0.00000000000E+00 0. -1.
         -2   -1    0    0    0  501 -0.00000000000E+00 -0.00000000000E+00 -0.49058082566E+03  0.49058082566E+03  0.00000000000E+00 0.  1.
        -24    2    1    2    0    0 -0.97143968978E+02 -0.56969950732E+02 -0.25338119406E+03  0.28872444078E+03  0.80481346922E+02 0.  0.
        254    2    1    2    0    0  0.97143968978E+02  0.56969950732E+02  0.68732653313E+03  0.11263825496E+04  0.88523294049E+03 0.  0.
         23    2    4    4    0    0 -0.32637409454E+03  0.23555985529E+03  0.23578084188E+03  0.47557110423E+03  0.92556873185E+02 0.  0.
         23    2    4    4    0    0  0.42351806352E+03 -0.17858990456E+03  0.45154569125E+03  0.65081144538E+03  0.91652179538E+02 0.  0.
          3    1    3    3  502    0 -0.30645820603E+02 -0.62444433907E+02 -0.15450764788E+03  0.16944346225E+03  0.00000000000E+00 0. -1.
         -4    1    3    3    0  502 -0.66498148374E+02  0.54744831747E+01 -0.98873546181E+02  0.11928097852E+03  0.00000000000E+00 0.  1.
         13    1    5    5    0    0 -0.26167288625E+02  0.44077018417E+02  0.55761175334E+01  0.51561648861E+02  0.00000000000E+00 0.  1.
        -13    1    5    5    0    0 -0.30020680591E+03  0.19148283688E+03  0.23020472435E+03  0.42400945537E+03  0.00000000000E+00 0. -1.
          2    1    6    6  503    0  0.27410301447E+03 -0.13836591744E+03  0.35067587307E+03  0.46610208926E+03  0.00000000000E+00 0. -1.
         -2    1    6    6    0  503  0.14941504904E+03 -0.40223987118E+02  0.10086981817E+03  0.18470935612E+03  0.00000000000E+00 0.  1.
<mgrwt>
<rscale>  0 0.13469296E+04</rscale>
<asrwt>0</asrwt>
<pdfrwt beam="1">  1        1 0.14223479E+00 0.13469296E+04</pdfrwt>
<pdfrwt beam="2">  1       -2 0.75473973E-01 0.13469296E+04</pdfrwt>
<totfact> 0.23482731E+01</totfact>
</mgrwt>
</event>
<event>
12    5  0.5041746E-008  0.2285534E+04  0.7818608E-02  0.8483647E-01
         -2   -1    0    0    0  501 -0.00000000000E+00  0.00000000000E+00  0.19451621098E+04  0.19451621098E+04  0.00000000000E+00 0.  1.
          1   -1    0    0  501    0  0.00000000000E+00 -0.00000000000E+00 -0.67136623898E+03  0.67136623898E+03  0.00000000000E+00 0. -1.
        -24    2    1    2    0    0 -0.13792558371E+03 -0.91496919741E+03  0.23402861157E+03  0.95784897891E+03  0.80704253400E+02 0.  0.
        254    2    1    2    0    0  0.13792558371E+03  0.91496919741E+03  0.10397672593E+04  0.16586793699E+04  0.90216916361E+03 0.  0.
         23    2    4    4    0    0 -0.29827177907E+02  0.94288723381E+03  0.47192438256E+03  0.10589007305E+04  0.92909299427E+02 0.  0.
         23    2    4    4    0    0  0.16775276161E+03 -0.27918036395E+02  0.56784287671E+03  0.59977863941E+03  0.91479384993E+02 0.  0.
          3    1    3    3  502    0 -0.48270574161E+02 -0.31431346437E+03  0.41171409831E+02  0.32065259581E+03  0.00000000000E+00 0. -1.
         -4    1    3    3    0  502 -0.89655009545E+02 -0.60065573304E+03  0.19285720174E+03  0.63719638310E+03  0.00000000000E+00 0.  1.
         13    1    5    5    0    0 -0.20782984899E+02  0.93481298839E+03  0.46069676832E+03  0.10423765001E+04  0.00000000000E+00 0. -1.
        -13    1    5    5    0    0 -0.90441930080E+01  0.80742454182E+01  0.11227614239E+02  0.16524230322E+02  0.00000000000E+00 0.  1.
          3    1    6    6  503    0  0.15646998087E+03 -0.81617392389E+00  0.52515871506E+03  0.54797371931E+03  0.00000000000E+00 0. -1.
         -3    1    6    6    0  503  0.11282780743E+02 -0.27101862471E+02  0.42684161650E+02  0.51804920100E+02  0.00000000000E+00 0.  1.
<mgrwt>
<rscale>  0 0.22855338E+04</rscale>
<asrwt>0</asrwt>
<pdfrwt beam="1">  1        1 0.10328711E+00 0.22855338E+04</pdfrwt>
<pdfrwt beam="2">  1       -2 0.29925571E+00 0.22855338E+04</pdfrwt>
<totfact> 0.73949519E-01</totfact>
</mgrwt>
</event>
<event>
12    5  0.5041746E-008  0.2108279E+04  0.7818608E-02  0.8557605E-01
          1   -1    0    0  501    0  0.00000000000E+00  0.00000000000E+00  0.53471074783E+03  0.53471074783E+03  0.00000000000E+00 0. -1.
         -2   -1    0    0    0  501 -0.00000000000E+00 -0.00000000000E+00 -0.20781510111E+04  0.20781510111E+04  0.00000000000E+00 0.  1.
        -24    2    1    2    0    0  0.37567202347E+03  0.51619670502E+03 -0.13440900381E+04  0.14901587277E+04  0.80040589248E+02 0.  0.
        254    2    1    2    0    0 -0.37567202347E+03 -0.51619670502E+03 -0.19935022517E+03  0.11227030312E+04  0.90173891809E+03 0.  0.
         23    2    4    4    0    0 -0.37845004442E+03 -0.46576949671E+03  0.25382908327E+03  0.65772317181E+03  0.89470146046E+02 0.  0.
         23    2    4    4    0    0  0.27780209458E+01 -0.50427208307E+02 -0.45317930844E+03  0.46497985935E+03  0.91017378886E+02 0.  0.
          1    1    3    3  502    0  0.64273482583E+02  0.56368019929E+02 -0.22885959748E+03  0.24430544323E+03  0.00000000000E+00 0. -1.
         -2    1    3    3    0  502  0.31139854089E+03  0.45982868509E+03 -0.11152304406E+04  0.12458532845E+04  0.00000000000E+00 0.  1.
         13    1    5    5    0    0 -0.29785377918E+02 -0.21666550299E+02 -0.39482934554E+01  0.37043179679E+02  0.00000000000E+00 0.  1.
        -13    1    5    5    0    0 -0.34866466650E+03 -0.44410294641E+03  0.25777737672E+03  0.62067999213E+03  0.00000000000E+00 0. -1.
          1    1    6    6  503    0  0.11644704977E+02 -0.36908847193E+00 -0.34763563850E+03  0.34783081022E+03  0.00000000000E+00 0. -1.
         -1    1    6    6    0  503 -0.88666840311E+01 -0.50058119836E+02 -0.10554366994E+03  0.11714904913E+03  0.00000000000E+00 0.  1.
<mgrwt>
<rscale>  0 0.21082786E+04</rscale>
<asrwt>0</asrwt>
<pdfrwt beam="1">  1        1 0.82263190E-01 0.21082786E+04</pdfrwt>
<pdfrwt beam="2">  1       -2 0.31971555E+00 0.21082786E+04</pdfrwt>
<totfact> 0.78187272E-01</totfact>
</mgrwt>
</event>
<event>
12    5  0.5041746E-008  0.1864655E+04  0.7818608E-02  0.8672653E-01
         -2   -1    0    0    0  501 -0.00000000000E+00  0.00000000000E+00  0.51797322749E+03  0.51797322749E+03  0.00000000000E+00 0.  1.
          1   -1    0    0  501    0  0.00000000000E+00 -0.00000000000E+00 -0.16781450893E+04  0.16781450893E+04  0.00000000000E+00 0. -1.
        -24    2    1    2    0    0  0.45696953086E+03 -0.23131214258E+03 -0.10024721829E+04  0.11285786189E+04  0.80079724116E+02 0.  0.
        254    2    1    2    0    0 -0.45696953086E+03  0.23131214258E+03 -0.15769967895E+03  0.10675396979E+04  0.92327967505E+03 0.  0.
         23    2    4    4    0    0  0.22438527992E+03  0.19621349209E+03 -0.21069748120E+03  0.37738211494E+03  0.95788014755E+02 0.  0.
         23    2    4    4    0    0 -0.68135481078E+03  0.35098650493E+02  0.52997802244E+02  0.69015758294E+03  0.89623818312E+02 0.  0.
          3    1    3    3  502    0  0.44220285975E+03 -0.23482675026E+03 -0.98791021957E+03  0.11075439376E+04  0.00000000000E+00 0. -1.
         -4    1    3    3    0  502  0.14766671114E+02  0.35146076788E+01 -0.14561963331E+02  0.21034681338E+02  0.00000000000E+00 0.  1.
         13    1    5    5    0    0  0.74310903731E+02  0.12830132231E+03 -0.10444485343E+03  0.18136170248E+03  0.00000000000E+00 0.  1.
        -13    1    5    5    0    0  0.15007437619E+03  0.67912169785E+02 -0.10625262777E+03  0.19602041246E+03  0.00000000000E+00 0. -1.
          2    1    6    6  503    0 -0.29794334329E+03 -0.28842295628E+02  0.17938962897E+02  0.29987317355E+03  0.00000000000E+00 0.  1.
         -2    1    6    6    0  503 -0.38341146749E+03  0.63940946121E+02  0.35058839347E+02  0.39028440938E+03  0.00000000000E+00 0. -1.
<mgrwt>
<rscale>  0 0.18646546E+04</rscale>
<asrwt>0</asrwt>
<pdfrwt beam="1">  1        1 0.25817617E+00 0.18646546E+04</pdfrwt>
<pdfrwt beam="2">  1       -2 0.79688188E-01 0.18646546E+04</pdfrwt>
<totfact> 0.56662979E+00</totfact>
</mgrwt>
</event>
<event>
12    5  0.5041746E-008  0.2147280E+04  0.7818608E-02  0.8540698E-01
          3   -1    0    0  501    0  0.00000000000E+00  0.00000000000E+00  0.16248072449E+04  0.16248072449E+04  0.00000000000E+00 0. -1.
         -4   -1    0    0    0  501 -0.00000000000E+00 -0.00000000000E+00 -0.70943946756E+03  0.70943946756E+03  0.00000000000E+00 0.  1.
        -24    2    1    2    0    0  0.49245540042E+03 -0.70085804109E+03  0.18111640219E+03  0.87920003501E+03  0.80468846466E+02 0.  0.
        254    2    1    2    0    0 -0.49245540042E+03  0.70085804109E+03  0.73425137511E+03  0.14550466774E+04  0.91886965152E+03 0.  0.
         23    2    4    4    0    0 -0.92391482561E+02 -0.10701933175E+03  0.48808048996E+03  0.51612572457E+03  0.90409487703E+02 0.  0.
         23    2    4    4    0    0 -0.40006391786E+03  0.80787737283E+03  0.24617088515E+03  0.93892095286E+03  0.90859579026E+02 0.  0.
          1    1    3    3  502    0  0.87436461003E+02 -0.17274814465E+03  0.21633399212E+02  0.19482058453E+03  0.00000000000E+00 0. -1.
         -2    1    3    3    0  502  0.40501893942E+03 -0.52810989643E+03  0.15948300298E+03  0.68437945048E+03  0.00000000000E+00 0.  1.
         13    1    5    5    0    0 -0.59507685441E+02 -0.37855388799E+02  0.36042215200E+03  0.36725784231E+03  0.00000000000E+00 0. -1.
        -13    1    5    5    0    0 -0.32883797120E+02 -0.69163942951E+02  0.12765833796E+03  0.14886788226E+03  0.00000000000E+00 0.  1.
          4    1    6    6  503    0 -0.69474809771E+02  0.15018802168E+03  0.96719703261E+01  0.16576108728E+03  0.00000000000E+00 0. -1.
         -4    1    6    6    0  503 -0.33058910809E+03  0.65768935116E+03  0.23649891483E+03  0.77315986557E+03  0.00000000000E+00 0.  1.
<mgrwt>
<rscale>  0 0.21472796E+04</rscale>
<asrwt>0</asrwt>
<pdfrwt beam="1">  1        3 0.24997034E+00 0.21472796E+04</pdfrwt>
<pdfrwt beam="2">  1       -4 0.10914453E+00 0.21472796E+04</pdfrwt>
<totfact> 0.10383690E-01</totfact>
</mgrwt>
</event>
<event>
12    5  0.5041746E-008  0.1870292E+04  0.7818608E-02  0.8669787E-01
          1   -1    0    0  501    0  0.00000000000E+00  0.00000000000E+00  0.11147160772E+04  0.11147160772E+04  0.00000000000E+00 0. -1.
         -2   -1    0    0    0  501 -0.00000000000E+00 -0.00000000000E+00 -0.78450309466E+03  0.78450309466E+03  0.00000000000E+00 0.  1.
        -24    2    1    2    0    0  0.22062291468E+02  0.40692131968E+03 -0.47116555508E+03  0.62808174708E+03  0.80112393562E+02 0.  0.
        254    2    1    2    0    0 -0.22062291468E+02 -0.40692131968E+03  0.80137853761E+03  0.12711374248E+04  0.89861620673E+03 0.  0.
         23    2    4    4    0    0  0.29373528573E+01 -0.49155742760E+03  0.42644369978E+02  0.50188656473E+03  0.91838166835E+02 0.  0.
         23    2    4    4    0    0 -0.24999644326E+02  0.84636107929E+02  0.75873416763E+03  0.76925086004E+03  0.91000525096E+02 0.  0.
          1    1    3    3  502    0 -0.49110064015E+01  0.30161266153E+03 -0.30087897938E+03  0.42605454558E+03  0.00000000000E+00 0. -1.
         -2    1    3    3    0  502  0.26973297870E+02  0.10530865815E+03 -0.17028657571E+03  0.20202720150E+03  0.00000000000E+00 0.  1.
         13    1    5    5    0    0 -0.22937229414E+02 -0.33995957672E+03  0.63781419853E+02  0.34665068847E+03  0.00000000000E+00 0.  1.
        -13    1    5    5    0    0  0.25874582271E+02 -0.15159785088E+03 -0.21137049875E+02  0.15523587626E+03  0.00000000000E+00 0. -1.
          1    1    6    6  503    0 -0.55822605811E+02  0.30552152990E+02  0.42867254541E+03  0.43337022113E+03  0.00000000000E+00 0. -1.
         -1    1    6    6    0  503  0.30822961486E+02  0.54083954938E+02  0.33006162222E+03  0.33588063892E+03  0.00000000000E+00 0.  1.
<mgrwt>
<rscale>  0 0.18702922E+04</rscale>
<asrwt>0</asrwt>
<pdfrwt beam="1">  1        1 0.17149478E+00 0.18702922E+04</pdfrwt>
<pdfrwt beam="2">  1       -2 0.12069278E+00 0.18702922E+04</pdfrwt>
<totfact> 0.53216643E+00</totfact>
</mgrwt>
</event>
<event>
12    5  0.5041746E-008  0.1186210E+04  0.7818608E-02  0.9125014E-01
          1   -1    0    0  501    0  0.00000000000E+00  0.00000000000E+00  0.80401603118E+03  0.80401603118E+03  0.00000000000E+00 0. -1.
         -2   -1    0    0    0  501 -0.00000000000E+00 -0.00000000000E+00 -0.43752032407E+03  0.43752032407E+03  0.00000000000E+00 0.  1.
        -24    2    1    2    0    0  0.10899674646E+03  0.32204468303E+01 -0.14300440941E+03  0.19651728585E+03  0.79234591615E+02 0.  0.
        254    2    1    2    0    0 -0.10899674646E+03 -0.32204468303E+01  0.50950011653E+03  0.10450190694E+04  0.90586081969E+03 0.  0.
         23    2    4    4    0    0 -0.14775617858E+03  0.22292770265E+02  0.75727476666E+03  0.77711514393E+03  0.90077848506E+02 0.  0.
         23    2    4    4    0    0  0.38759432121E+02 -0.25513217096E+02 -0.24777465013E+03  0.26790392547E+03  0.90702911807E+02 0.  0.
          3    1    3    3  502    0  0.69040714182E+02 -0.17647748636E+02 -0.34810347728E+02  0.79308407850E+02  0.00000000000E+00 0. -1.
         -4    1    3    3    0  502  0.39956032279E+02  0.20868195467E+02 -0.10819406168E+03  0.11720887800E+03  0.00000000000E+00 0.  1.
         13    1    5    5    0    0 -0.26631416586E+02 -0.30750507490E+02  0.13748749284E+03  0.14337934561E+03  0.00000000000E+00 0. -1.
        -13    1    5    5    0    0 -0.12112476200E+03  0.53043277755E+02  0.61978727382E+03  0.63373579832E+03  0.00000000000E+00 0.  1.
          4    1    6    6  503    0 -0.11831675568E+02  0.25973202608E+02 -0.89636612927E+02  0.94070814696E+02  0.00000000000E+00 0. -1.
         -4    1    6    6    0  503  0.50591107688E+02 -0.51486419704E+02 -0.15813803721E+03  0.17383311078E+03  0.00000000000E+00 0.  1.
<mgrwt>
<rscale>  0 0.11862097E+04</rscale>
<asrwt>0</asrwt>
<pdfrwt beam="1">  1        1 0.12369477E+00 0.11862097E+04</pdfrwt>
<pdfrwt beam="2">  1       -2 0.67310819E-01 0.11862097E+04</pdfrwt>
<totfact> 0.38546916E+01</totfact>
</mgrwt>
</event>
<event>
12    5  0.5041746E-008  0.1557346E+04  0.7818608E-02  0.8847189E-01
         -2   -1    0    0    0  501 -0.00000000000E+00  0.00000000000E+00  0.86913058149E+03  0.86913058149E+03  0.00000000000E+00 0.  1.
          1   -1    0    0  501    0  0.00000000000E+00 -0.00000000000E+00 -0.69763034335E+03  0.69763034335E+03  0.00000000000E+00 0. -1.
        -24    2    1    2    0    0  0.99226948264E+01 -0.49419680412E+03  0.12386918014E+03  0.51548934631E+03  0.77825132798E+02 0.  0.
        254    2    1    2    0    0 -0.99226948264E+01  0.49419680412E+03  0.47631058006E+02  0.10512715785E+04  0.92659283025E+03 0.  0.
         23    2    4    4    0    0  0.15222457675E+03  0.71134568964E+03  0.14550225961E+03  0.74711399031E+03  0.88449957728E+02 0.  0.
         23    2    4    4    0    0 -0.16214727158E+03 -0.21714888552E+03 -0.97871201608E+02  0.30415758823E+03  0.97404775085E+02 0.  0.
          3    1    3    3  502    0 -0.15048143454E+02 -0.10521480367E+03 -0.69176493907E+00  0.10628772305E+03  0.00000000000E+00 0. -1.
         -4    1    3    3    0  502  0.24970838280E+02 -0.38898200045E+03  0.12456094507E+03  0.40920162326E+03  0.00000000000E+00 0.  1.
         13    1    5    5    0    0  0.22528720995E+02  0.99630767764E+02  0.52740517533E+02  0.11495823304E+03  0.00000000000E+00 0. -1.
        -13    1    5    5    0    0  0.12969585575E+03  0.61171492188E+03  0.92761742082E+02  0.63215575726E+03  0.00000000000E+00 0.  1.
          3    1    6    6  503    0 -0.29217397221E+02 -0.42209423748E+02 -0.63686775442E+02  0.81800349142E+02  0.00000000000E+00 0. -1.
         -3    1    6    6    0  503 -0.13292987435E+03 -0.17493946177E+03 -0.34184426166E+02  0.22235723908E+03  0.00000000000E+00 0.  1.
<mgrwt>
<rscale>  0 0.15573463E+04</rscale>
<asrwt>0</asrwt>
<pdfrwt beam="1">  1        1 0.10732774E+00 0.15573463E+04</pdfrwt>
<pdfrwt beam="2">  1       -2 0.13371240E+00 0.15573463E+04</pdfrwt>
<totfact> 0.93306961E+00</totfact>
</mgrwt>
</event>
<event>
12    5  0.5041746E-008  0.1261886E+04  0.7818608E-02  0.9060348E-01
         -2   -1    0    0    0  501 -0.00000000000E+00  0.00000000000E+00  0.15068126293E+03  0.15068126293E+03  0.00000000000E+00 0.  1.
          1   -1    0    0  501    0  0.00000000000E+00 -0.00000000000E+00 -0.26419273111E+04  0.26419273111E+04  0.00000000000E+00 0. -1.
        -24    2    1    2    0    0  0.12234374418E+03  0.23504779953E+03 -0.28779685766E+03  0.39924148516E+03  0.79694870494E+02 0.  0.
        254    2    1    2    0    0 -0.12234374418E+03 -0.23504779953E+03 -0.22034491906E+04  0.23933670889E+04  0.89599231425E+03 0.  0.
         23    2    4    4    0    0 -0.39012587865E+03 -0.35377181179E+03 -0.83237970329E+03  0.98852122224E+03  0.83459812817E+02 0.  0.
         23    2    4    4    0    0  0.26778213446E+03  0.11872401226E+03 -0.13710694873E+04  0.14048458667E+04  0.89205984266E+02 0.  0.
          1    1    3    3  502    0 -0.68429011165E+01 -0.86827302074E+00 -0.30415641865E+01  0.75385878273E+01  0.00000000000E+00 0. -1.
         -2    1    3    3    0  502  0.12918664530E+03  0.23591607255E+03 -0.28475529348E+03  0.39170289733E+03  0.00000000000E+00 0.  1.
         13    1    5    5    0    0 -0.42777550384E+02 -0.31692375560E+02 -0.45354456145E+02  0.69938202562E+02  0.00000000000E+00 0.  1.
        -13    1    5    5    0    0 -0.34734832826E+03 -0.32207943623E+03 -0.78702524715E+03  0.91858301968E+03  0.00000000000E+00 0. -1.
          1    1    6    6  503    0  0.13470348193E+03  0.10453040699E+03 -0.84399818293E+03  0.86104852757E+03  0.00000000000E+00 0. -1.
         -1    1    6    6    0  503  0.13307865253E+03  0.14193605267E+02 -0.52707130433E+03  0.54379733912E+03  0.00000000000E+00 0.  1.
<mgrwt>
<rscale>  0 0.12618858E+04</rscale>
<asrwt>0</asrwt>
<pdfrwt beam="1">  1        1 0.40645037E+00 0.12618858E+04</pdfrwt>
<pdfrwt beam="2">  1       -2 0.23181732E-01 0.12618858E+04</pdfrwt>
<totfact> 0.15439851E+01</totfact>
</mgrwt>
</event>
<event>
12    5  0.5041746E-008  0.1149649E+04  0.7818608E-02  0.9158107E-01
         -2   -1    0    0    0  501 -0.00000000000E+00  0.00000000000E+00  0.56612566826E+03  0.56612566826E+03  0.00000000000E+00 0.  1.
          1   -1    0    0  501    0  0.00000000000E+00 -0.00000000000E+00 -0.58365740693E+03  0.58365740693E+03  0.00000000000E+00 0. -1.
        -24    2    1    2    0    0  0.16528918443E+03  0.28871041633E+02  0.63492858985E+02  0.19690590009E+03  0.81157493878E+02 0.  0.
        254    2    1    2    0    0 -0.16528918443E+03 -0.28871041633E+02 -0.81024597648E+02  0.95287717510E+03  0.93448160702E+03 0.  0.
         23    2    4    4    0    0 -0.53676853105E+03 -0.11451159605E+03 -0.25156242191E+02  0.55692541106E+03  0.91102773884E+02 0.  0.
         23    2    4    4    0    0  0.37147934661E+03  0.85640554422E+02 -0.55868355457E+02  0.39595176404E+03  0.91243173907E+02 0.  0.
          3    1    3    3  502    0  0.24466208929E+02 -0.86070924733E+01  0.42342164559E+02  0.49654167195E+02  0.00000000000E+00 0. -1.
         -4    1    3    3    0  502  0.14082297551E+03  0.37478134106E+02  0.21150694425E+02  0.14725173290E+03  0.00000000000E+00 0.  1.
         13    1    5    5    0    0 -0.15347483644E+03  0.12745525087E+01 -0.30538551088E+02  0.15648882710E+03  0.00000000000E+00 0. -1.
        -13    1    5    5    0    0 -0.38329369461E+03 -0.11578614856E+03  0.53823088973E+01  0.40043658396E+03  0.00000000000E+00 0.  1.
          3    1    6    6  503    0  0.69268649268E+02 -0.39918664810E+01  0.19044687305E+02  0.71949849784E+02  0.00000000000E+00 0. -1.
         -3    1    6    6    0  503  0.30221069734E+03  0.89632420903E+02 -0.74913042763E+02  0.32400191426E+03  0.00000000000E+00 0.  1.
<mgrwt>
<rscale>  0 0.11496494E+04</rscale>
<asrwt>0</asrwt>
<pdfrwt beam="1">  1        1 0.89793447E-01 0.11496494E+04</pdfrwt>
<pdfrwt beam="2">  1       -2 0.87096257E-01 0.11496494E+04</pdfrwt>
<totfact> 0.35313410E+01</totfact>
</mgrwt>
</event>
<event>
12    5  0.5041746E-008  0.1794830E+04  0.7818608E-02  0.8709054E-01
          1   -1    0    0  501    0  0.00000000000E+00  0.00000000000E+00  0.13432420465E+04  0.13432420465E+04  0.00000000000E+00 0. -1.
         -2   -1    0    0    0  501 -0.00000000000E+00 -0.00000000000E+00 -0.59955955028E+03  0.59955955028E+03  0.00000000000E+00 0.  1.
        -24    2    1    2    0    0 -0.13460090440E+03 -0.38458978773E+03  0.87331810143E+03  0.96582612517E+03  0.64100619994E+02 0.  0.
        254    2    1    2    0    0  0.13460090440E+03  0.38458978773E+03 -0.12963560521E+03  0.97697547161E+03  0.87843552621E+03 0.  0.
         23    2    4    4    0    0 -0.93190263261E+02 -0.94741283430E+02 -0.35641266899E+03  0.39074152680E+03  0.89379047841E+02 0.  0.
         23    2    4    4    0    0  0.22779116766E+03  0.47933107116E+03  0.22677706378E+03  0.58623394482E+03  0.10293352008E+03 0.  0.
          1    1    3    3  502    0 -0.94945631407E+02 -0.19711721669E+03  0.51340575550E+03  0.55808183971E+03  0.00000000000E+00 0. -1.
         -2    1    3    3    0  502 -0.39655272994E+02 -0.18747257104E+03  0.35991234594E+03  0.40774428546E+03  0.00000000000E+00 0.  1.
         13    1    5    5    0    0  0.11012233938E+02 -0.32613354338E+02 -0.12243754033E+03  0.12718432081E+03  0.00000000000E+00 0. -1.
        -13    1    5    5    0    0 -0.10420249720E+03 -0.62127929092E+02 -0.23397512866E+03  0.26355720598E+03  0.00000000000E+00 0.  1.
          3    1    6    6  503    0  0.20533044324E+03  0.46888316076E+03  0.23015337900E+03  0.56123309527E+03  0.00000000000E+00 0. -1.
         -3    1    6    6    0  503  0.22460724425E+02  0.10447910397E+02 -0.33763152213E+01  0.25000849542E+02  0.00000000000E+00 0.  1.
<mgrwt>
<rscale>  0 0.17948299E+04</rscale>
<asrwt>0</asrwt>
<pdfrwt beam="1">  1        1 0.20665262E+00 0.17948299E+04</pdfrwt>
<pdfrwt beam="2">  1       -2 0.92239931E-01 0.17948299E+04</pdfrwt>
<totfact> 0.69672098E+00</totfact>
</mgrwt>
</event>
<event>
12    5  0.5041746E-008  0.2184190E+04  0.7818608E-02  0.8525037E-01
         -2   -1    0    0    0  501 -0.00000000000E+00  0.00000000000E+00  0.75333848441E+03  0.75333848441E+03  0.00000000000E+00 0.  1.
          1   -1    0    0  501    0  0.00000000000E+00 -0.00000000000E+00 -0.15831821353E+04  0.15831821353E+04  0.00000000000E+00 0. -1.
        -24    2    1    2    0    0 -0.75526498251E+03 -0.17466190654E+03  0.15570519717E+03  0.79470711249E+03  0.79895624542E+02 0.  0.
        254    2    1    2    0    0  0.75526498251E+03  0.17466190654E+03 -0.98554884810E+03  0.15418135073E+04  0.89719027178E+03 0.  0.
         23    2    4    4    0    0  0.19906044687E+03 -0.13057389926E+03  0.10445340870E+03  0.27733958874E+03  0.96602941042E+02 0.  0.
         23    2    4    4    0    0  0.55620453564E+03  0.30523580579E+03 -0.10900022568E+04  0.12644739185E+04  0.90867971168E+02 0.  0.
          3    1    3    3  502    0 -0.91457926048E+02  0.76987133700E+00  0.39945484463E+01  0.91548355289E+02  0.00000000000E+00 0. -1.
         -4    1    3    3    0  502 -0.66380705646E+03 -0.17543177787E+03  0.15171064873E+03  0.70315875720E+03  0.00000000000E+00 0.  1.
         13    1    5    5    0    0  0.95253741016E+02 -0.11782580155E+03  0.50863549114E+02  0.15982269963E+03  0.00000000000E+00 0.  1.
        -13    1    5    5    0    0  0.10380670585E+03 -0.12748097704E+02  0.53589859587E+02  0.11751688911E+03  0.00000000000E+00 0. -1.
          1    1    6    6  503    0  0.53713657308E+03  0.30849517310E+03 -0.10717687017E+04  0.12378905928E+04  0.00000000000E+00 0. -1.
         -1    1    6    6    0  503  0.19067962562E+02 -0.32593673138E+01 -0.18233555143E+02  0.26583325689E+02  0.00000000000E+00 0.  1.
<mgrwt>
<rscale>  0 0.21841905E+04</rscale>
<asrwt>0</asrwt>
<pdfrwt beam="1">  1        1 0.24356648E+00 0.21841905E+04</pdfrwt>
<pdfrwt beam="2">  1       -2 0.11589823E+00 0.21841905E+04</pdfrwt>
<totfact> 0.26576668E+00</totfact>
</mgrwt>
</event>
<event>
12    5  0.5041746E-008  0.2757966E+04  0.7818608E-02  0.8316438E-01
          1   -1    0    0  501    0  0.00000000000E+00  0.00000000000E+00  0.10409796770E+04  0.10409796770E+04  0.00000000000E+00 0. -1.
         -2   -1    0    0    0  501 -0.00000000000E+00 -0.00000000000E+00 -0.18267344689E+04  0.18267344689E+04  0.00000000000E+00 0.  1.
        -24    2    1    2    0    0 -0.76297764465E+03  0.96164696091E+03 -0.24633828822E+03  0.12545973845E+04  0.80201504509E+02 0.  0.
        254    2    1    2    0    0  0.76297764465E+03 -0.96164696091E+03 -0.53941650372E+03  0.16131167614E+04  0.89681422692E+03 0.  0.
         23    2    4    4    0    0  0.14211226099E+03  0.48923493167E+02  0.15664408027E+03  0.23480132459E+03  0.89470057774E+02 0.  0.
         23    2    4    4    0    0  0.62086538366E+03 -0.10105704541E+04 -0.69606058399E+03  0.13783154368E+04  0.92339803830E+02 0.  0.
          3    1    3    3  502    0 -0.43142203850E+03  0.53478477678E+03 -0.97612612955E+02  0.69400861305E+03  0.00000000000E+00 0. -1.
         -4    1    3    3    0  502 -0.33155560615E+03  0.42686218413E+03 -0.14872567527E+03  0.56058877146E+03  0.00000000000E+00 0.  1.
         13    1    5    5    0    0  0.12199580766E+03  0.16027261460E+02  0.73943227201E+02  0.14355295555E+03  0.00000000000E+00 0.  1.
        -13    1    5    5    0    0  0.20116453328E+02  0.32896231706E+02  0.82700853065E+02  0.91248369041E+02  0.00000000000E+00 0. -1.
          4    1    6    6  503    0  0.60044717919E+03 -0.94689541744E+03 -0.63979529747E+03  0.12909243856E+04  0.00000000000E+00 0. -1.
         -4    1    6    6    0  503  0.20418204470E+02 -0.63675036637E+02 -0.56265286518E+02  0.87391051209E+02  0.00000000000E+00 0.  1.
<mgrwt>
<rscale>  0 0.27579655E+04</rscale>
<asrwt>0</asrwt>
<pdfrwt beam="1">  1        1 0.16015072E+00 0.27579655E+04</pdfrwt>
<pdfrwt beam="2">  1       -2 0.28103607E+00 0.27579655E+04</pdfrwt>
<totfact> 0.44488803E-01</totfact>
</mgrwt>
</event>
<event>
12    5  0.5041746E-008  0.1345059E+04  0.7818608E-02  0.8994577E-01
          1   -1    0    0  501    0  0.00000000000E+00  0.00000000000E+00  0.35689168666E+03  0.35689168666E+03  0.00000000000E+00 0. -1.
         -2   -1    0    0    0  501 -0.00000000000E+00 -0.00000000000E+00 -0.12673193520E+04  0.12673193520E+04  0.00000000000E+00 0.  1.
        -24    2    1    2    0    0 -0.19653077810E+03  0.76511632512E+02 -0.60670388549E+03  0.64727050813E+03  0.79944539343E+02 0.  0.
        254    2    1    2    0    0  0.19653077810E+03 -0.76511632512E+02 -0.30372377988E+03  0.97694053056E+03  0.90426007826E+03 0.  0.
         23    2    4    4    0    0  0.50978501091E+03 -0.37460652415E+01 -0.36868438007E+03  0.63544100577E+03  0.89231773220E+02 0.  0.
         23    2    4    4    0    0 -0.31325423281E+03 -0.72765567270E+02  0.64960600187E+02  0.34149952479E+03  0.94757604997E+02 0.  0.
          3    1    3    3  502    0 -0.37912944131E+00  0.21296578306E+02 -0.70681317050E+02  0.73820976467E+02  0.00000000000E+00 0. -1.
         -4    1    3    3    0  502 -0.19615164866E+03  0.55215054206E+02 -0.53602256845E+03  0.57344953166E+03  0.00000000000E+00 0.  1.
         13    1    5    5    0    0  0.45133965532E+03  0.25136656538E+02 -0.32943743248E+03  0.55934636665E+03  0.00000000000E+00 0.  1.
        -13    1    5    5    0    0  0.58445355584E+02 -0.28882721779E+02 -0.39246947592E+02  0.76094639115E+02  0.00000000000E+00 0. -1.
          3    1    6    6  503    0 -0.14326996187E+03 -0.81413815653E+02  0.38854543602E+02  0.16930495241E+03  0.00000000000E+00 0. -1.
         -3    1    6    6    0  503 -0.16998427094E+03  0.86482483820E+01  0.26106056584E+02  0.17219457238E+03  0.00000000000E+00 0.  1.
<mgrwt>
<rscale>  0 0.13450587E+04</rscale>
<asrwt>0</asrwt>
<pdfrwt beam="1">  1        1 0.54906413E-01 0.13450587E+04</pdfrwt>
<pdfrwt beam="2">  1       -2 0.19497221E+00 0.13450587E+04</pdfrwt>
<totfact> 0.85634764E+00</totfact>
</mgrwt>
</event>
<event>
12    5  0.5041746E-008  0.1839646E+04  0.7818608E-02  0.8685496E-01
          1   -1    0    0  501    0  0.00000000000E+00  0.00000000000E+00  0.34559303200E+04  0.34559303200E+04  0.00000000000E+00 0. -1.
         -2   -1    0    0    0  501 -0.00000000000E+00 -0.00000000000E+00 -0.24481812594E+03  0.24481812594E+03  0.00000000000E+00 0.  1.
        -24    2    1    2    0    0  0.51307547827E+03  0.12376865783E+03  0.21203669700E+04  0.21865326215E+04  0.80023061426E+02 0.  0.
        254    2    1    2    0    0 -0.51307547827E+03 -0.12376865783E+03  0.10907452240E+04  0.15142158244E+04  0.90805247211E+03 0.  0.
         23    2    4    4    0    0  0.17072776596E+03  0.66681851334E+02  0.62894481250E+03  0.66162680054E+03  0.92649914535E+02 0.  0.
         23    2    4    4    0    0 -0.68380324423E+03 -0.19045050916E+03  0.46180041155E+03  0.85258902388E+03  0.98945188252E+02 0.  0.
          1    1    3    3  502    0  0.17280854672E+03  0.36779328698E+02  0.56377699826E+03  0.59081301323E+03  0.00000000000E+00 0. -1.
         -2    1    3    3    0  502  0.34026693155E+03  0.86989329128E+02  0.15565899718E+04  0.15957196083E+04  0.00000000000E+00 0.  1.
         13    1    5    5    0    0  0.59454106400E+02 -0.44961245526E+01  0.99891330971E+02  0.11633264334E+03  0.00000000000E+00 0. -1.
        -13    1    5    5    0    0  0.11127365956E+03  0.71177975886E+02  0.52905348153E+03  0.54529415720E+03  0.00000000000E+00 0.  1.
          2    1    6    6  503    0 -0.44617505948E+03 -0.74782064722E+02  0.29361825204E+03  0.53932941589E+03  0.00000000000E+00 0. -1.
         -2    1    6    6    0  503 -0.23762818475E+03 -0.11566844444E+03  0.16818215951E+03  0.31325960800E+03  0.00000000000E+00 0.  1.
<mgrwt>
<rscale>  0 0.18396460E+04</rscale>
<asrwt>0</asrwt>
<pdfrwt beam="1">  1        1 0.53168155E+00 0.18396460E+04</pdfrwt>
<pdfrwt beam="2">  1       -2 0.37664330E-01 0.18396460E+04</pdfrwt>
<totfact> 0.14953831E+00</totfact>
</mgrwt>
</event>
<event>
12    5  0.5041746E-008  0.1184942E+04  0.7818608E-02  0.9126140E-01
          1   -1    0    0  501    0  0.00000000000E+00  0.00000000000E+00  0.14292986284E+04  0.14292986284E+04  0.00000000000E+00 0. -1.
         -2   -1    0    0    0  501 -0.00000000000E+00 -0.00000000000E+00 -0.24559021724E+03  0.24559021724E+03  0.00000000000E+00 0.  1.
        -24    2    1    2    0    0  0.12782403212E+03 -0.11742333720E+03  0.48180111928E+03  0.51831412776E+03  0.79937432981E+02 0.  0.
        254    2    1    2    0    0 -0.12782403212E+03  0.11742333720E+03  0.70190729189E+03  0.11565747179E+04  0.90269818231E+03 0.  0.
         23    2    4    4    0    0 -0.91651799798E+02  0.84790795073E+02  0.91057581661E+03  0.92354062985E+03  0.90495557095E+02 0.  0.
         23    2    4    4    0    0 -0.36172232325E+02  0.32632542122E+02 -0.20866852471E+03  0.23303408805E+03  0.91591592345E+02 0.  0.
          1    1    3    3  502    0  0.31606466965E+01 -0.73724390196E+01  0.11842507796E+03  0.11869642637E+03  0.00000000000E+00 0. -1.
         -2    1    3    3    0  502  0.12466338543E+03 -0.11005089818E+03  0.36337604132E+03  0.39961770139E+03  0.00000000000E+00 0.  1.
         13    1    5    5    0    0 -0.14352320466E+02 -0.14066700866E+02  0.50396307320E+02  0.54255404961E+02  0.00000000000E+00 0. -1.
        -13    1    5    5    0    0 -0.77299479332E+02  0.98857495939E+02  0.86017950929E+03  0.86928522489E+03  0.00000000000E+00 0.  1.
          3    1    6    6  503    0  0.28385773012E+01  0.22927467659E+02 -0.27932752023E+01  0.23270768804E+02  0.00000000000E+00 0. -1.
         -3    1    6    6    0  503 -0.39010809627E+02  0.97050744630E+01 -0.20587524951E+03  0.20976331924E+03  0.00000000000E+00 0.  1.
<mgrwt>
<rscale>  0 0.11849418E+04</rscale>
<asrwt>0</asrwt>
<pdfrwt beam="1">  1        1 0.21989209E+00 0.11849418E+04</pdfrwt>
<pdfrwt beam="2">  1       -2 0.37783111E-01 0.11849418E+04</pdfrwt>
<totfact> 0.42095750E+01</totfact>
</mgrwt>
</event>
<event>
12    5  0.5041746E-008  0.1561288E+04  0.7818608E-02  0.8844690E-01
         -2   -1    0    0    0  501 -0.00000000000E+00  0.00000000000E+00  0.17883624342E+03  0.17883624342E+03  0.00000000000E+00 0.  1.
          1   -1    0    0  501    0  0.00000000000E+00 -0.00000000000E+00 -0.34076133217E+04  0.34076133217E+04  0.00000000000E+00 0. -1.
        -24    2    1    2    0    0 -0.29857531533E+02 -0.47468149802E+03 -0.15980888647E+04  0.16692567732E+04  0.79474263392E+02 0.  0.
        254    2    1    2    0    0  0.29857531533E+02  0.47468149802E+03 -0.16306882136E+04  0.19171927920E+04  0.88897140274E+03 0.  0.
         23    2    4    4    0    0 -0.17881648626E+03  0.66917315342E+03 -0.12556419560E+04  0.14369718201E+04  0.92104533059E+02 0.  0.
         23    2    4    4    0    0  0.20867401780E+03 -0.19449165540E+03 -0.37504625753E+03  0.48022097184E+03  0.92631726667E+02 0.  0.
          3    1    3    3  502    0 -0.59824074278E+01 -0.34613927868E+03 -0.10419252038E+04  0.10979327483E+04  0.00000000000E+00 0. -1.
         -4    1    3    3    0  502 -0.23875124105E+02 -0.12854221933E+03 -0.55616366088E+03  0.57132402486E+03  0.00000000000E+00 0.  1.
         13    1    5    5    0    0  0.79020499951E+01  0.45937425733E+02 -0.62412123869E+02  0.77897128849E+02  0.00000000000E+00 0. -1.
        -13    1    5    5    0    0 -0.18671853626E+03  0.62323572768E+03 -0.11932298322E+04  0.13590746913E+04  0.00000000000E+00 0.  1.
          3    1    6    6  503    0  0.13416214202E+02  0.44160949242E+01 -0.50374528612E+02  0.52317203966E+02  0.00000000000E+00 0. -1.
         -3    1    6    6    0  503  0.19525780360E+03 -0.19890775032E+03 -0.32467172892E+03  0.42790376788E+03  0.00000000000E+00 0.  1.
<mgrwt>
<rscale>  0 0.15612876E+04</rscale>
<asrwt>0</asrwt>
<pdfrwt beam="1">  1        1 0.52424815E+00 0.15612876E+04</pdfrwt>
<pdfrwt beam="2">  1       -2 0.27513271E-01 0.15612876E+04</pdfrwt>
<totfact> 0.30323581E+00</totfact>
</mgrwt>
</event>
<event>
12    5  0.5041746E-008  0.3241227E+04  0.7818608E-02  0.8178013E-01
          1   -1    0    0  501    0  0.00000000000E+00  0.00000000000E+00  0.20163094667E+04  0.20163094667E+04  0.00000000000E+00 0. -1.
         -2   -1    0    0    0  501 -0.00000000000E+00 -0.00000000000E+00 -0.13025722077E+04  0.13025722077E+04  0.00000000000E+00 0.  1.
        -24    2    1    2    0    0  0.29043562171E+03 -0.10992156163E+04  0.13095005611E+04  0.17362538336E+04  0.84603981344E+02 0.  0.
        254    2    1    2    0    0 -0.29043562171E+03  0.10992156163E+04 -0.59576330207E+03  0.15826278408E+04  0.92582349775E+03 0.  0.
         23    2    4    4    0    0 -0.40011678002E+03  0.77974773616E+03  0.11837222024E+02  0.88123315408E+03  0.91278597369E+02 0.  0.
         23    2    4    4    0    0  0.10968115831E+03  0.31946788012E+03 -0.60760052410E+03  0.70139468672E+03  0.93201001945E+02 0.  0.
          1    1    3    3  502    0  0.28371263465E+03 -0.10938709931E+04  0.13058241054E+04  0.17269114635E+04  0.00000000000E+00 0. -1.
         -2    1    3    3    0  502  0.67229870601E+01 -0.53446231651E+01  0.36764557377E+01  0.93423700728E+01  0.00000000000E+00 0.  1.
         13    1    5    5    0    0 -0.36792016566E+03  0.68872516397E+03  0.36135479187E+02  0.78167344374E+03  0.00000000000E+00 0. -1.
        -13    1    5    5    0    0 -0.32196614360E+02  0.91022572182E+02 -0.24298257163E+02  0.99559710345E+02  0.00000000000E+00 0.  1.
          1    1    6    6  503    0  0.11890414975E+03  0.22240883856E+03 -0.45754048635E+03  0.52244347536E+03  0.00000000000E+00 0. -1.
         -1    1    6    6    0  503 -0.92229914361E+01  0.97059041561E+02 -0.15006003774E+03  0.17895121136E+03  0.00000000000E+00 0.  1.
<mgrwt>
<rscale>  0 0.32412273E+04</rscale>
<asrwt>0</asrwt>
<pdfrwt beam="1">  1        1 0.31020146E+00 0.32412273E+04</pdfrwt>
<pdfrwt beam="2">  1       -2 0.20039572E+00 0.32412273E+04</pdfrwt>
<totfact> 0.28153823E-01</totfact>
</mgrwt>
</event>
<event>
12    5  0.5041746E-008  0.2971209E+04  0.7818608E-02  0.8252000E-01
         -2   -1    0    0    0  501 -0.00000000000E+00  0.00000000000E+00  0.63062170272E+03  0.63062170272E+03  0.00000000000E+00 0.  1.
          1   -1    0    0  501    0  0.00000000000E+00 -0.00000000000E+00 -0.34997541473E+04  0.34997541473E+04  0.00000000000E+00 0. -1.
        -24    2    1    2    0    0  0.61837158158E+03  0.84499071427E+03 -0.24844355201E+04  0.26974594510E+04  0.86457596304E+02 0.  0.
        254    2    1    2    0    0 -0.61837158158E+03 -0.84499071427E+03 -0.38469692450E+03  0.14329163991E+04  0.89936920277E+03 0.  0.
         23    2    4    4    0    0 -0.58079329005E+03 -0.77278612450E+03  0.59568154686E+02  0.97282682537E+03  0.91238298555E+02 0.  0.
         23    2    4    4    0    0 -0.37578291534E+02 -0.72204589764E+02 -0.44426507918E+03  0.46008957370E+03  0.87665982372E+02 0.  0.
          3    1    3    3  502    0  0.54227122257E+03  0.76235165175E+03 -0.21521494591E+04  0.23466967026E+04  0.00000000000E+00 0. -1.
         -4    1    3    3    0  502  0.76100359016E+02  0.82639062518E+02 -0.33228606103E+03  0.35076274838E+03  0.00000000000E+00 0.  1.
         13    1    5    5    0    0 -0.12602198555E+03 -0.22261134075E+03  0.38738375314E+02  0.25872381335E+03  0.00000000000E+00 0. -1.
        -13    1    5    5    0    0 -0.45477130450E+03 -0.55017478376E+03  0.20829779372E+02  0.71410301202E+03  0.00000000000E+00 0.  1.
          1    1    6    6  503    0 -0.49927046828E+02 -0.29218297000E+02 -0.12536025557E+03  0.13806379888E+03  0.00000000000E+00 0. -1.
         -1    1    6    6    0  503  0.12348755294E+02 -0.42986292764E+02 -0.31890482361E+03  0.32202577481E+03  0.00000000000E+00 0.  1.
<mgrwt>
<rscale>  0 0.29712091E+04</rscale>
<asrwt>0</asrwt>
<pdfrwt beam="1">  1        1 0.53842373E+00 0.29712091E+04</pdfrwt>
<pdfrwt beam="2">  1       -2 0.97018721E-01 0.29712091E+04</pdfrwt>
<totfact> 0.16642620E-01</totfact>
</mgrwt>
</event>
<event>
12    5  0.5041746E-008  0.1611171E+04  0.7818608E-02  0.8813714E-01
         -2   -1    0    0    0  501 -0.00000000000E+00  0.00000000000E+00  0.10647899994E+04  0.10647899994E+04  0.00000000000E+00 0.  1.
          1   -1    0    0  501    0  0.00000000000E+00 -0.00000000000E+00 -0.60947987796E+03  0.60947987796E+03  0.00000000000E+00 0. -1.
        -24    2    1    2    0    0 -0.14473131516E+03 -0.26846489501E+03 -0.34291511423E+03  0.46585226008E+03  0.80043733129E+02 0.  0.
        254    2    1    2    0    0  0.14473131516E+03  0.26846489501E+03  0.79822523571E+03  0.12084176173E+04  0.85445248991E+03 0.  0.
         23    2    4    4    0    0  0.51451080345E+02  0.11889108983E+03 -0.16275688307E+03  0.22730038227E+03  0.91615260107E+02 0.  0.
         23    2    4    4    0    0  0.93280234813E+02  0.14957380519E+03  0.96098211877E+03  0.98111723506E+03  0.89615126680E+02 0.  0.
          1    1    3    3  502    0 -0.13048869646E+03 -0.19393390659E+03 -0.29389565728E+03  0.37551606810E+03  0.00000000000E+00 0. -1.
         -2    1    3    3    0  502 -0.14242618697E+02 -0.74530988422E+02 -0.49019456945E+02  0.90336191981E+02  0.00000000000E+00 0.  1.
         13    1    5    5    0    0  0.24378164134E+02  0.99993457715E+02 -0.16471449683E+03  0.19422629054E+03  0.00000000000E+00 0.  1.
        -13    1    5    5    0    0  0.27072916212E+02  0.18897632111E+02  0.19576137654E+01  0.33074091722E+02  0.00000000000E+00 0. -1.
          4    1    6    6  503    0  0.65454253558E+02  0.15522981273E+03  0.78652697214E+03  0.80436635433E+03  0.00000000000E+00 0.  1.
         -4    1    6    6    0  503  0.27825981255E+02 -0.56560075424E+01  0.17445514663E+03  0.17675088073E+03  0.00000000000E+00 0. -1.
<mgrwt>
<rscale>  0 0.16111711E+04</rscale>
<asrwt>0</asrwt>
<pdfrwt beam="1">  1        1 0.93766135E-01 0.16111711E+04</pdfrwt>
<pdfrwt beam="2">  1       -2 0.16381385E+00 0.16111711E+04</pdfrwt>
<totfact> 0.66284001E+00</totfact>
</mgrwt>
</event>
<event>
12    5  0.5041746E-008  0.1629378E+04  0.7818608E-02  0.8802701E-01
         -2   -1    0    0    0  501 -0.00000000000E+00  0.00000000000E+00  0.37202493723E+03  0.37202493723E+03  0.00000000000E+00 0.  1.
          1   -1    0    0  501    0  0.00000000000E+00 -0.00000000000E+00 -0.17840690207E+04  0.17840690207E+04  0.00000000000E+00 0. -1.
        -24    2    1    2    0    0 -0.12691406886E+03  0.12710422515E+03  0.21314384794E+03  0.29003411659E+03  0.80167474353E+02 0.  0.
        254    2    1    2    0    0  0.12691406886E+03 -0.12710422515E+03 -0.16251879314E+04  0.18660598414E+04  0.89926684259E+03 0.  0.
         23    2    4    4    0    0  0.34134188452E+03  0.26386192450E+03 -0.60395683206E+03  0.74797964339E+03  0.92586686928E+02 0.  0.
         23    2    4    4    0    0 -0.21442781565E+03 -0.39096614965E+03 -0.10212310994E+04  0.11180801980E+04  0.91414181113E+02 0.  0.
          1    1    3    3  502    0 -0.83723200472E+02  0.30985671586E+02  0.77141955976E+02  0.11798545467E+03  0.00000000000E+00 0. -1.
         -2    1    3    3    0  502 -0.43190868391E+02  0.96118553561E+02  0.13600189197E+03  0.17204866192E+03  0.00000000000E+00 0.  1.
         13    1    5    5    0    0  0.10324544047E+03  0.82479167528E+02 -0.26264884884E+03  0.29401845495E+03  0.00000000000E+00 0. -1.
        -13    1    5    5    0    0  0.23809644404E+03  0.18138275698E+03 -0.34130798323E+03  0.45396118844E+03  0.00000000000E+00 0.  1.
          1    1    6    6  503    0 -0.61145320895E+02 -0.20613428224E+03 -0.49058493449E+03  0.53563389599E+03  0.00000000000E+00 0. -1.
         -1    1    6    6    0  503 -0.15328249476E+03 -0.18483186741E+03 -0.53064616487E+03  0.58244630199E+03  0.00000000000E+00 0.  1.
<mgrwt>
<rscale>  0 0.16293780E+04</rscale>
<asrwt>0</asrwt>
<pdfrwt beam="1">  1        1 0.27447216E+00 0.16293780E+04</pdfrwt>
<pdfrwt beam="2">  1       -2 0.57234606E-01 0.16293780E+04</pdfrwt>
<totfact> 0.10040906E+01</totfact>
</mgrwt>
</event>
<event>
12    5  0.5041746E-008  0.1398442E+04  0.7818608E-02  0.8954947E-01
          1   -1    0    0  501    0  0.00000000000E+00  0.00000000000E+00  0.10509275991E+04  0.10509275991E+04  0.00000000000E+00 0. -1.
         -2   -1    0    0    0  501 -0.00000000000E+00 -0.00000000000E+00 -0.46521742642E+03  0.46521742642E+03  0.00000000000E+00 0.  1.
        -24    2    1    2    0    0 -0.43260571529E+02  0.61126825483E+02  0.60456543316E+03  0.61446929275E+03  0.80406361207E+02 0.  0.
        254    2    1    2    0    0  0.43260571529E+02 -0.61126825483E+02 -0.18855260516E+02  0.90167573272E+03  0.89836275540E+03 0.  0.
         23    2    4    4    0    0 -0.15966054652E+03 -0.29799788301E+03  0.28714327386E+03  0.45266138724E+03  0.90315244485E+02 0.  0.
         23    2    4    4    0    0  0.20292111805E+03  0.23687105752E+03 -0.30599853437E+03  0.44901434548E+03  0.10341132126E+03 0.  0.
          1    1    3    3  502    0 -0.28672165598E+02  0.79546334412E+02  0.51383329683E+03  0.52074405357E+03  0.00000000000E+00 0. -1.
         -2    1    3    3    0  502 -0.14588405931E+02 -0.18419508929E+02  0.90732136330E+02  0.93725239182E+02  0.00000000000E+00 0.  1.
         13    1    5    5    0    0 -0.62688900832E+02 -0.50372237742E+02  0.95594902724E+02  0.12492256021E+03  0.00000000000E+00 0. -1.
        -13    1    5    5    0    0 -0.96971645693E+02 -0.24762564526E+03  0.19154837113E+03  0.32773882703E+03  0.00000000000E+00 0.  1.
          3    1    6    6  503    0  0.49102204383E+02  0.83031205412E+02 -0.37624457914E+02  0.10354133175E+03  0.00000000000E+00 0. -1.
         -3    1    6    6    0  503  0.15381891367E+03  0.15383985211E+03 -0.26837407646E+03  0.34547301373E+03  0.00000000000E+00 0.  1.
<mgrwt>
<rscale>  0 0.13984418E+04</rscale>
<asrwt>0</asrwt>
<pdfrwt beam="1">  1        1 0.16168117E+00 0.13984418E+04</pdfrwt>
<pdfrwt beam="2">  1       -2 0.71571912E-01 0.13984418E+04</pdfrwt>
<totfact> 0.20917867E+01</totfact>
</mgrwt>
</event>
<event>
12    5  0.5041746E-008  0.1487220E+04  0.7818608E-02  0.8892996E-01
          1   -1    0    0  501    0  0.00000000000E+00  0.00000000000E+00  0.28408728566E+04  0.28408728566E+04  0.00000000000E+00 0. -1.
         -2   -1    0    0    0  501 -0.00000000000E+00 -0.00000000000E+00 -0.19464285285E+03  0.19464285285E+03  0.00000000000E+00 0.  1.
        -24    2    1    2    0    0  0.30569157694E+03  0.35376249574E+03  0.74219234486E+03  0.88088640402E+03  0.80722589259E+02 0.  0.
        254    2    1    2    0    0 -0.30569157694E+03 -0.35376249574E+03  0.19040376589E+04  0.21546293055E+04  0.89357304893E+03 0.  0.
         23    2    4    4    0    0 -0.47845493130E+03 -0.53220214541E+03  0.11816074731E+04  0.13845219364E+04  0.92447429035E+02 0.  0.
         23    2    4    4    0    0  0.17276335437E+03  0.17843964967E+03  0.72243018584E+03  0.77010736904E+03  0.97324720647E+02 0.  0.
          3    1    3    3  502    0  0.45080719028E+02  0.86106051543E+02  0.20117668251E+03  0.22342466499E+03  0.00000000000E+00 0. -1.
         -4    1    3    3    0  502  0.26061085791E+03  0.26765644420E+03  0.54101566235E+03  0.65746173903E+03  0.00000000000E+00 0.  1.
         13    1    5    5    0    0 -0.17292106580E+03 -0.24870903118E+03  0.54720813820E+03  0.62545553295E+03  0.00000000000E+00 0. -1.
        -13    1    5    5    0    0 -0.30553386550E+03 -0.28349311423E+03  0.63439933489E+03  0.75906640348E+03  0.00000000000E+00 0.  1.
          2    1    6    6  503    0  0.93358382391E+02  0.32967864422E+02  0.31731407476E+03  0.33240169929E+03  0.00000000000E+00 0. -1.
         -2    1    6    6    0  503  0.79404971976E+02  0.14547178525E+03  0.40511611107E+03  0.43770566975E+03  0.00000000000E+00 0.  1.
<mgrwt>
<rscale>  0 0.14872197E+04</rscale>
<asrwt>0</asrwt>
<pdfrwt beam="1">  1        1 0.43705733E+00 0.14872197E+04</pdfrwt>
<pdfrwt beam="2">  1       -2 0.29945056E-01 0.14872197E+04</pdfrwt>
<totfact> 0.68518958E+00</totfact>
</mgrwt>
</event>
<event>
12    5  0.5041746E-008  0.2151040E+04  0.7818608E-02  0.8539087E-01
          1   -1    0    0  501    0  0.00000000000E+00  0.00000000000E+00  0.16153075359E+04  0.16153075359E+04  0.00000000000E+00 0. -1.
         -2   -1    0    0    0  501 -0.00000000000E+00 -0.00000000000E+00 -0.71611357101E+03  0.71611357101E+03  0.00000000000E+00 0.  1.
        -24    2    1    2    0    0  0.62041897459E+02  0.73074837187E+03 -0.16842859654E+03  0.75667906185E+03  0.79703390626E+02 0.  0.
        254    2    1    2    0    0 -0.62041897459E+02 -0.73074837187E+03  0.10676225614E+04  0.15747420450E+04  0.89562949637E+03 0.  0.
         23    2    4    4    0    0 -0.33029291650E+03 -0.26466503268E+03  0.90853555904E+03  0.10069675590E+04  0.96983568385E+02 0.  0.
         23    2    4    4    0    0  0.26825101904E+03 -0.46608333919E+03  0.15908700237E+03  0.56777448609E+03  0.88695571708E+02 0.  0.
          1    1    3    3  502    0  0.64701316998E+02  0.30146588918E+03 -0.65116388418E+02  0.31513185621E+03  0.00000000000E+00 0. -1.
         -2    1    3    3    0  502 -0.26594195396E+01  0.42928248269E+03 -0.10331220812E+03  0.44154720564E+03  0.00000000000E+00 0.  1.
         13    1    5    5    0    0  0.38693662883E+01 -0.19081671510E+02  0.44012223781E+02  0.48126479460E+02  0.00000000000E+00 0. -1.
        -13    1    5    5    0    0 -0.33416228279E+03 -0.24558336117E+03  0.86452333526E+03  0.95884107950E+03  0.00000000000E+00 0.  1.
          3    1    6    6  503    0  0.17891753990E+03 -0.24403476975E+03  0.11870555090E+03  0.32504686239E+03  0.00000000000E+00 0.  1.
         -3    1    6    6    0  503  0.89333479143E+02 -0.22204856944E+03  0.40381451470E+02  0.24272762370E+03  0.00000000000E+00 0. -1.
<mgrwt>
<rscale>  0 0.21510404E+04</rscale>
<asrwt>0</asrwt>
<pdfrwt beam="1">  1        1 0.24850885E+00 0.21510404E+04</pdfrwt>
<pdfrwt beam="2">  1       -2 0.11017132E+00 0.21510404E+04</pdfrwt>
<totfact> 0.28660316E+00</totfact>
</mgrwt>
</event>
<event>
12    5  0.5041746E-008  0.1549948E+04  0.7818608E-02  0.8851901E-01
         -2   -1    0    0    0  501 -0.00000000000E+00  0.00000000000E+00  0.16265398809E+04  0.16265398809E+04  0.00000000000E+00 0.  1.
          1   -1    0    0  501    0  0.00000000000E+00 -0.00000000000E+00 -0.36924052298E+03  0.36924052298E+03  0.00000000000E+00 0. -1.
        -24    2    1    2    0    0 -0.17783096235E+03 -0.16221099213E+03 -0.15277778227E+03  0.30325004624E+03  0.10335996641E+03 0.  0.
        254    2    1    2    0    0  0.17783096235E+03  0.16221099213E+03  0.14100771402E+04  0.16925303577E+04  0.90465751149E+03 0.  0.
         23    2    4    4    0    0  0.48546909447E+01  0.49301091760E+03  0.10612481570E+04  0.11735848195E+04  0.89276789046E+02 0.  0.
         23    2    4    4    0    0  0.17297627140E+03 -0.33079992547E+03  0.34882898326E+03  0.51894553814E+03  0.90958401688E+02 0.  0.
          1    1    3    3  502    0 -0.16104413654E+03 -0.84845895156E+02 -0.95680644522E+02  0.20564247026E+03  0.00000000000E+00 0. -1.
         -4    1    3    3    0  502 -0.16786825805E+02 -0.77365096975E+02 -0.57097137746E+02  0.97607575984E+02  0.00000000000E+00 0.  1.
         13    1    5    5    0    0  0.26452020125E+02  0.44743002098E+03  0.91495153688E+03  0.10188374001E+04  0.00000000000E+00 0.  1.
        -13    1    5    5    0    0 -0.21597329180E+02  0.45580896615E+02  0.14629662008E+03  0.15474741940E+03  0.00000000000E+00 0. -1.
          4    1    6    6  503    0  0.40448591929E+02 -0.42093787682E+02  0.98483912486E+02  0.11448605404E+03  0.00000000000E+00 0. -1.
         -4    1    6    6    0  503  0.13252767947E+03 -0.28870613778E+03  0.25034507078E+03  0.40445948411E+03  0.00000000000E+00 0.  1.
<mgrwt>
<rscale>  0 0.15499477E+04</rscale>
<asrwt>0</asrwt>
<pdfrwt beam="1">  1        1 0.56806235E-01 0.15499477E+04</pdfrwt>
<pdfrwt beam="2">  1       -2 0.25023690E+00 0.15499477E+04</pdfrwt>
<totfact> 0.36002242E+00</totfact>
</mgrwt>
</event>
<event>
12    5  0.5041746E-008  0.1610355E+04  0.7818608E-02  0.8814212E-01
          1   -1    0    0  501    0  0.00000000000E+00  0.00000000000E+00  0.25466412643E+04  0.25466412643E+04  0.00000000000E+00 0. -1.
         -2   -1    0    0    0  501 -0.00000000000E+00 -0.00000000000E+00 -0.25457492772E+03  0.25457492772E+03  0.00000000000E+00 0.  1.
        -24    2    1    2    0    0 -0.28908566745E+03  0.26347104761E+03  0.12409754749E+03  0.41809907759E+03  0.80119419214E+02 0.  0.
        254    2    1    2    0    0  0.28908566745E+03 -0.26347104761E+03  0.21679687891E+04  0.23831171145E+04  0.90893948897E+03 0.  0.
         23    2    4    4    0    0  0.28617425102E+03 -0.58091952573E+03  0.15132232901E+04  0.16483934471E+04  0.89403766052E+02 0.  0.
         23    2    4    4    0    0  0.29114164342E+01  0.31744847812E+03  0.65474549900E+03  0.73472366736E+03  0.10171128899E+03 0.  0.
          3    1    3    3  502    0 -0.33653334633E+02  0.41488874469E+02 -0.95227184070E+01  0.54263761411E+02  0.00000000000E+00 0. -1.
         -4    1    3    3    0  502 -0.25543233282E+03  0.22198217314E+03  0.13362026590E+03  0.36383531618E+03  0.00000000000E+00 0.  1.
         13    1    5    5    0    0  0.17754168824E+03 -0.26831884471E+03  0.79261372838E+03  0.85542537717E+03  0.00000000000E+00 0. -1.
        -13    1    5    5    0    0  0.10863256278E+03 -0.31260068101E+03  0.72060956173E+03  0.79296806993E+03  0.00000000000E+00 0.  1.
          1    1    6    6  503    0  0.10734588013E+02  0.65863075955E+02  0.63444474160E+02  0.92078105190E+02  0.00000000000E+00 0. -1.
         -1    1    6    6    0  503 -0.78231715785E+01  0.25158540217E+03  0.59130102484E+03  0.64264556217E+03  0.00000000000E+00 0.  1.
<mgrwt>
<rscale>  0 0.16103553E+04</rscale>
<asrwt>0</asrwt>
<pdfrwt beam="1">  1        1 0.39179095E+00 0.16103553E+04</pdfrwt>
<pdfrwt beam="2">  1       -2 0.39165375E-01 0.16103553E+04</pdfrwt>
<totfact> 0.65378594E+00</totfact>
</mgrwt>
</event>
<event>
12    5  0.5041746E-008  0.2186922E+04  0.7818608E-02  0.8523891E-01
         -2   -1    0    0    0  501 -0.00000000000E+00  0.00000000000E+00  0.48654468276E+03  0.48654468276E+03  0.00000000000E+00 0.  1.
          1   -1    0    0  501    0  0.00000000000E+00 -0.00000000000E+00 -0.24574452898E+04  0.24574452898E+04  0.00000000000E+00 0. -1.
        -24    2    1    2    0    0  0.13914326725E+03  0.11845746511E+03 -0.19772890666E+04  0.19873342293E+04  0.80201408095E+02 0.  0.
        254    2    1    2    0    0 -0.13914326725E+03 -0.11845746511E+03  0.63884595615E+01  0.95665574333E+03  0.93901883845E+03 0.  0.
         23    2    4    4    0    0 -0.10858418732E+03  0.21509498466E+03 -0.36634467880E+03  0.44703092817E+03  0.87016371398E+02 0.  0.
         23    2    4    4    0    0 -0.30559079934E+02 -0.33355244978E+03  0.37273313836E+03  0.50962481516E+03  0.92716587903E+02 0.  0.
          1    1    3    3  502    0  0.14417306147E+03  0.12532358668E+03 -0.18866447758E+04  0.18962912179E+04  0.00000000000E+00 0. -1.
         -2    1    3    3    0  502 -0.50297942149E+01 -0.68661215624E+01 -0.90644290812E+02  0.91043011330E+02  0.00000000000E+00 0.  1.
         13    1    5    5    0    0 -0.46122370549E+02  0.65356244824E+02 -0.58676700005E+02  0.99205175904E+02  0.00000000000E+00 0.  1.
        -13    1    5    5    0    0 -0.62461816768E+02  0.14973873984E+03 -0.30766797880E+03  0.34782575227E+03  0.00000000000E+00 0. -1.
          1    1    6    6  503    0 -0.12902459764E+02 -0.10081536882E+03  0.18092049495E+03  0.20751490923E+03  0.00000000000E+00 0. -1.
         -1    1    6    6    0  503 -0.17656620171E+02 -0.23273708096E+03  0.19181264341E+03  0.30210990593E+03  0.00000000000E+00 0.  1.
<mgrwt>
<rscale>  0 0.21869220E+04</rscale>
<asrwt>0</asrwt>
<pdfrwt beam="1">  1        1 0.37806851E+00 0.21869220E+04</pdfrwt>
<pdfrwt beam="2">  1       -2 0.74853028E-01 0.21869220E+04</pdfrwt>
<totfact> 0.18651658E+00</totfact>
</mgrwt>
</event>
<event>
12    5  0.5041746E-008  0.1662098E+04  0.7818608E-02  0.8783281E-01
          1   -1    0    0  501    0  0.00000000000E+00  0.00000000000E+00  0.20426794008E+04  0.20426794008E+04  0.00000000000E+00 0. -1.
         -2   -1    0    0    0  501 -0.00000000000E+00 -0.00000000000E+00 -0.33810629280E+03  0.33810629280E+03  0.00000000000E+00 0.  1.
        -24    2    1    2    0    0 -0.55452430183E+02  0.55592330615E+02 -0.22548250103E+03  0.25184415359E+03  0.80110175317E+02 0.  0.
        254    2    1    2    0    0  0.55452430183E+02 -0.55592330615E+02  0.19300556091E+04  0.21289415401E+04  0.89504857279E+03 0.  0.
         23    2    4    4    0    0  0.10718967054E+03  0.72518630402E+01  0.19915542646E+04  0.19963752672E+04  0.87656166282E+02 0.  0.
         23    2    4    4    0    0 -0.51737240357E+02 -0.62844193656E+02 -0.61498655532E+02  0.13256627290E+03  0.84649851520E+02 0.  0.
          3    1    3    3  502    0 -0.15425448244E+02  0.60061762818E+02 -0.81947364242E+02  0.10276541399E+03  0.00000000000E+00 0. -1.
         -4    1    3    3    0  502 -0.40026981939E+02 -0.44694322029E+01 -0.14353513679E+03  0.14907873960E+03  0.00000000000E+00 0.  1.
         13    1    5    5    0    0  0.11387274308E+03  0.56773547800E+01  0.19769772021E+04  0.19802621270E+04  0.00000000000E+00 0. -1.
        -13    1    5    5    0    0 -0.66830725385E+01  0.15745082602E+01  0.14577062468E+02  0.16113140135E+02  0.00000000000E+00 0.  1.
          4    1    6    6  503    0 -0.71683341099E+02 -0.62851471354E+02 -0.59821828565E+02  0.11254981126E+03  0.00000000000E+00 0. -1.
         -4    1    6    6    0  503  0.19946100742E+02  0.72776983832E-02 -0.16768269664E+01  0.20016461637E+02  0.00000000000E+00 0.  1.
<mgrwt>
<rscale>  0 0.16620984E+04</rscale>
<asrwt>0</asrwt>
<pdfrwt beam="1">  1        1 0.31425836E+00 0.16620984E+04</pdfrwt>
<pdfrwt beam="2">  1       -2 0.52016354E-01 0.16620984E+04</pdfrwt>
<totfact> 0.81563852E+00</totfact>
</mgrwt>
</event>
<event>
12    5  0.5041746E-008  0.1291222E+04  0.7818608E-02  0.9036555E-01
          1   -1    0    0  501    0  0.00000000000E+00  0.00000000000E+00  0.80875352070E+03  0.80875352070E+03  0.00000000000E+00 0. -1.
         -2   -1    0    0    0  501 -0.00000000000E+00 -0.00000000000E+00 -0.51537807461E+03  0.51537807461E+03  0.00000000000E+00 0.  1.
        -24    2    1    2    0    0 -0.15812132481E+03 -0.11416811820E+03 -0.18632221008E+03  0.28135472767E+03  0.80048761642E+02 0.  0.
        254    2    1    2    0    0  0.15812132481E+03  0.11416811820E+03  0.47969765618E+03  0.10427768676E+04  0.90511714256E+03 0.  0.
         23    2    4    4    0    0  0.70742509131E+02  0.27751807342E+03  0.68558048927E+03  0.74859116357E+03  0.91363774171E+02 0.  0.
         23    2    4    4    0    0  0.87378815683E+02 -0.16334995522E+03 -0.20588283309E+03  0.29418570407E+03  0.99192853669E+02 0.  0.
          3    1    3    3  502    0 -0.74439994602E+01 -0.39042598639E+01  0.81867485803E+01  0.11733679106E+02  0.00000000000E+00 0. -1.
         -4    1    3    3    0  502 -0.15067732535E+03 -0.11026385833E+03 -0.19450895866E+03  0.26962104857E+03  0.00000000000E+00 0.  1.
         13    1    5    5    0    0 -0.54693084711E+01 -0.77489016658E+00  0.53292094115E+02  0.53577617389E+02  0.00000000000E+00 0. -1.
        -13    1    5    5    0    0  0.76211817602E+02  0.27829296358E+03  0.63228839515E+03  0.69501354618E+03  0.00000000000E+00 0.  1.
          4    1    6    6  503    0  0.69248707734E+02 -0.54126867656E+02 -0.44610257501E+02  0.98565594400E+02  0.00000000000E+00 0. -1.
         -4    1    6    6    0  503  0.18130107949E+02 -0.10922308756E+03 -0.16127257559E+03  0.19562010967E+03  0.00000000000E+00 0.  1.
<mgrwt>
<rscale>  0 0.12912224E+04</rscale>
<asrwt>0</asrwt>
<pdfrwt beam="1">  1        1 0.12442362E+00 0.12912224E+04</pdfrwt>
<pdfrwt beam="2">  1       -2 0.79288935E-01 0.12912224E+04</pdfrwt>
<totfact> 0.26396915E+01</totfact>
</mgrwt>
</event>
<event>
12    5  0.5041746E-008  0.1707562E+04  0.7818608E-02  0.8757063E-01
          1   -1    0    0  501    0  0.00000000000E+00  0.00000000000E+00  0.15432808898E+04  0.15432808898E+04  0.00000000000E+00 0. -1.
         -2   -1    0    0    0  501 -0.00000000000E+00 -0.00000000000E+00 -0.47233289950E+03  0.47233289950E+03  0.00000000000E+00 0.  1.
        -24    2    1    2    0    0 -0.33070197069E+03 -0.46060536146E+03  0.59486653404E+03  0.82560586120E+03  0.78979442289E+02 0.  0.
        254    2    1    2    0    0  0.33070197069E+03  0.46060536146E+03  0.47608145631E+03  0.11900079281E+04  0.93163524170E+03 0.  0.
         23    2    4    4    0    0 -0.17182255156E+03  0.47230259816E+03  0.44434391126E+03  0.67845398565E+03  0.10131912805E+03 0.  0.
         23    2    4    4    0    0  0.50252452225E+03 -0.11697236698E+02  0.31737545048E+02  0.51155394250E+03  0.89512253431E+02 0.  0.
          3    1    3    3  502    0 -0.31280947500E+03 -0.42687817878E+03  0.52200033529E+03  0.74334318939E+03  0.00000000000E+00 0. -1.
         -4    1    3    3    0  502 -0.17892495690E+02 -0.33727182682E+02  0.72866198744E+02  0.82262671808E+02  0.00000000000E+00 0.  1.
         13    1    5    5    0    0 -0.11759508754E+03  0.24740493157E+03  0.18303940724E+03  0.32945595970E+03  0.00000000000E+00 0. -1.
        -13    1    5    5    0    0 -0.54227464023E+02  0.22489766659E+03  0.26130450403E+03  0.34899802595E+03  0.00000000000E+00 0.  1.
          3    1    6    6  503    0  0.46068674170E+02  0.29414574626E+01 -0.23035089678E+02  0.51590602519E+02  0.00000000000E+00 0. -1.
         -3    1    6    6    0  503  0.45645584808E+03 -0.14638694160E+02  0.54772634726E+02  0.45996333998E+03  0.00000000000E+00 0.  1.
<mgrwt>
<rscale>  0 0.17075624E+04</rscale>
<asrwt>0</asrwt>
<pdfrwt beam="1">  1        1 0.23742783E+00 0.17075624E+04</pdfrwt>
<pdfrwt beam="2">  1       -2 0.72666600E-01 0.17075624E+04</pdfrwt>
<totfact> 0.87257155E+00</totfact>
</mgrwt>
</event>
<event>
12    5  0.5041746E-008  0.1387189E+04  0.7818608E-02  0.8963145E-01
          1   -1    0    0  501    0  0.00000000000E+00  0.00000000000E+00  0.17079914201E+04  0.17079914201E+04  0.00000000000E+00 0. -1.
         -2   -1    0    0    0  501 -0.00000000000E+00 -0.00000000000E+00 -0.28166015134E+03  0.28166015134E+03  0.00000000000E+00 0.  1.
        -24    2    1    2    0    0 -0.17881002580E+03  0.35133466892E+03  0.34836183648E+03  0.53218991203E+03  0.80380709381E+02 0.  0.
        254    2    1    2    0    0  0.17881002580E+03 -0.35133466892E+03  0.10779694323E+04  0.14574616594E+04  0.89820226942E+03 0.  0.
         23    2    4    4    0    0  0.46052944534E+03  0.52769200310E+02  0.43439873831E+03  0.64195898228E+03  0.92396496517E+02 0.  0.
         23    2    4    4    0    0 -0.28171941954E+03 -0.40410386923E+03  0.64357069401E+03  0.81550267715E+03  0.90529607197E+02 0.  0.
          1    1    3    3  502    0 -0.10045603408E+03  0.11536625113E+03  0.14830110084E+03  0.21305868486E+03  0.00000000000E+00 0. -1.
         -2    1    3    3    0  502 -0.78353991723E+02  0.23596841779E+03  0.20006073564E+03  0.31913122718E+03  0.00000000000E+00 0.  1.
         13    1    5    5    0    0  0.50181197321E+02  0.17850302397E+02  0.17790777712E+02  0.56154230756E+02  0.00000000000E+00 0. -1.
        -13    1    5    5    0    0  0.41034824801E+03  0.34918897913E+02  0.41660796060E+03  0.58580475153E+03  0.00000000000E+00 0.  1.
          2    1    6    6  503    0 -0.26668392762E+03 -0.40501243464E+03  0.63145039473E+03  0.79616894594E+03  0.00000000000E+00 0.  1.
         -2    1    6    6    0  503 -0.15035491912E+02  0.90856540450E+00  0.12120299275E+02  0.19333731213E+02  0.00000000000E+00 0. -1.
<mgrwt>
<rscale>  0 0.13871887E+04</rscale>
<asrwt>0</asrwt>
<pdfrwt beam="1">  1        1 0.26276790E+00 0.13871887E+04</pdfrwt>
<pdfrwt beam="2">  1       -2 0.43332332E-01 0.13871887E+04</pdfrwt>
<totfact> 0.20363363E+01</totfact>
</mgrwt>
</event>
<event>
12    5  0.5041746E-008  0.1297442E+04  0.7818608E-02  0.9031596E-01
         -2   -1    0    0    0  501 -0.00000000000E+00  0.00000000000E+00  0.40911493810E+03  0.40911493810E+03  0.00000000000E+00 0.  1.
          1   -1    0    0  501    0  0.00000000000E+00 -0.00000000000E+00 -0.10286571364E+04  0.10286571364E+04  0.00000000000E+00 0. -1.
        -24    2    1    2    0    0  0.24593939141E+03 -0.21034032680E+03 -0.22187294724E+03  0.40050467588E+03  0.80294167703E+02 0.  0.
        254    2    1    2    0    0 -0.24593939141E+03  0.21034032680E+03 -0.39766925103E+03  0.10372673986E+04  0.90169484065E+03 0.  0.
         23    2    4    4    0    0 -0.19265647050E+02 -0.30190880534E+03 -0.34438884780E+03  0.46734013444E+03  0.91011157950E+02 0.  0.
         23    2    4    4    0    0 -0.22667374436E+03  0.51224913213E+03 -0.53280403236E+02  0.56992726416E+03  0.90543499553E+02 0.  0.
          1    1    3    3  502    0  0.14528991845E+03 -0.12994653309E+03 -0.17927120813E+03  0.26482716615E+03  0.00000000000E+00 0. -1.
         -2    1    3    3    0  502  0.10064947296E+03 -0.80393793710E+02 -0.42601739105E+02  0.13567750974E+03  0.00000000000E+00 0.  1.
         13    1    5    5    0    0 -0.49676854393E+02 -0.10412308744E+03 -0.13794289181E+03  0.17982671827E+03  0.00000000000E+00 0.  1.
        -13    1    5    5    0    0  0.30411207343E+02 -0.19778571789E+03 -0.20644595598E+03  0.28751341617E+03  0.00000000000E+00 0. -1.
          1    1    6    6  503    0 -0.15629018117E+03  0.38529773737E+03 -0.14426330630E+01  0.41579207345E+03  0.00000000000E+00 0. -1.
         -1    1    6    6    0  503 -0.70383563182E+02  0.12695139477E+03 -0.51837770173E+02  0.15413519071E+03  0.00000000000E+00 0.  1.
<mgrwt>
<rscale>  0 0.12974421E+04</rscale>
<asrwt>0</asrwt>
<pdfrwt beam="1">  1        1 0.15825494E+00 0.12974421E+04</pdfrwt>
<pdfrwt beam="2">  1       -2 0.62940760E-01 0.12974421E+04</pdfrwt>
<totfact> 0.28970410E+01</totfact>
</mgrwt>
</event>
<event>
12    5  0.5041746E-008  0.1192544E+04  0.7818608E-02  0.9119408E-01
         -2   -1    0    0    0  501 -0.00000000000E+00  0.00000000000E+00  0.37625212934E+03  0.37625212934E+03  0.00000000000E+00 0.  1.
          1   -1    0    0  501    0  0.00000000000E+00 -0.00000000000E+00 -0.94495259777E+03  0.94495259777E+03  0.00000000000E+00 0. -1.
        -24    2    1    2    0    0  0.27261900062E+02 -0.19191747161E+03  0.55374648599E+02  0.21747619367E+03  0.81572152113E+02 0.  0.
        254    2    1    2    0    0 -0.27261900062E+02  0.19191747161E+03 -0.62407511702E+03  0.11037285334E+04  0.88947815979E+03 0.  0.
         23    2    4    4    0    0 -0.98645829888E+02  0.23033679291E+03  0.15899845207E+03  0.31117629458E+03  0.93616988978E+02 0.  0.
         23    2    4    4    0    0  0.71383929827E+02 -0.38419321297E+02 -0.78307356909E+03  0.79255223887E+03  0.91450134159E+02 0.  0.
          3    1    3    3  502    0 -0.24848384625E+02 -0.63363334776E+02 -0.15086089414E+00  0.68061568975E+02  0.00000000000E+00 0. -1.
         -4    1    3    3    0  502  0.52110284687E+02 -0.12855413684E+03  0.55525509493E+02  0.14941462469E+03  0.00000000000E+00 0.  1.
         13    1    5    5    0    0 -0.61382431493E+02  0.21156182696E+03  0.10816141332E+03  0.24540802932E+03  0.00000000000E+00 0.  1.
        -13    1    5    5    0    0 -0.37263398395E+02  0.18774965946E+02  0.50837038747E+02  0.65768265256E+02  0.00000000000E+00 0. -1.
          2    1    6    6  503    0  0.36947642980E+02  0.26019770270E+02 -0.40248291799E+03  0.40501192087E+03  0.00000000000E+00 0. -1.
         -2    1    6    6    0  503  0.34436286846E+02 -0.64439091567E+02 -0.38059065109E+03  0.38754031800E+03  0.00000000000E+00 0.  1.
<mgrwt>
<rscale>  0 0.11925442E+04</rscale>
<asrwt>0</asrwt>
<pdfrwt beam="1">  1        1 0.14537732E+00 0.11925442E+04</pdfrwt>
<pdfrwt beam="2">  1       -2 0.57884943E-01 0.11925442E+04</pdfrwt>
<totfact> 0.40569748E+01</totfact>
</mgrwt>
</event>
<event>
12    5  0.5041746E-008  0.1768923E+04  0.7818608E-02  0.8723003E-01
         -2   -1    0    0    0  501 -0.00000000000E+00  0.00000000000E+00  0.71142980901E+03  0.71142980901E+03  0.00000000000E+00 0.  1.
          1   -1    0    0  501    0  0.00000000000E+00 -0.00000000000E+00 -0.10995776232E+04  0.10995776232E+04  0.00000000000E+00 0. -1.
        -24    2    1    2    0    0  0.47325732743E+03 -0.90733490261E+02  0.30345566124E+03  0.57420792491E+03  0.73650108420E+02 0.  0.
        254    2    1    2    0    0 -0.47325732743E+03  0.90733490261E+02 -0.69160347548E+03  0.12367995073E+04  0.90507048888E+03 0.  0.
         23    2    4    4    0    0 -0.57239221619E+03  0.11077061569E+03 -0.84585211197E+03  0.10313534677E+04  0.91220620536E+02 0.  0.
         23    2    4    4    0    0  0.99134888764E+02 -0.20037125427E+02  0.15424863649E+03  0.20544603961E+03  0.90477736319E+02 0.  0.
          1    1    3    3  502    0  0.27203525452E+01 -0.30452111344E+00  0.14324499541E+02  0.14583701114E+02  0.00000000000E+00 0. -1.
         -4    1    3    3    0  502  0.47053697488E+03 -0.90428969148E+02  0.28913116170E+03  0.55962422380E+03  0.00000000000E+00 0.  1.
         13    1    5    5    0    0 -0.49884745189E+03  0.10871969515E+03 -0.78212925157E+03  0.93402083410E+03  0.00000000000E+00 0.  1.
        -13    1    5    5    0    0 -0.73544764303E+02  0.20509205394E+01 -0.63722860401E+02  0.97332633628E+02  0.00000000000E+00 0. -1.
          1    1    6    6  503    0  0.40326080382E+02  0.13971502757E+02  0.69547593281E+01  0.43240771565E+02  0.00000000000E+00 0. -1.
         -1    1    6    6    0  503  0.58808808382E+02 -0.34008628184E+02  0.14729387716E+03  0.16220526805E+03  0.00000000000E+00 0.  1.
<mgrwt>
<rscale>  0 0.17689232E+04</rscale>
<asrwt>0</asrwt>
<pdfrwt beam="1">  1        1 0.16916579E+00 0.17689232E+04</pdfrwt>
<pdfrwt beam="2">  1       -2 0.10945074E+00 0.17689232E+04</pdfrwt>
<totfact> 0.70005707E+00</totfact>
</mgrwt>
</event>
<event>
12    5  0.5041746E-008  0.1776848E+04  0.7818608E-02  0.8718709E-01
          1   -1    0    0  501    0  0.00000000000E+00  0.00000000000E+00  0.55921243360E+03  0.55921243360E+03  0.00000000000E+00 0. -1.
         -2   -1    0    0    0  501 -0.00000000000E+00 -0.00000000000E+00 -0.14114446630E+04  0.14114446630E+04  0.00000000000E+00 0.  1.
        -24    2    1    2    0    0  0.34363044539E+03 -0.35537575709E+03  0.23803222174E+03  0.55411426462E+03  0.77520758147E+02 0.  0.
        254    2    1    2    0    0 -0.34363044539E+03  0.35537575709E+03 -0.10902644511E+04  0.14165428320E+04  0.75732635614E+03 0.  0.
         23    2    4    4    0    0 -0.10851875846E+03  0.46879817607E+03 -0.10178619673E+04  0.11301950214E+04  0.98740827835E+02 0.  0.
         23    2    4    4    0    0 -0.23511168693E+03 -0.11342241898E+03 -0.72402483780E+02  0.28634781054E+03  0.92794388232E+02 0.  0.
          3    1    3    3  502    0  0.33957098020E+03 -0.35181062713E+03  0.24366660054E+03  0.54630813665E+03  0.00000000000E+00 0. -1.
         -4    1    3    3    0  502  0.40594651917E+01 -0.35651299628E+01 -0.56343788069E+01  0.78061279668E+01  0.00000000000E+00 0.  1.
         13    1    5    5    0    0  0.46064325332E+01  0.15612792538E+03 -0.27385206977E+03  0.31526513353E+03  0.00000000000E+00 0. -1.
        -13    1    5    5    0    0 -0.11312519100E+03  0.31267025069E+03 -0.74400989756E+03  0.81492988788E+03  0.00000000000E+00 0.  1.
          3    1    6    6  503    0 -0.19683463301E+03 -0.73182119812E+02 -0.89445315675E+02  0.22825415639E+03  0.00000000000E+00 0. -1.
         -3    1    6    6    0  503 -0.38277053917E+02 -0.40240299172E+02  0.17042831895E+02  0.58093654155E+02  0.00000000000E+00 0.  1.
<mgrwt>
<rscale>  0 0.17768482E+04</rscale>
<asrwt>0</asrwt>
<pdfrwt beam="1">  1        1 0.86032682E-01 0.17768482E+04</pdfrwt>
<pdfrwt beam="2">  1       -2 0.21714533E+00 0.17768482E+04</pdfrwt>
<totfact> 0.32286930E+00</totfact>
</mgrwt>
</event>
<event>
12    5  0.5041746E-008  0.2202125E+04  0.7818608E-02  0.8517544E-01
         -2   -1    0    0    0  501 -0.00000000000E+00  0.00000000000E+00  0.11830588942E+04  0.11830588942E+04  0.00000000000E+00 0.  1.
          1   -1    0    0  501    0  0.00000000000E+00 -0.00000000000E+00 -0.10247492901E+04  0.10247492901E+04  0.00000000000E+00 0. -1.
        -24    2    1    2    0    0 -0.26920272772E+03 -0.26962369733E+03  0.89996189994E+03  0.98086928647E+03  0.83702383610E+02 0.  0.
        254    2    1    2    0    0  0.26920272772E+03  0.26962369733E+03 -0.74165229583E+03  0.12269388978E+04  0.90009104225E+03 0.  0.
         23    2    4    4    0    0  0.12890955820E+03 -0.19999161657E+03 -0.67722262467E+03  0.72383946783E+03  0.93267201807E+02 0.  0.
         23    2    4    4    0    0  0.14029316953E+03  0.46961531390E+03 -0.64429671156E+02  0.50309943000E+03  0.93472656321E+02 0.  0.
          1    1    3    3  502    0 -0.13964021430E+03 -0.12091908746E+03  0.53550092202E+03  0.56646452020E+03  0.00000000000E+00 0. -1.
         -2    1    3    3    0  502 -0.12956251343E+03 -0.14870460987E+03  0.36446097792E+03  0.41440476627E+03  0.00000000000E+00 0.  1.
         13    1    5    5    0    0  0.11076135375E+03 -0.10153317662E+03 -0.47485624400E+03  0.49806175913E+03  0.00000000000E+00 0.  1.
        -13    1    5    5    0    0  0.18148204452E+02 -0.98458439955E+02 -0.20236638067E+03  0.22577770870E+03  0.00000000000E+00 0. -1.
          1    1    6    6  503    0  0.87107048950E+02  0.28791020883E+03 -0.85205541466E+02  0.31263382834E+03  0.00000000000E+00 0. -1.
         -1    1    6    6    0  503  0.53186120576E+02  0.18170510507E+03  0.20775870310E+02  0.19046560166E+03  0.00000000000E+00 0.  1.
<mgrwt>
<rscale>  0 0.22021251E+04</rscale>
<asrwt>0</asrwt>
<pdfrwt beam="1">  1        1 0.15765374E+00 0.22021251E+04</pdfrwt>
<pdfrwt beam="2">  1       -2 0.18200906E+00 0.22021251E+04</pdfrwt>
<totfact> 0.20316831E+00</totfact>
</mgrwt>
</event>
<event>
12    5  0.5041746E-008  0.1958140E+04  0.7818608E-02  0.8626446E-01
         -2   -1    0    0    0  501 -0.00000000000E+00  0.00000000000E+00  0.81370650668E+03  0.81370650668E+03  0.00000000000E+00 0.  1.
          1   -1    0    0  501    0  0.00000000000E+00 -0.00000000000E+00 -0.11780388862E+04  0.11780388862E+04  0.00000000000E+00 0. -1.
        -24    2    1    2    0    0  0.66454489816E+03 -0.26688696409E+03  0.14088367183E+03  0.73413042924E+03  0.79061399398E+02 0.  0.
        254    2    1    2    0    0 -0.66454489816E+03  0.26688696409E+03 -0.50521605137E+03  0.12576149637E+04  0.90194432477E+03 0.  0.
         23    2    4    4    0    0 -0.20517501712E+03  0.53236265646E+03 -0.41648794492E+03  0.71348455294E+03  0.10045503160E+03 0.  0.
         23    2    4    4    0    0 -0.45936988104E+03 -0.26547569237E+03 -0.88728106452E+02  0.54413041072E+03  0.81897473406E+02 0.  0.
          3    1    3    3  502    0  0.64608189319E+02 -0.46145681420E+01  0.20050512220E+01  0.64803800788E+02  0.00000000000E+00 0. -1.
         -4    1    3    3    0  502  0.59993670884E+03 -0.26227239595E+03  0.13887862060E+03  0.66932662845E+03  0.00000000000E+00 0.  1.
         13    1    5    5    0    0 -0.10018259458E+03  0.13712787570E+03 -0.13640196747E+03  0.21782126452E+03  0.00000000000E+00 0.  1.
        -13    1    5    5    0    0 -0.10499242254E+03  0.39523478076E+03 -0.28008597745E+03  0.49566328841E+03  0.00000000000E+00 0. -1.
          2    1    6    6  503    0 -0.44599663104E+03 -0.24776030883E+03 -0.98937349471E+02  0.51969872489E+03  0.00000000000E+00 0. -1.
         -2    1    6    6    0  503 -0.13373249997E+02 -0.17715383540E+02  0.10209243019E+02  0.24431685829E+02  0.00000000000E+00 0.  1.
<mgrwt>
<rscale>  0 0.19581398E+04</rscale>
<asrwt>0</asrwt>
<pdfrwt beam="1">  1        1 0.18123675E+00 0.19581398E+04</pdfrwt>
<pdfrwt beam="2">  1       -2 0.12518562E+00 0.19581398E+04</pdfrwt>
<totfact> 0.43260645E+00</totfact>
</mgrwt>
</event>
<event>
12    5  0.5041746E-008  0.1571900E+04  0.7818608E-02  0.8837999E-01
         -2   -1    0    0    0  501 -0.00000000000E+00  0.00000000000E+00  0.85133163535E+03  0.85133163535E+03  0.00000000000E+00 0.  1.
          1   -1    0    0  501    0  0.00000000000E+00 -0.00000000000E+00 -0.72558971763E+03  0.72558971763E+03  0.00000000000E+00 0. -1.
        -24    2    1    2    0    0 -0.32806086262E+03 -0.34559147012E+03 -0.15961094443E+03  0.50884885584E+03  0.79963183428E+02 0.  0.
        254    2    1    2    0    0  0.32806086262E+03  0.34559147012E+03  0.28535286215E+03  0.10680724971E+04  0.91230214808E+03 0.  0.
         23    2    4    4    0    0 -0.17787789109E+03  0.29067891254E+03 -0.15837500158E+03  0.38625800175E+03  0.89318690414E+02 0.  0.
         23    2    4    4    0    0  0.50593875371E+03  0.54912557581E+02  0.44372786372E+03  0.68181449539E+03  0.94800725663E+02 0.  0.
          1    1    3    3  502    0 -0.94962017825E+02 -0.11958427587E+03 -0.15044122559E+02  0.15344220243E+03  0.00000000000E+00 0. -1.
         -2    1    3    3    0  502 -0.23309884480E+03 -0.22600719426E+03 -0.14456682187E+03  0.35540665341E+03  0.00000000000E+00 0.  1.
         13    1    5    5    0    0 -0.29243588574E+02  0.68403540864E+02  0.20732172781E+01  0.74421301421E+02  0.00000000000E+00 0. -1.
        -13    1    5    5    0    0 -0.14863430252E+03  0.22227537168E+03 -0.16044821885E+03  0.31183670033E+03  0.00000000000E+00 0.  1.
          4    1    6    6  503    0  0.41892872448E+02 -0.21608670418E+02  0.34923007014E+02  0.58664843118E+02  0.00000000000E+00 0. -1.
         -4    1    6    6    0  503  0.46404588127E+03  0.76521227999E+02  0.40880485671E+03  0.62314965227E+03  0.00000000000E+00 0.  1.
<mgrwt>
<rscale>  0 0.15719001E+04</rscale>
<asrwt>0</asrwt>
<pdfrwt beam="1">  1        1 0.11162919E+00 0.15719001E+04</pdfrwt>
<pdfrwt beam="2">  1       -2 0.13097410E+00 0.15719001E+04</pdfrwt>
<totfact> 0.92513085E+00</totfact>
</mgrwt>
</event>
<event>
12    5  0.5041746E-008  0.1718777E+04  0.7818608E-02  0.8750727E-01
         -2   -1    0    0    0  501 -0.00000000000E+00  0.00000000000E+00  0.32176674604E+03  0.32176674604E+03  0.00000000000E+00 0.  1.
          1   -1    0    0  501    0  0.00000000000E+00 -0.00000000000E+00 -0.22952930454E+04  0.22952930454E+04  0.00000000000E+00 0. -1.
        -24    2    1    2    0    0 -0.32973838597E+03 -0.21723432305E+03 -0.14144379940E+04  0.14705322680E+04  0.76890559654E+02 0.  0.
        254    2    1    2    0    0  0.32973838597E+03  0.21723432305E+03 -0.55908830534E+03  0.11465275234E+04  0.91979751816E+03 0.  0.
         23    2    4    4    0    0  0.23850029834E+03  0.35148663395E+03 -0.75778219829E+03  0.87386245231E+03  0.94744284026E+02 0.  0.
         23    2    4    4    0    0  0.91238087635E+02 -0.13425231090E+03  0.19869389296E+03  0.27266507108E+03  0.92297921269E+02 0.  0.
          1    1    3    3  502    0 -0.28984268891E+03 -0.21749843874E+03 -0.12774595494E+04  0.13278619113E+04  0.00000000000E+00 0. -1.
         -2    1    3    3    0  502 -0.39895697063E+02  0.26411568990E+00 -0.13697844459E+03  0.14267035671E+03  0.00000000000E+00 0.  1.
         13    1    5    5    0    0  0.14660705022E+03  0.22447979447E+03 -0.38207095873E+03  0.46675799168E+03  0.00000000000E+00 0. -1.
        -13    1    5    5    0    0  0.91893248121E+02  0.12700683947E+03 -0.37571123957E+03  0.40710446063E+03  0.00000000000E+00 0.  1.
          2    1    6    6  503    0  0.55417615346E+02 -0.13977399489E+03  0.16395755457E+03  0.22246339348E+03  0.00000000000E+00 0. -1.
         -2    1    6    6    0  503  0.35820472289E+02  0.55216839909E+01  0.34736338388E+02  0.50201677599E+02  0.00000000000E+00 0.  1.
<mgrwt>
<rscale>  0 0.17187774E+04</rscale>
<asrwt>0</asrwt>
<pdfrwt beam="1">  1        1 0.35312199E+00 0.17187774E+04</pdfrwt>
<pdfrwt beam="2">  1       -2 0.49502578E-01 0.17187774E+04</pdfrwt>
<totfact> 0.60471585E+00</totfact>
</mgrwt>
</event>
<event>
12    5  0.5041746E-008  0.2033349E+04  0.7818608E-02  0.8591186E-01
          1   -1    0    0  501    0  0.00000000000E+00  0.00000000000E+00  0.29182014739E+04  0.29182014739E+04  0.00000000000E+00 0. -1.
         -2   -1    0    0    0  501 -0.00000000000E+00 -0.00000000000E+00 -0.35419996817E+03  0.35419996817E+03  0.00000000000E+00 0.  1.
        -24    2    1    2    0    0  0.13275606649E+03 -0.58790158486E+03  0.13736777745E+03  0.62329514754E+03  0.79840390734E+02 0.  0.
        254    2    1    2    0    0 -0.13275606649E+03  0.58790158486E+03  0.24266337283E+04  0.26491062945E+04  0.87519167145E+03 0.  0.
         23    2    4    4    0    0  0.11456590919E+03  0.40196999353E+03  0.22324559078E+04  0.22730780224E+04  0.91209059578E+02 0.  0.
         23    2    4    4    0    0 -0.24732197568E+03  0.18593159133E+03  0.19417782051E+03  0.37602827211E+03  0.89182504698E+02 0.  0.
          3    1    3    3  502    0  0.17702544144E+02 -0.17953958357E+03  0.70984626037E+02  0.19387279147E+03  0.00000000000E+00 0. -1.
         -4    1    3    3    0  502  0.11505352235E+03 -0.40836200129E+03  0.66383151410E+02  0.42942235607E+03  0.00000000000E+00 0.  1.
         13    1    5    5    0    0  0.59735585975E+02  0.20763801317E+03  0.91011650702E+03  0.93541110806E+03  0.00000000000E+00 0. -1.
        -13    1    5    5    0    0  0.54830323211E+02  0.19433198036E+03  0.13223394008E+04  0.13376669143E+04  0.00000000000E+00 0.  1.
          3    1    6    6  503    0 -0.12877331172E+03  0.14551789367E+03  0.95141811850E+02  0.21635615903E+03  0.00000000000E+00 0. -1.
         -3    1    6    6    0  503 -0.11854866396E+03  0.40413697660E+02  0.99036008656E+02  0.15967211308E+03  0.00000000000E+00 0.  1.
<mgrwt>
<rscale>  0 0.20333488E+04</rscale>
<asrwt>0</asrwt>
<pdfrwt beam="1">  1        1 0.44895406E+00 0.20333488E+04</pdfrwt>
<pdfrwt beam="2">  1       -2 0.54492305E-01 0.20333488E+04</pdfrwt>
<totfact> 0.17680853E+00</totfact>
</mgrwt>
</event>
<event>
12    5  0.5041746E-008  0.1443458E+04  0.7818608E-02  0.8922949E-01
         -2   -1    0    0    0  501 -0.00000000000E+00  0.00000000000E+00  0.55672854447E+03  0.55672854447E+03  0.00000000000E+00 0.  1.
          1   -1    0    0  501    0  0.00000000000E+00 -0.00000000000E+00 -0.93563148009E+03  0.93563148009E+03  0.00000000000E+00 0. -1.
        -24    2    1    2    0    0  0.12475696753E+03  0.37711543400E+03 -0.30220472627E+03  0.50585461651E+03  0.82345886091E+02 0.  0.
        254    2    1    2    0    0 -0.12475696753E+03 -0.37711543400E+03 -0.76698209345E+02  0.98650540806E+03  0.89973882505E+03 0.  0.
         23    2    4    4    0    0  0.44680203313E+02 -0.47769795419E+03  0.28431279777E+03  0.56515296722E+03  0.91501111346E+02 0.  0.
         23    2    4    4    0    0 -0.16943717084E+03  0.10058252019E+03 -0.36101100712E+03  0.42135244084E+03  0.91559455600E+02 0.  0.
          3    1    3    3  502    0  0.90248986531E+02  0.33603401171E+03 -0.23503091898E+03  0.41988482882E+03  0.00000000000E+00 0. -1.
         -4    1    3    3    0  502  0.34507980996E+02  0.41081422291E+02 -0.67173807286E+02  0.85969787689E+02  0.00000000000E+00 0.  1.
         13    1    5    5    0    0  0.18106941935E+02 -0.14933065267E+03  0.13998835394E+03  0.20548538734E+03  0.00000000000E+00 0. -1.
        -13    1    5    5    0    0  0.26573261378E+02 -0.32836730152E+03  0.14432444383E+03  0.35966757988E+03  0.00000000000E+00 0.  1.
          1    1    6    6  503    0 -0.39378993955E+02  0.42128734000E+02 -0.19071415662E+03  0.19924212639E+03  0.00000000000E+00 0. -1.
         -1    1    6    6    0  503 -0.13005817689E+03  0.58453786187E+02 -0.17029685050E+03  0.22211031445E+03  0.00000000000E+00 0.  1.
<mgrwt>
<rscale>  0 0.14434580E+04</rscale>
<asrwt>0</asrwt>
<pdfrwt beam="1">  1        1 0.14394330E+00 0.14434580E+04</pdfrwt>
<pdfrwt beam="2">  1       -2 0.85650546E-01 0.14434580E+04</pdfrwt>
<totfact> 0.17168064E+01</totfact>
</mgrwt>
</event>
<event>
12    5  0.5041746E-008  0.1946558E+04  0.7818608E-02  0.8632022E-01
          1   -1    0    0  501    0  0.00000000000E+00  0.00000000000E+00  0.91316177166E+03  0.91316177166E+03  0.00000000000E+00 0. -1.
         -2   -1    0    0    0  501 -0.00000000000E+00 -0.00000000000E+00 -0.10373539622E+04  0.10373539622E+04  0.00000000000E+00 0.  1.
        -24    2    1    2    0    0  0.67982163072E+02 -0.32147232893E+03  0.63718678381E+03  0.72145100151E+03  0.80737335580E+02 0.  0.
        254    2    1    2    0    0 -0.67982163072E+02  0.32147232893E+03 -0.76137897437E+03  0.12290647324E+04  0.90715827779E+03 0.  0.
         23    2    4    4    0    0  0.21646051536E+03  0.35477422319E+03 -0.15521314120E+02  0.42492535915E+03  0.87182254537E+02 0.  0.
         23    2    4    4    0    0 -0.28444267843E+03 -0.33301894260E+02 -0.74585766025E+03  0.80413937321E+03  0.91213095126E+02 0.  0.
          3    1    3    3  502    0  0.62568473424E+02 -0.24444365500E+03  0.40918952846E+03  0.48073234189E+03  0.00000000000E+00 0. -1.
         -4    1    3    3    0  502  0.54136896481E+01 -0.77028673926E+02  0.22799725536E+03  0.24071865963E+03  0.00000000000E+00 0.  1.
         13    1    5    5    0    0  0.13169378002E+03  0.24651566706E+03 -0.48163878930E+02  0.28360709624E+03  0.00000000000E+00 0.  1.
        -13    1    5    5    0    0  0.84766735333E+02  0.10825855613E+03  0.32642564810E+02  0.14131826291E+03  0.00000000000E+00 0. -1.
          3    1    6    6  503    0 -0.26102021174E+03 -0.10824156638E+02 -0.70568709483E+03  0.75249118873E+03  0.00000000000E+00 0. -1.
         -3    1    6    6    0  503 -0.23422466684E+02 -0.22477737623E+02 -0.40170565426E+02  0.51648184487E+02  0.00000000000E+00 0.  1.
<mgrwt>
<rscale>  0 0.19465580E+04</rscale>
<asrwt>0</asrwt>
<pdfrwt beam="1">  1        1 0.14048643E+00 0.19465580E+04</pdfrwt>
<pdfrwt beam="2">  1       -2 0.15959292E+00 0.19465580E+04</pdfrwt>
<totfact> 0.36764211E+00</totfact>
</mgrwt>
</event>
<event>
12    5  0.5041746E-008  0.2505909E+04  0.7818608E-02  0.8400883E-01
         -2   -1    0    0    0  501 -0.00000000000E+00  0.00000000000E+00  0.86807541198E+03  0.86807541198E+03  0.00000000000E+00 0.  1.
          3   -1    0    0  501    0  0.00000000000E+00 -0.00000000000E+00 -0.18084778015E+04  0.18084778015E+04  0.00000000000E+00 0. -1.
        -24    2    1    2    0    0  0.15999742532E+02 -0.51352059118E+03 -0.14386663629E+04  0.15297247013E+04  0.79607591786E+02 0.  0.
        254    2    1    2    0    0 -0.15999742532E+02  0.51352059118E+03  0.49826397339E+03  0.11468285122E+04  0.89609667996E+03 0.  0.
         23    2    4    4    0    0 -0.14151368722E+03  0.29730366851E+02  0.60415789849E+03  0.62778851829E+03  0.90562900809E+02 0.  0.
         23    2    4    4    0    0  0.12551394469E+03  0.48379022433E+03 -0.10589392510E+03  0.51903999389E+03  0.91554685373E+02 0.  0.
          3    1    3    3  502    0  0.24420390247E+02 -0.50934063800E+03 -0.14208109491E+04  0.15095456250E+04  0.00000000000E+00 0. -1.
         -4    1    3    3    0  502 -0.84206477145E+01 -0.41799531771E+01 -0.17855413788E+02  0.20179076243E+02  0.00000000000E+00 0.  1.
         13    1    5    5    0    0 -0.65076603609E+01  0.34011675289E+02  0.98904470296E+02  0.10479140205E+03  0.00000000000E+00 0.  1.
        -13    1    5    5    0    0 -0.13500602686E+03 -0.42813084385E+01  0.50525342820E+03  0.52299711624E+03  0.00000000000E+00 0. -1.
          1    1    6    6  503    0  0.12373982987E+03  0.42812221482E+03 -0.65945972241E+02  0.45049866545E+03  0.00000000000E+00 0. -1.
         -1    1    6    6    0  503  0.17741148211E+01  0.55668009510E+02 -0.39947952862E+02  0.68541328438E+02  0.00000000000E+00 0.  1.
<mgrwt>
<rscale>  0 0.25059091E+04</rscale>
<asrwt>0</asrwt>
<pdfrwt beam="1">  1        3 0.27822735E+00 0.25059091E+04</pdfrwt>
<pdfrwt beam="2">  1       -2 0.13355007E+00 0.25059091E+04</pdfrwt>
<totfact> 0.75748495E-02</totfact>
</mgrwt>
</event>
<event>
12    5  0.5041746E-008  0.1266464E+04  0.7818608E-02  0.9056591E-01
         -4   -1    0    0    0  501 -0.00000000000E+00  0.00000000000E+00  0.13842903729E+04  0.13842903729E+04  0.00000000000E+00 0.  1.
          1   -1    0    0  501    0  0.00000000000E+00 -0.00000000000E+00 -0.28966655339E+03  0.28966655339E+03  0.00000000000E+00 0. -1.
        -24    2    1    2    0    0 -0.20050842162E+03  0.24362527105E+03  0.25991709717E+03  0.41623807302E+03  0.78360297358E+02 0.  0.
        254    2    1    2    0    0  0.20050842162E+03 -0.24362527105E+03  0.83470672237E+03  0.12577188533E+04  0.88632076684E+03 0.  0.
         23    2    4    4    0    0  0.90304297562E+02  0.17719272491E+03 -0.85390963225E+02  0.23593343104E+03  0.93919323704E+02 0.  0.
         23    2    4    4    0    0  0.11020412406E+03 -0.42081799596E+03  0.92009768559E+03  0.10217854222E+04  0.90735678793E+02 0.  0.
          1    1    3    3  502    0 -0.61005286770E+02  0.59711083737E+02  0.30125947393E+02  0.90524202517E+02  0.00000000000E+00 0. -1.
         -2    1    3    3    0  502 -0.13950313485E+03  0.18391418731E+03  0.22979114977E+03  0.32571387051E+03  0.00000000000E+00 0.  1.
         13    1    5    5    0    0  0.34694640388E+02  0.14926608751E+03 -0.81535477539E+02  0.17358605085E+03  0.00000000000E+00 0. -1.
        -13    1    5    5    0    0  0.55609657174E+02  0.27926637402E+02 -0.38554856864E+01  0.62347380197E+02  0.00000000000E+00 0.  1.
          3    1    6    6  503    0  0.59948423640E+02 -0.32397401619E+03  0.61383308826E+03  0.69666637418E+03  0.00000000000E+00 0. -1.
         -3    1    6    6    0  503  0.50255700418E+02 -0.96843979771E+02  0.30626459733E+03  0.32511904807E+03  0.00000000000E+00 0.  1.
<mgrwt>
<rscale>  0 0.12664638E+04</rscale>
<asrwt>0</asrwt>
<pdfrwt beam="1">  1        1 0.44564086E-01 0.12664638E+04</pdfrwt>
<pdfrwt beam="2">  1       -4 0.21296774E+00 0.12664638E+04</pdfrwt>
<totfact> 0.46436427E+00</totfact>
</mgrwt>
</event>
<event>
12    5  0.5041746E-008  0.1583476E+04  0.7818608E-02  0.8830764E-01
         -2   -1    0    0    0  501 -0.00000000000E+00  0.00000000000E+00  0.60809554553E+03  0.60809554553E+03  0.00000000000E+00 0.  1.
          1   -1    0    0  501    0  0.00000000000E+00 -0.00000000000E+00 -0.10308400605E+04  0.10308400605E+04  0.00000000000E+00 0. -1.
        -24    2    1    2    0    0  0.40702782427E+03 -0.16739629030E+03  0.15931667450E+03  0.47457768467E+03  0.78415612436E+02 0.  0.
        254    2    1    2    0    0 -0.40702782427E+03  0.16739629030E+03 -0.58206118949E+03  0.11643579214E+04  0.90732627705E+03 0.  0.
         23    2    4    4    0    0 -0.66328939664E+03 -0.31587209148E+02 -0.41230233926E+03  0.78697084269E+03  0.91538586454E+02 0.  0.
         23    2    4    4    0    0  0.25626157236E+03  0.19898349945E+03 -0.16975885023E+03  0.37738707869E+03  0.91315460951E+02 0.  0.
          3    1    3    3  502    0  0.22869672121E+02 -0.32785638759E+02  0.14784780839E+02  0.42620532097E+02  0.00000000000E+00 0. -1.
         -4    1    3    3    0  502  0.38415815215E+03 -0.13461065154E+03  0.14453189366E+03  0.43195715257E+03  0.00000000000E+00 0.  1.
         13    1    5    5    0    0 -0.18903354204E+03 -0.20373649788E+01 -0.16685350207E+03  0.25214662803E+03  0.00000000000E+00 0. -1.
        -13    1    5    5    0    0 -0.47425585460E+03 -0.29549844169E+02 -0.24544883719E+03  0.53482421466E+03  0.00000000000E+00 0.  1.
          4    1    6    6  503    0  0.30170204048E+02  0.70953226581E+02 -0.43182604248E+02  0.88370463867E+02  0.00000000000E+00 0.  1.
         -4    1    6    6    0  503  0.22609136831E+03  0.12803027287E+03 -0.12657624598E+03  0.28901661482E+03  0.00000000000E+00 0. -1.
<mgrwt>
<rscale>  0 0.15834762E+04</rscale>
<asrwt>0</asrwt>
<pdfrwt beam="1">  1        1 0.15859078E+00 0.15834762E+04</pdfrwt>
<pdfrwt beam="2">  1       -2 0.93553163E-01 0.15834762E+04</pdfrwt>
<totfact> 0.11651411E+01</totfact>
</mgrwt>
</event>
<event>
12    5  0.5041746E-008  0.1581389E+04  0.7818608E-02  0.8832063E-01
         -2   -1    0    0    0  501 -0.00000000000E+00  0.00000000000E+00  0.42853510379E+03  0.42853510379E+03  0.00000000000E+00 0.  1.
          1   -1    0    0  501    0  0.00000000000E+00 -0.00000000000E+00 -0.14589194040E+04  0.14589194040E+04  0.00000000000E+00 0. -1.
        -24    2    1    2    0    0 -0.40836069431E+03 -0.10369414474E+03  0.36854090039E+02  0.43028899882E+03  0.79243083233E+02 0.  0.
        254    2    1    2    0    0  0.40836069431E+03  0.10369414474E+03 -0.10672383902E+04  0.14571655090E+04  0.89823304694E+03 0.  0.
         23    2    4    4    0    0  0.52936334733E+03  0.37562578431E+03 -0.86802042274E+03  0.10877068028E+04  0.91248842821E+02 0.  0.
         23    2    4    4    0    0 -0.12100265302E+03 -0.27193163957E+03 -0.19921796751E+03  0.36945870614E+03  0.90683396085E+02 0.  0.
          1    1    3    3  502    0 -0.93097283961E+02  0.46479699310E+01  0.25918125094E+02  0.96749455366E+02  0.00000000000E+00 0. -1.
         -2    1    3    3    0  502 -0.31526341035E+03 -0.10834211467E+03  0.10935964945E+02  0.33353954345E+03  0.00000000000E+00 0.  1.
         13    1    5    5    0    0  0.22785158828E+03  0.12050669217E+03 -0.39226085670E+03  0.46936850005E+03  0.00000000000E+00 0. -1.
        -13    1    5    5    0    0  0.30151175905E+03  0.25511909214E+03 -0.47575956604E+03  0.61833830280E+03  0.00000000000E+00 0.  1.
          1    1    6    6  503    0 -0.12949383797E+02 -0.95928456858E+01 -0.42233537106E+02  0.45203770701E+02  0.00000000000E+00 0. -1.
         -1    1    6    6    0  503 -0.10805326922E+03 -0.26233879388E+03 -0.15698443040E+03  0.32425493543E+03  0.00000000000E+00 0.  1.
<mgrwt>
<rscale>  0 0.15813895E+04</rscale>
<asrwt>0</asrwt>
<pdfrwt beam="1">  1        1 0.22444914E+00 0.15813895E+04</pdfrwt>
<pdfrwt beam="2">  1       -2 0.65928478E-01 0.15813895E+04</pdfrwt>
<totfact> 0.12473725E+01</totfact>
</mgrwt>
</event>
<event>
12    5  0.5041746E-008  0.1508309E+04  0.7818608E-02  0.8878946E-01
         -2   -1    0    0    0  501 -0.00000000000E+00  0.00000000000E+00  0.11600521998E+04  0.11600521998E+04  0.00000000000E+00 0.  1.
          1   -1    0    0  501    0  0.00000000000E+00 -0.00000000000E+00 -0.49027890159E+03  0.49027890159E+03  0.00000000000E+00 0. -1.
        -24    2    1    2    0    0 -0.29436437690E+03 -0.37298981381E+03  0.80546104231E+02  0.48870754819E+03  0.81090105203E+02 0.  0.
        254    2    1    2    0    0  0.29436437690E+03  0.37298981381E+03  0.58922719397E+03  0.11616235532E+04  0.88114062759E+03 0.  0.
         23    2    4    4    0    0  0.63250855659E+02  0.53823839102E+03  0.65721085957E+03  0.85551979032E+03  0.79289099984E+02 0.  0.
         23    2    4    4    0    0  0.23111352124E+03 -0.16524857720E+03 -0.67983665604E+02  0.30610376286E+03  0.91417628950E+02 0.  0.
          1    1    3    3  502    0 -0.14841571946E+03 -0.21987535338E+03  0.90883686217E+01  0.26543359857E+03  0.00000000000E+00 0. -1.
         -2    1    3    3    0  502 -0.14594865744E+03 -0.15311446043E+03  0.71457735609E+02  0.22327394962E+03  0.00000000000E+00 0.  1.
         13    1    5    5    0    0  0.49363060312E+02  0.12725885175E+03  0.16404005305E+03  0.21340259154E+03  0.00000000000E+00 0.  1.
        -13    1    5    5    0    0  0.13887795347E+02  0.41097953926E+03  0.49317080653E+03  0.64211719878E+03  0.00000000000E+00 0. -1.
          3    1    6    6  503    0  0.18212931686E+03 -0.11521179918E+03 -0.10941936953E+02  0.21578825898E+03  0.00000000000E+00 0. -1.
         -3    1    6    6    0  503  0.48984204376E+02 -0.50036778029E+02 -0.57041728651E+02  0.90315503882E+02  0.00000000000E+00 0.  1.
<mgrwt>
<rscale>  0 0.15083091E+04</rscale>
<asrwt>0</asrwt>
<pdfrwt beam="1">  1        1 0.75427523E-01 0.15083091E+04</pdfrwt>
<pdfrwt beam="2">  1       -2 0.17846957E+00 0.15083091E+04</pdfrwt>
<totfact> 0.71467819E+00</totfact>
</mgrwt>
</event>
<event>
12    5  0.5041746E-008  0.2517434E+04  0.7818608E-02  0.8396801E-01
          1   -1    0    0  501    0  0.00000000000E+00  0.00000000000E+00  0.20750443516E+04  0.20750443516E+04  0.00000000000E+00 0. -1.
         -2   -1    0    0    0  501 -0.00000000000E+00 -0.00000000000E+00 -0.76353473575E+03  0.76353473575E+03  0.00000000000E+00 0.  1.
        -24    2    1    2    0    0 -0.95035231886E+03 -0.50258959881E+03  0.31724284652E+03  0.11236986010E+04  0.79307550283E+02 0.  0.
        254    2    1    2    0    0  0.95035231886E+03  0.50258959881E+03  0.99426676931E+03  0.17148804863E+04  0.89245887239E+03 0.  0.
         23    2    4    4    0    0  0.93817458429E+03  0.93630580072E+02  0.84657683715E+03  0.12704460898E+04  0.91666186961E+02 0.  0.
         23    2    4    4    0    0  0.12177734561E+02  0.40895901874E+03  0.14768993216E+03  0.44443439645E+03  0.91180263573E+02 0.  0.
          1    1    3    3  502    0 -0.25178026551E+02 -0.29538466110E+02  0.13924865106E+02  0.41235371580E+02  0.00000000000E+00 0. -1.
         -2    1    3    3    0  502 -0.92517429230E+03 -0.47305113270E+03  0.30331798142E+03  0.10824632295E+04  0.00000000000E+00 0.  1.
         13    1    5    5    0    0  0.22935076311E+03  0.25368411153E+02  0.26204086460E+03  0.34915719031E+03  0.00000000000E+00 0.  1.
        -13    1    5    5    0    0  0.70882382118E+03  0.68262168918E+02  0.58453597255E+03  0.92128889952E+03  0.00000000000E+00 0. -1.
          4    1    6    6  503    0  0.10797298493E+02  0.36640119314E+03  0.16022405988E+03  0.40004770385E+03  0.00000000000E+00 0. -1.
         -4    1    6    6    0  503  0.13804360687E+01  0.42557825591E+02 -0.12534127714E+02  0.44386692604E+02  0.00000000000E+00 0.  1.
<mgrwt>
<rscale>  0 0.25174340E+04</rscale>
<asrwt>0</asrwt>
<pdfrwt beam="1">  1        1 0.31923759E+00 0.25174340E+04</pdfrwt>
<pdfrwt beam="2">  1       -2 0.11746688E+00 0.25174340E+04</pdfrwt>
<totfact> 0.11563795E+00</totfact>
</mgrwt>
</event>
<event>
12    5  0.5041746E-008  0.1277569E+04  0.7818608E-02  0.9047545E-01
         -4   -1    0    0    0  501 -0.00000000000E+00  0.00000000000E+00  0.55996536139E+03  0.55996536139E+03  0.00000000000E+00 0.  1.
          3   -1    0    0  501    0  0.00000000000E+00 -0.00000000000E+00 -0.72869762315E+03  0.72869762315E+03  0.00000000000E+00 0. -1.
        -24    2    1    2    0    0  0.25652886335E+03  0.15746509943E+03 -0.14187968938E+03  0.34219744251E+03  0.79793033083E+02 0.  0.
        254    2    1    2    0    0 -0.25652886335E+03 -0.15746509943E+03 -0.26852572383E+02  0.94646554203E+03  0.89692454885E+03 0.  0.
         23    2    4    4    0    0 -0.74027185227E+02 -0.31281557472E+03  0.35439490299E+03  0.48652235814E+03  0.88173974406E+02 0.  0.
         23    2    4    4    0    0 -0.18250167812E+03  0.15535047529E+03 -0.38124747537E+03  0.45994318389E+03  0.93581313494E+02 0.  0.
          3    1    3    3  502    0  0.10891611975E+03  0.68254758204E+02 -0.17879701463E+02  0.12977332886E+03  0.00000000000E+00 0. -1.
         -4    1    3    3    0  502  0.14761274360E+03  0.89210341229E+02 -0.12399998792E+03  0.21242411365E+03  0.00000000000E+00 0.  1.
         13    1    5    5    0    0 -0.58275275255E+02 -0.74988039005E+02  0.10275597934E+03  0.13992142435E+03  0.00000000000E+00 0. -1.
        -13    1    5    5    0    0 -0.15751909972E+02 -0.23782753572E+03  0.25163892365E+03  0.34660093380E+03  0.00000000000E+00 0.  1.
          2    1    6    6  503    0 -0.24014986412E+02  0.10237878762E+02 -0.48897672304E+01  0.26560187452E+02  0.00000000000E+00 0. -1.
         -2    1    6    6    0  503 -0.15848669171E+03  0.14511259653E+03 -0.37635770814E+03  0.43338299644E+03  0.00000000000E+00 0.  1.
<mgrwt>
<rscale>  0 0.12775687E+04</rscale>
<asrwt>0</asrwt>
<pdfrwt beam="1">  1        3 0.11210733E+00 0.12775687E+04</pdfrwt>
<pdfrwt beam="2">  1       -4 0.86148517E-01 0.12775687E+04</pdfrwt>
<totfact> 0.17563409E+00</totfact>
</mgrwt>
</event>
<event>
12    5  0.5041746E-008  0.1546754E+04  0.7818608E-02  0.8853944E-01
         -2   -1    0    0    0  501 -0.00000000000E+00  0.00000000000E+00  0.20167647720E+03  0.20167647720E+03  0.00000000000E+00 0.  1.
          1   -1    0    0  501    0  0.00000000000E+00 -0.00000000000E+00 -0.29656993913E+04  0.29656993913E+04  0.00000000000E+00 0. -1.
        -24    2    1    2    0    0  0.13667964393E+03 -0.48238687342E+03 -0.76383003363E+03  0.91711117611E+03  0.79234893596E+02 0.  0.
        254    2    1    2    0    0 -0.13667964393E+03  0.48238687342E+03 -0.20001928804E+04  0.22502646924E+04  0.90085581867E+03 0.  0.
         23    2    4    4    0    0 -0.16115104405E+03 -0.22684080329E+03 -0.81005595920E+03  0.86155752043E+03  0.93082194551E+02 0.  0.
         23    2    4    4    0    0  0.24471400122E+02  0.70922767671E+03 -0.11901369212E+04  0.13887071719E+04  0.92081329508E+02 0.  0.
          3    1    3    3  502    0  0.14323207840E+02 -0.71064279881E+01 -0.15989352881E+02  0.22612275585E+02  0.00000000000E+00 0. -1.
         -4    1    3    3    0  502  0.12235643609E+03 -0.47528044543E+03 -0.74784068075E+03  0.89449890053E+03  0.00000000000E+00 0.  1.
         13    1    5    5    0    0 -0.36282047511E+00 -0.51442401439E+02 -0.20600270866E+03  0.21232891531E+03  0.00000000000E+00 0. -1.
        -13    1    5    5    0    0 -0.16078822357E+03 -0.17539840185E+03 -0.60405325055E+03  0.64922860512E+03  0.00000000000E+00 0.  1.
          2    1    6    6  503    0 -0.14310017434E+02  0.20772262951E+03 -0.28152557152E+03  0.35015727156E+03  0.00000000000E+00 0. -1.
         -2    1    6    6    0  503  0.38781417556E+02  0.50150504720E+03 -0.90861134972E+03  0.10385499004E+04  0.00000000000E+00 0.  1.
<mgrwt>
<rscale>  0 0.15467538E+04</rscale>
<asrwt>0</asrwt>
<pdfrwt beam="1">  1        1 0.45626147E+00 0.15467538E+04</pdfrwt>
<pdfrwt beam="2">  1       -2 0.31027149E-01 0.15467538E+04</pdfrwt>
<totfact> 0.51864729E+00</totfact>
</mgrwt>
</event>
<event>
12    5  0.5041746E-008  0.2324686E+04  0.7818608E-02  0.8468251E-01
         -2   -1    0    0    0  501 -0.00000000000E+00  0.00000000000E+00  0.26016919383E+04  0.26016919383E+04  0.00000000000E+00 0.  1.
          1   -1    0    0  501    0  0.00000000000E+00 -0.00000000000E+00 -0.51929348549E+03  0.51929348549E+03  0.00000000000E+00 0. -1.
        -24    2    1    2    0    0  0.82787008049E+03 -0.50315179489E+03  0.59430491212E+03  0.11393705866E+04  0.80227215638E+02 0.  0.
        254    2    1    2    0    0 -0.82787008049E+03  0.50315179489E+03  0.14880935407E+04  0.19816148372E+04  0.87968424921E+03 0.  0.
         23    2    4    4    0    0 -0.78150579117E+03  0.65632768754E+03  0.89446091023E+03  0.13601127032E+04  0.91262864823E+02 0.  0.
         23    2    4    4    0    0 -0.46364289328E+02 -0.15317589265E+03  0.59363263044E+03  0.62150213396E+03  0.90844378902E+02 0.  0.
          1    1    3    3  502    0  0.81188591833E+03 -0.48722144255E+03  0.59197965807E+03  0.11166841066E+04  0.00000000000E+00 0. -1.
         -2    1    3    3    0  502  0.15984162165E+02 -0.15930352341E+02  0.23252540512E+01  0.22686479943E+02  0.00000000000E+00 0.  1.
         13    1    5    5    0    0 -0.76885549431E+03  0.64011769688E+03  0.89010299803E+03  0.13390940161E+04  0.00000000000E+00 0. -1.
        -13    1    5    5    0    0 -0.12650296861E+02  0.16209990658E+02  0.43579122008E+01  0.21018687080E+02  0.00000000000E+00 0.  1.
          3    1    6    6  503    0 -0.49041737208E+02 -0.15520791389E+03  0.59571214941E+03  0.61754963645E+03  0.00000000000E+00 0. -1.
         -3    1    6    6    0  503  0.26774478796E+01  0.20320212433E+01 -0.20795189646E+01  0.39524975149E+01  0.00000000000E+00 0.  1.
<mgrwt>
<rscale>  0 0.23246864E+04</rscale>
<asrwt>0</asrwt>
<pdfrwt beam="1">  1        1 0.79891307E-01 0.23246864E+04</pdfrwt>
<pdfrwt beam="2">  1       -2 0.40026029E+00 0.23246864E+04</pdfrwt>
<totfact> 0.24587968E-01</totfact>
</mgrwt>
</event>
<event>
12    5  0.5041746E-008  0.2083426E+04  0.7818608E-02  0.8568580E-01
         -2   -1    0    0    0  501 -0.00000000000E+00  0.00000000000E+00  0.77325008599E+03  0.77325008599E+03  0.00000000000E+00 0.  1.
          1   -1    0    0  501    0  0.00000000000E+00 -0.00000000000E+00 -0.14033823419E+04  0.14033823419E+04  0.00000000000E+00 0. -1.
        -24    2    1    2    0    0  0.73369409406E+02  0.79832310169E+03 -0.57076299529E+03  0.98723191362E+03  0.78444945975E+02 0.  0.
        254    2    1    2    0    0 -0.73369409406E+02 -0.79832310169E+03 -0.59369260606E+02  0.11894005142E+04  0.87661053453E+03 0.  0.
         23    2    4    4    0    0 -0.21413650344E+03 -0.36755052618E+03 -0.41917652441E+03  0.60404613762E+03  0.90636341241E+02 0.  0.
         23    2    4    4    0    0  0.14076709404E+03 -0.43077257551E+03  0.35980726380E+03  0.58535437663E+03  0.88306809313E+02 0.  0.
          3    1    3    3  502    0  0.50477611115E+02  0.36438090702E+03 -0.21866171009E+03  0.42794202654E+03  0.00000000000E+00 0. -1.
         -4    1    3    3    0  502  0.22891798291E+02  0.43394219467E+03 -0.35210128520E+03  0.55928988708E+03  0.00000000000E+00 0.  1.
         13    1    5    5    0    0 -0.17697530220E+03 -0.34205724068E+03 -0.34396744399E+03  0.51636906958E+03  0.00000000000E+00 0.  1.
        -13    1    5    5    0    0 -0.37161201239E+02 -0.25493285506E+02 -0.75209080416E+02  0.87677068042E+02  0.00000000000E+00 0. -1.
          4    1    6    6  503    0  0.52582390103E+02 -0.76512240739E+02  0.10498023642E+03  0.14014235894E+03  0.00000000000E+00 0.  1.
         -4    1    6    6    0  503  0.88184703935E+02 -0.35426033477E+03  0.25482702738E+03  0.44521201768E+03  0.00000000000E+00 0. -1.
<mgrwt>
<rscale>  0 0.20834256E+04</rscale>
<asrwt>0</asrwt>
<pdfrwt beam="1">  1        1 0.21590497E+00 0.20834256E+04</pdfrwt>
<pdfrwt beam="2">  1       -2 0.11896155E+00 0.20834256E+04</pdfrwt>
<totfact> 0.33512836E+00</totfact>
</mgrwt>
</event>
<event>
12    5  0.5041746E-008  0.3016994E+04  0.7818608E-02  0.8238895E-01
         -2   -1    0    0    0  501 -0.00000000000E+00  0.00000000000E+00  0.78417676014E+03  0.78417676014E+03  0.00000000000E+00 0.  1.
          1   -1    0    0  501    0  0.00000000000E+00 -0.00000000000E+00 -0.29018499470E+04  0.29018499470E+04  0.00000000000E+00 0. -1.
        -24    2    1    2    0    0  0.11267315203E+04 -0.67125116831E+03 -0.14347947576E+04  0.19455969019E+04  0.81297344136E+02 0.  0.
        254    2    1    2    0    0 -0.11267315203E+04  0.67125116831E+03 -0.68287842926E+03  0.17404298053E+04  0.91797108247E+03 0.  0.
         23    2    4    4    0    0 -0.11907974071E+04  0.45217487639E+03 -0.34953284968E+03  0.13240238750E+04  0.91681104046E+02 0.  0.
         23    2    4    4    0    0  0.64065886806E+02  0.21907629192E+03 -0.33334557958E+03  0.41640593035E+03  0.10087499128E+03 0.  0.
          3    1    3    3  502    0  0.71566998546E+03 -0.44642701918E+03 -0.87006718668E+03  0.12118157949E+04  0.00000000000E+00 0. -1.
         -4    1    3    3    0  502  0.41106153486E+03 -0.22482414913E+03 -0.56472757095E+03  0.73378110691E+03  0.00000000000E+00 0.  1.
         13    1    5    5    0    0 -0.67037095120E+03  0.23449880276E+03 -0.15168954376E+03  0.72622077799E+03  0.00000000000E+00 0.  1.
        -13    1    5    5    0    0 -0.52042645593E+03  0.21767607363E+03 -0.19784330591E+03  0.59780309698E+03  0.00000000000E+00 0. -1.
          1    1    6    6  503    0  0.42637216882E+02  0.12118600437E+03 -0.10114864819E+03  0.16350849810E+03  0.00000000000E+00 0. -1.
         -1    1    6    6    0  503  0.21428669924E+02  0.97890287552E+02 -0.23219693139E+03  0.25289743225E+03  0.00000000000E+00 0.  1.
<mgrwt>
<rscale>  0 0.30169941E+04</rscale>
<asrwt>0</asrwt>
<pdfrwt beam="1">  1        1 0.44643845E+00 0.30169941E+04</pdfrwt>
<pdfrwt beam="2">  1       -2 0.12064258E+00 0.30169941E+04</pdfrwt>
<totfact> 0.27583991E-01</totfact>
</mgrwt>
</event>
<event>
12    5  0.5041746E-008  0.2227597E+04  0.7818608E-02  0.8507029E-01
          1   -1    0    0  501    0  0.00000000000E+00  0.00000000000E+00  0.73391013139E+03  0.73391013139E+03  0.00000000000E+00 0. -1.
         -4   -1    0    0    0  501 -0.00000000000E+00 -0.00000000000E+00 -0.16903256411E+04  0.16903256411E+04  0.00000000000E+00 0.  1.
        -24    2    1    2    0    0  0.30547805520E+03  0.39951971296E+03  0.44762159205E+03  0.67799641104E+03  0.79882416463E+02 0.  0.
        254    2    1    2    0    0 -0.30547805520E+03 -0.39951971296E+03 -0.14040371017E+04  0.17462393615E+04  0.90834953688E+03 0.  0.
         23    2    4    4    0    0 -0.51399945733E+03 -0.73706072876E+02 -0.38336326119E+03  0.65081609501E+03  0.83463597937E+02 0.  0.
         23    2    4    4    0    0  0.20852140212E+03 -0.32581364008E+03 -0.10206738406E+04  0.10954232664E+04  0.92419373898E+02 0.  0.
          1    1    3    3  502    0  0.15415443568E+03  0.13716295490E+03  0.18409331961E+03  0.27652778624E+03  0.00000000000E+00 0. -1.
         -2    1    3    3    0  502  0.15132361953E+03  0.26235675806E+03  0.26352827243E+03  0.40146862480E+03  0.00000000000E+00 0.  1.
         13    1    5    5    0    0 -0.47026066990E+03 -0.65985962363E+02 -0.37620179092E+03  0.60582755993E+03  0.00000000000E+00 0. -1.
        -13    1    5    5    0    0 -0.43738787429E+02 -0.77201105131E+01 -0.71614702752E+01  0.44988535079E+02  0.00000000000E+00 0.  1.
          1    1    6    6  503    0  0.13055869986E+03 -0.22801032474E+03 -0.56867822571E+03  0.62644170255E+03  0.00000000000E+00 0. -1.
         -1    1    6    6    0  503  0.77962702266E+02 -0.97803315344E+02 -0.45199561484E+03  0.46898156390E+03  0.00000000000E+00 0.  1.
<mgrwt>
<rscale>  0 0.22275970E+04</rscale>
<asrwt>0</asrwt>
<pdfrwt beam="1">  1        1 0.11290925E+00 0.22275970E+04</pdfrwt>
<pdfrwt beam="2">  1       -4 0.26005010E+00 0.22275970E+04</pdfrwt>
<totfact> 0.60425275E-01</totfact>
</mgrwt>
</event>
<event>
12    5  0.5041746E-008  0.1530430E+04  0.7818608E-02  0.8864466E-01
         -2   -1    0    0    0  501 -0.00000000000E+00  0.00000000000E+00  0.15555053208E+04  0.15555053208E+04  0.00000000000E+00 0.  1.
          1   -1    0    0  501    0  0.00000000000E+00 -0.00000000000E+00 -0.37643963042E+03  0.37643963042E+03  0.00000000000E+00 0. -1.
        -24    2    1    2    0    0  0.48493382230E+03  0.24924296874E+02  0.48148365743E+03  0.68815755827E+03  0.77151021003E+02 0.  0.
        254    2    1    2    0    0 -0.48493382230E+03 -0.24924296874E+02  0.69758203293E+03  0.12437873929E+04  0.90807728391E+03 0.  0.
         23    2    4    4    0    0 -0.21997283788E+03 -0.43769896694E+03  0.19265302070E+03  0.53429435677E+03  0.91579682371E+02 0.  0.
         23    2    4    4    0    0 -0.26496098442E+03  0.41277467006E+03  0.50492901223E+03  0.70949303616E+03  0.88542698509E+02 0.  0.
          3    1    3    3  502    0  0.55348473959E+02 -0.17142210313E+02  0.79094946598E+02  0.98047537049E+02  0.00000000000E+00 0. -1.
         -4    1    3    3    0  502  0.42958534834E+03  0.42066507187E+02  0.40238871083E+03  0.59011002122E+03  0.00000000000E+00 0.  1.
         13    1    5    5    0    0 -0.43156578613E+02 -0.37945958997E+02  0.22408210888E+01  0.57510063127E+02  0.00000000000E+00 0.  1.
        -13    1    5    5    0    0 -0.17681625927E+03 -0.39975300794E+03  0.19041219962E+03  0.47678429364E+03  0.00000000000E+00 0. -1.
          1    1    6    6  503    0 -0.20984694895E+03  0.28924520136E+03  0.41198780109E+03  0.54537370375E+03  0.00000000000E+00 0. -1.
         -1    1    6    6    0  503 -0.55114035471E+02  0.12352946870E+03  0.92941211142E+02  0.16411933241E+03  0.00000000000E+00 0.  1.
<mgrwt>
<rscale>  0 0.15304298E+04</rscale>
<asrwt>0</asrwt>
<pdfrwt beam="1">  1        1 0.57913790E-01 0.15304298E+04</pdfrwt>
<pdfrwt beam="2">  1       -2 0.23930851E+00 0.15304298E+04</pdfrwt>
<totfact> 0.41038670E+00</totfact>
</mgrwt>
</event>
<event>
12    5  0.5041746E-008  0.2280966E+04  0.7818608E-02  0.8485464E-01
          1   -1    0    0  501    0  0.00000000000E+00  0.00000000000E+00  0.12669989787E+04  0.12669989787E+04  0.00000000000E+00 0. -1.
         -2   -1    0    0    0  501 -0.00000000000E+00 -0.00000000000E+00 -0.10265999536E+04  0.10265999536E+04  0.00000000000E+00 0.  1.
        -24    2    1    2    0    0 -0.40508445943E+03 -0.83427109342E+03  0.35405374093E+03  0.99590154216E+03  0.79775645579E+02 0.  0.
        254    2    1    2    0    0  0.40508445943E+03  0.83427109342E+03 -0.11365471582E+03  0.12976973902E+04  0.90055507629E+03 0.  0.
         23    2    4    4    0    0  0.16560743537E+03  0.82510901606E+03  0.22240239560E+03  0.87505209364E+03  0.89569135294E+02 0.  0.
         23    2    4    4    0    0  0.23947702406E+03  0.91620773597E+01 -0.33605711142E+03  0.42264529652E+03  0.90892660989E+02 0.  0.
          1    1    3    3  502    0 -0.40891093701E+03 -0.82846206876E+03  0.35116724137E+03  0.98837036843E+03  0.00000000000E+00 0. -1.
         -2    1    3    3    0  502  0.38264775723E+01 -0.58090246511E+01  0.28864995545E+01  0.75311737257E+01  0.00000000000E+00 0.  1.
         13    1    5    5    0    0  0.16539382739E+03  0.71922192058E+03  0.21607571146E+03  0.76897594388E+03  0.00000000000E+00 0. -1.
        -13    1    5    5    0    0  0.21360797643E+00  0.10588709548E+03  0.63266841380E+01  0.10607614977E+03  0.00000000000E+00 0.  1.
          3    1    6    6  503    0  0.15485402311E+03  0.28365685672E+02 -0.15047272477E+03  0.21777608109E+03  0.00000000000E+00 0. -1.
         -3    1    6    6    0  503  0.84623000952E+02 -0.19203608312E+02 -0.18558438665E+03  0.20486921543E+03  0.00000000000E+00 0.  1.
<mgrwt>
<rscale>  0 0.22809657E+04</rscale>
<asrwt>0</asrwt>
<pdfrwt beam="1">  1        1 0.19492292E+00 0.22809657E+04</pdfrwt>
<pdfrwt beam="2">  1       -2 0.15793846E+00 0.22809657E+04</pdfrwt>
<totfact> 0.19803415E+00</totfact>
</mgrwt>
</event>
<event>
12    5  0.5041746E-008  0.1441541E+04  0.7818608E-02  0.8924286E-01
         -2   -1    0    0    0  501 -0.00000000000E+00  0.00000000000E+00  0.52800937315E+03  0.52800937315E+03  0.00000000000E+00 0.  1.
          1   -1    0    0  501    0  0.00000000000E+00 -0.00000000000E+00 -0.98390296252E+03  0.98390296252E+03  0.00000000000E+00 0. -1.
        -24    2    1    2    0    0 -0.22689450921E+03  0.23624951069E+03 -0.38278381282E+03  0.50990446739E+03  0.78639486907E+02 0.  0.
        254    2    1    2    0    0  0.22689450921E+03 -0.23624951069E+03 -0.73109776548E+02  0.10020078683E+04  0.94412911144E+03 0.  0.
         23    2    4    4    0    0 -0.31663093867E+03  0.62388896425E+02  0.10235621903E+03  0.35043401145E+03  0.90441556200E+02 0.  0.
         23    2    4    4    0    0  0.54352544788E+03 -0.29863840711E+03 -0.17546599558E+03  0.65157385683E+03  0.95683669525E+02 0.  0.
          3    1    3    3  502    0 -0.21800387151E+03  0.22984130080E+03 -0.33573391056E+03  0.46159502841E+03  0.00000000000E+00 0. -1.
         -4    1    3    3    0  502 -0.88906376919E+01  0.64082098837E+01 -0.47049902253E+02  0.48309438980E+02  0.00000000000E+00 0.  1.
         13    1    5    5    0    0 -0.17382496445E+03  0.63264106425E+02  0.21237775249E+02  0.18619481337E+03  0.00000000000E+00 0.  1.
        -13    1    5    5    0    0 -0.14280597422E+03 -0.87521000032E+00  0.81118443781E+02  0.16423919808E+03  0.00000000000E+00 0. -1.
          1    1    6    6  503    0  0.15551684285E+03 -0.12730724872E+03 -0.30199750804E+02  0.20323545196E+03  0.00000000000E+00 0. -1.
         -1    1    6    6    0  503  0.38800860502E+03 -0.17133115839E+03 -0.14526624477E+03  0.44833840487E+03  0.00000000000E+00 0.  1.
<mgrwt>
<rscale>  0 0.14415408E+04</rscale>
<asrwt>0</asrwt>
<pdfrwt beam="1">  1        1 0.15136969E+00 0.14415408E+04</pdfrwt>
<pdfrwt beam="2">  1       -2 0.81232211E-01 0.14415408E+04</pdfrwt>
<totfact> 0.17725605E+01</totfact>
</mgrwt>
</event>
<event>
12    5  0.5041746E-008  0.1476322E+04  0.7818608E-02  0.8900353E-01
         -2   -1    0    0    0  501 -0.00000000000E+00  0.00000000000E+00  0.16158525027E+04  0.16158525027E+04  0.00000000000E+00 0.  1.
          1   -1    0    0  501    0  0.00000000000E+00 -0.00000000000E+00 -0.33721019117E+03  0.33721019117E+03  0.00000000000E+00 0. -1.
        -24    2    1    2    0    0 -0.32368185645E+03  0.48534222061E+02  0.92649279923E+03  0.98592295473E+03  0.80806254242E+02 0.  0.
        254    2    1    2    0    0  0.32368185645E+03 -0.48534222061E+02  0.35214951230E+03  0.96713973913E+03  0.83918083932E+03 0.  0.
         23    2    4    4    0    0  0.10046130804E+03 -0.46635811803E+02  0.60241885304E+03  0.61944259438E+03  0.92375753723E+02 0.  0.
         23    2    4    4    0    0  0.22322054841E+03 -0.18984102583E+01 -0.25026934075E+03  0.34769714475E+03  0.91801657674E+02 0.  0.
          1    1    3    3  502    0 -0.50064458654E+02 -0.46608754366E+01  0.77851254118E+02  0.92676812353E+02  0.00000000000E+00 0. -1.
         -2    1    3    3    0  502 -0.27361739780E+03  0.53195097498E+02  0.84864154511E+03  0.89324614238E+03  0.00000000000E+00 0.  1.
         13    1    5    5    0    0  0.39269149012E+02  0.27611406098E+02  0.19795951304E+03  0.20369689397E+03  0.00000000000E+00 0. -1.
        -13    1    5    5    0    0  0.61192159025E+02 -0.74247217901E+02  0.40445934000E+03  0.41574570041E+03  0.00000000000E+00 0.  1.
          1    1    6    6  503    0  0.67689722958E+02 -0.43167417697E+02 -0.89554930992E+02  0.12027223374E+03  0.00000000000E+00 0. -1.
         -1    1    6    6    0  503  0.15553082546E+03  0.41269007439E+02 -0.16071440976E+03  0.22742491100E+03  0.00000000000E+00 0.  1.
<mgrwt>
<rscale>  0 0.14763224E+04</rscale>
<asrwt>0</asrwt>
<pdfrwt beam="1">  1        1 0.51878492E-01 0.14763224E+04</pdfrwt>
<pdfrwt beam="2">  1       -2 0.24859269E+00 0.14763224E+04</pdfrwt>
<totfact> 0.41776844E+00</totfact>
</mgrwt>
</event>
<event>
12    5  0.5542648E-008  0.1409608E+04  0.7818608E-02  0.8946893E-01
          1   -1    0    0  501    0  0.00000000000E+00  0.00000000000E+00  0.26522607654E+04  0.26522607654E+04  0.00000000000E+00 0. -1.
         -2   -1    0    0    0  501 -0.00000000000E+00 -0.00000000000E+00 -0.18729265180E+03  0.18729265180E+03  0.00000000000E+00 0.  1.
        -24    2    1    2    0    0 -0.31895250195E+03 -0.18595850688E+03  0.35662344353E+03  0.51740964746E+03  0.64970747495E+02 0.  0.
        254    2    1    2    0    0  0.31895250195E+03  0.18595850688E+03  0.21083446701E+04  0.23221437697E+04  0.90051272880E+03 0.  0.
         23    2    4    4    0    0 -0.14735239494E+03  0.12566640048E+03  0.66011644004E+02  0.22438748710E+03  0.92127274542E+02 0.  0.
         23    2    4    4    0    0  0.46630489689E+03  0.60292106399E+02  0.20423330261E+04  0.20977562826E+04  0.91552373217E+02 0.  0.
          3    1    3    3  502    0 -0.65481663176E+01 -0.14292219495E+02  0.44957658259E+01  0.16351083468E+02  0.00000000000E+00 0. -1.
         -4    1    3    3    0  502 -0.31240433563E+03 -0.17166628739E+03  0.35212767770E+03  0.50105856399E+03  0.00000000000E+00 0.  1.
         13    1    5    5    0    0 -0.30586046321E+02  0.86056427231E+01  0.48692172895E+02  0.58141990140E+02  0.00000000000E+00 0. -1.
        -13    1    5    5    0    0 -0.11676634862E+03  0.11706075776E+03  0.17319471109E+02  0.16624549696E+03  0.00000000000E+00 0.  1.
          4    1    6    6  503    0  0.13986619630E+03 -0.16293170776E+02  0.50370089062E+03  0.52301300892E+03  0.00000000000E+00 0. -1.
         -4    1    6    6    0  503  0.32643870059E+03  0.76585277175E+02  0.15386321354E+04  0.15747432737E+04  0.00000000000E+00 0.  1.
<mgrwt>
<rscale>  0 0.14096084E+04</rscale>
<asrwt>0</asrwt>
<pdfrwt beam="1">  1        1 0.40804009E+00 0.14096084E+04</pdfrwt>
<pdfrwt beam="2">  1       -2 0.28814256E-01 0.14096084E+04</pdfrwt>
<totfact> 0.10074314E+01</totfact>
</mgrwt>
</event>
<event>
12    5  0.5041746E-008  0.1736250E+04  0.7818608E-02  0.8740955E-01
          3   -1    0    0  501    0  0.00000000000E+00  0.00000000000E+00  0.16003148056E+04  0.16003148056E+04  0.00000000000E+00 0. -1.
         -4   -1    0    0    0  501 -0.00000000000E+00 -0.00000000000E+00 -0.47093302817E+03  0.47093302817E+03  0.00000000000E+00 0.  1.
        -24    2    1    2    0    0  0.34155970540E+03  0.18580041261E+03 -0.18380196784E+03  0.43799803770E+03  0.82911350058E+02 0.  0.
        254    2    1    2    0    0 -0.34155970540E+03 -0.18580041261E+03  0.13131837453E+04  0.16332497961E+04  0.88986994659E+03 0.  0.
         23    2    4    4    0    0 -0.32972992773E+03 -0.99384448953E+02  0.45319351530E+02  0.35909860035E+03  0.91098118631E+02 0.  0.
         23    2    4    4    0    0 -0.11829777673E+02 -0.86415963660E+02  0.12678643938E+04  0.12741511958E+04  0.91506754974E+02 0.  0.
          1    1    3    3  502    0  0.73640595431E+02  0.17773585710E+02 -0.80183977880E+01  0.76178293152E+02  0.00000000000E+00 0. -1.
         -4    1    3    3    0  502  0.26791910997E+03  0.16802682690E+03 -0.17578357005E+03  0.36181974455E+03  0.00000000000E+00 0.  1.
         13    1    5    5    0    0 -0.24522870921E+03 -0.77306923259E+02  0.73332600096E+02  0.26737829089E+03  0.00000000000E+00 0.  1.
        -13    1    5    5    0    0 -0.84501218519E+02 -0.22077525694E+02 -0.28013248566E+02  0.91720309459E+02  0.00000000000E+00 0. -1.
          2    1    6    6  503    0 -0.45160191397E+01 -0.26339609933E+02  0.72711269799E+02  0.77466755683E+02  0.00000000000E+00 0. -1.
         -2    1    6    6    0  503 -0.73137585335E+01 -0.60076353727E+02  0.11951531240E+04  0.11966844401E+04  0.00000000000E+00 0.  1.
<mgrwt>
<rscale>  0 0.17362501E+04</rscale>
<asrwt>0</asrwt>
<pdfrwt beam="1">  1        3 0.24620228E+00 0.17362501E+04</pdfrwt>
<pdfrwt beam="2">  1       -4 0.72451236E-01 0.17362501E+04</pdfrwt>
<totfact> 0.29341142E-01</totfact>
</mgrwt>
</event>
<event>
12    5  0.6669443E-008  0.1802219E+04  0.7818608E-02  0.8705120E-01
         -2   -1    0    0    0  501 -0.00000000000E+00  0.00000000000E+00  0.60866056770E+03  0.60866056770E+03  0.00000000000E+00 0.  1.
          1   -1    0    0  501    0  0.00000000000E+00 -0.00000000000E+00 -0.13340744392E+04  0.13340744392E+04  0.00000000000E+00 0. -1.
        -24    2    1    2    0    0  0.20610667837E+03  0.29719667761E+03  0.33392135027E+03  0.49861263470E+03  0.79405687845E+02 0.  0.
        254    2    1    2    0    0 -0.20610667837E+03 -0.29719667761E+03 -0.10593352218E+04  0.14441223722E+04  0.91241026178E+03 0.  0.
         23    2    4    4    0    0  0.49468317523E+02 -0.58965881109E+02 -0.10762326709E+04  0.10828244799E+04  0.91148245152E+02 0.  0.
         23    2    4    4    0    0 -0.25557499590E+03 -0.23823079650E+03  0.16897449141E+02  0.36129789238E+03  0.90433137304E+02 0.  0.
          3    1    3    3  502    0  0.99183775454E+00  0.39160070896E+02  0.22689866393E+02  0.45269470194E+02  0.00000000000E+00 0. -1.
         -4    1    3    3    0  502  0.20511484062E+03  0.25803660672E+03  0.31123148388E+03  0.45334316451E+03  0.00000000000E+00 0.  1.
         13    1    5    5    0    0 -0.35040771405E+00 -0.68000015105E+02 -0.55949974468E+03  0.56361697023E+03  0.00000000000E+00 0.  1.
        -13    1    5    5    0    0  0.49818725237E+02  0.90341339963E+01 -0.51673292627E+03  0.51920750962E+03  0.00000000000E+00 0. -1.
          4    1    6    6  503    0 -0.22675784988E+03 -0.20777490035E+03  0.44991360172E+02  0.31082753126E+03  0.00000000000E+00 0. -1.
         -4    1    6    6    0  503 -0.28817146017E+02 -0.30455896151E+02 -0.28093911031E+02  0.50470361124E+02  0.00000000000E+00 0.  1.
<mgrwt>
<rscale>  0 0.18022192E+04</rscale>
<asrwt>0</asrwt>
<pdfrwt beam="1">  1        1 0.20524222E+00 0.18022192E+04</pdfrwt>
<pdfrwt beam="2">  1       -2 0.93640088E-01 0.18022192E+04</pdfrwt>
<totfact> 0.68244799E+00</totfact>
</mgrwt>
</event>
<event>
12    5  0.5041746E-008  0.1162579E+04  0.7818608E-02  0.9146257E-01
         -2   -1    0    0    0  501 -0.00000000000E+00  0.00000000000E+00  0.10299830203E+04  0.10299830203E+04  0.00000000000E+00 0.  1.
          1   -1    0    0  501    0  0.00000000000E+00 -0.00000000000E+00 -0.32806122004E+03  0.32806122004E+03  0.00000000000E+00 0. -1.
        -24    2    1    2    0    0 -0.72165704140E+02  0.20796116649E+03  0.99957737779E+02  0.25410474067E+03  0.78242790524E+02 0.  0.
        254    2    1    2    0    0  0.72165704140E+02 -0.20796116649E+03  0.60196406250E+03  0.11039394997E+04  0.89881363518E+03 0.  0.
         23    2    4    4    0    0  0.21286205987E+03 -0.48548913845E+03  0.17420697284E+03  0.56730612976E+03  0.10236315448E+03 0.  0.
         23    2    4    4    0    0 -0.14069635573E+03  0.27752797196E+03  0.42775708967E+03  0.53663336992E+03  0.90454442754E+02 0.  0.
          3    1    3    3  502    0 -0.69131745480E+02  0.12513878647E+03  0.30992154422E+02  0.14628543245E+03  0.00000000000E+00 0. -1.
         -4    1    3    3    0  502 -0.30339586595E+01  0.82822380022E+02  0.68965583357E+02  0.10781930822E+03  0.00000000000E+00 0.  1.
         13    1    5    5    0    0  0.52613371532E+02 -0.20865384663E+03  0.10754425292E+03  0.24056259250E+03  0.00000000000E+00 0.  1.
        -13    1    5    5    0    0  0.16024868834E+03 -0.27683529182E+03  0.66662719922E+02  0.32674353726E+03  0.00000000000E+00 0. -1.
          1    1    6    6  503    0 -0.56879937537E+02  0.58630935278E+02  0.16766698140E+03  0.18650772241E+03  0.00000000000E+00 0. -1.
         -1    1    6    6    0  503 -0.83816418196E+02  0.21889703669E+03  0.26009010827E+03  0.35012564752E+03  0.00000000000E+00 0.  1.
<mgrwt>
<rscale>  0 0.11625790E+04</rscale>
<asrwt>0</asrwt>
<pdfrwt beam="1">  1        1 0.50470957E-01 0.11625790E+04</pdfrwt>
<pdfrwt beam="2">  1       -2 0.15845892E+00 0.11625790E+04</pdfrwt>
<totfact> 0.17450932E+01</totfact>
</mgrwt>
</event>
<event>
12    5  0.5041746E-008  0.1202773E+04  0.7818608E-02  0.9110433E-01
         -2   -1    0    0    0  501 -0.00000000000E+00  0.00000000000E+00  0.20157731365E+04  0.20157731365E+04  0.00000000000E+00 0.  1.
          1   -1    0    0  501    0  0.00000000000E+00 -0.00000000000E+00 -0.17941790326E+03  0.17941790326E+03  0.00000000000E+00 0. -1.
        -24    2    1    2    0    0  0.22869145574E+03 -0.13671346692E+03  0.41752234915E+03  0.50160821163E+03  0.79344388416E+02 0.  0.
        254    2    1    2    0    0 -0.22869145574E+03  0.13671346692E+03  0.14188328840E+04  0.16935828281E+04  0.88552001037E+03 0.  0.
         23    2    4    4    0    0  0.19488395468E+03 -0.13622851192E+02  0.14026088427E+02  0.21566434295E+03  0.90272032179E+02 0.  0.
         23    2    4    4    0    0 -0.42357541042E+03  0.15033631811E+03  0.14048067956E+04  0.14779184851E+04  0.93508175288E+02 0.  0.
          3    1    3    3  502    0  0.89186937547E+02 -0.98506786680E+02  0.18525009360E+03  0.22798134580E+03  0.00000000000E+00 0. -1.
         -4    1    3    3    0  502  0.13950451819E+03 -0.38206680238E+02  0.23227225555E+03  0.27362686584E+03  0.00000000000E+00 0.  1.
         13    1    5    5    0    0  0.16790768903E+03 -0.23481621429E+02 -0.20474300930E+02  0.17077346274E+03  0.00000000000E+00 0.  1.
        -13    1    5    5    0    0  0.26976265658E+02  0.98587702369E+01  0.34500389358E+02  0.44890880201E+02  0.00000000000E+00 0. -1.
          4    1    6    6  503    0 -0.33445717490E+03  0.88567424458E+02  0.97219920853E+03  0.10319288210E+04  0.00000000000E+00 0. -1.
         -4    1    6    6    0  503 -0.89118235529E+02  0.61768893653E+02  0.43260758708E+03  0.44598966415E+03  0.00000000000E+00 0.  1.
<mgrwt>
<rscale>  0 0.12027731E+04</rscale>
<asrwt>0</asrwt>
<pdfrwt beam="1">  1        1 0.27602756E-01 0.12027731E+04</pdfrwt>
<pdfrwt beam="2">  1       -2 0.31011893E+00 0.12027731E+04</pdfrwt>
<totfact> 0.41123404E+00</totfact>
</mgrwt>
</event>
<event>
12    5  0.5041746E-008  0.1247326E+04  0.7818608E-02  0.9072411E-01
         -2   -1    0    0    0  501 -0.00000000000E+00  0.00000000000E+00  0.87021940669E+03  0.87021940669E+03  0.00000000000E+00 0.  1.
          1   -1    0    0  501    0  0.00000000000E+00 -0.00000000000E+00 -0.44696289087E+03  0.44696289087E+03  0.00000000000E+00 0. -1.
        -24    2    1    2    0    0  0.16667085801E+03  0.12117994013E+03 -0.88202900575E+02  0.23774589525E+03  0.79243966580E+02 0.  0.
        254    2    1    2    0    0 -0.16667085801E+03 -0.12117994013E+03  0.51145941640E+03  0.10794364023E+04  0.92797007452E+03 0.  0.
         23    2    4    4    0    0 -0.41079409325E+03  0.18384010783E+03  0.49858544393E+03  0.67782824859E+03  0.91185072216E+02 0.  0.
         23    2    4    4    0    0  0.24412323524E+03 -0.30502004797E+03  0.12873972472E+02  0.40160815372E+03  0.92141121767E+02 0.  0.
          1    1    3    3  502    0  0.14373464547E+03  0.13176477519E+03 -0.83173711015E+02  0.21198931693E+03  0.00000000000E+00 0. -1.
         -2    1    3    3    0  502  0.22936212542E+02 -0.10584835063E+02 -0.50291895601E+01  0.25756578319E+02  0.00000000000E+00 0.  1.
         13    1    5    5    0    0 -0.36222622995E+02  0.37629285156E+02  0.93262117948E+02  0.10689183394E+03  0.00000000000E+00 0. -1.
        -13    1    5    5    0    0 -0.37457147025E+03  0.14621082268E+03  0.40532332598E+03  0.57093641465E+03  0.00000000000E+00 0.  1.
          1    1    6    6  503    0  0.50093796174E+02 -0.81789582938E+02  0.41404113452E+02  0.10446638169E+03  0.00000000000E+00 0. -1.
         -1    1    6    6    0  503  0.19402943906E+03 -0.22323046503E+03 -0.28530140980E+02  0.29714177203E+03  0.00000000000E+00 0.  1.
<mgrwt>
<rscale>  0 0.12473264E+04</rscale>
<asrwt>0</asrwt>
<pdfrwt beam="1">  1        1 0.68763522E-01 0.12473264E+04</pdfrwt>
<pdfrwt beam="2">  1       -2 0.13387991E+00 0.12473264E+04</pdfrwt>
<totfact> 0.17942994E+01</totfact>
</mgrwt>
</event>
<event>
12    5  0.5041746E-008  0.1374813E+04  0.7818608E-02  0.8972255E-01
         -2   -1    0    0    0  501 -0.00000000000E+00  0.00000000000E+00  0.89580019891E+03  0.89580019891E+03  0.00000000000E+00 0.  1.
          1   -1    0    0  501    0  0.00000000000E+00 -0.00000000000E+00 -0.52749211005E+03  0.52749211005E+03  0.00000000000E+00 0. -1.
        -24    2    1    2    0    0 -0.17024548355E+03 -0.21111253544E+03  0.39410672619E+03  0.48493056541E+03  0.79281235788E+02 0.  0.
        254    2    1    2    0    0  0.17024548355E+03  0.21111253544E+03 -0.25798637324E+02  0.93836174355E+03  0.89794496757E+03 0.  0.
         23    2    4    4    0    0  0.23391764092E+03  0.13700712910E+03  0.39997682535E+03  0.49185939437E+03  0.91955352527E+02 0.  0.
         23    2    4    4    0    0 -0.63672157365E+02  0.74105406342E+02 -0.42577546267E+03  0.44650234918E+03  0.92378830593E+02 0.  0.
          3    1    3    3  502    0  0.64011663327E+01 -0.25032150666E+02  0.40692564939E+02  0.48202368600E+02  0.00000000000E+00 0. -1.
         -4    1    3    3    0  502 -0.17664664989E+03 -0.18608038477E+03  0.35341416125E+03  0.43672819680E+03  0.00000000000E+00 0.  1.
         13    1    5    5    0    0  0.91838744164E+02  0.17899477592E+02  0.85224124856E+02  0.12656183345E+03  0.00000000000E+00 0. -1.
        -13    1    5    5    0    0  0.14207889675E+03  0.11910765150E+03  0.31475270049E+03  0.36529756092E+03  0.00000000000E+00 0.  1.
          4    1    6    6  503    0 -0.12803458274E+02  0.74758042403E+01 -0.25364690532E+01  0.15041604571E+02  0.00000000000E+00 0. -1.
         -4    1    6    6    0  503 -0.50868699090E+02  0.66629602101E+02 -0.42323899362E+03  0.43146074461E+03  0.00000000000E+00 0.  1.
<mgrwt>
<rscale>  0 0.13748128E+04</rscale>
<asrwt>0</asrwt>
<pdfrwt beam="1">  1        1 0.81152633E-01 0.13748128E+04</pdfrwt>
<pdfrwt beam="2">  1       -2 0.13781541E+00 0.13748128E+04</pdfrwt>
<totfact> 0.13144114E+01</totfact>
</mgrwt>
</event>
<event>
12    5  0.5041746E-008  0.1646991E+04  0.7818608E-02  0.8792189E-01
          1   -1    0    0  501    0  0.00000000000E+00  0.00000000000E+00  0.92235100342E+03  0.92235100342E+03  0.00000000000E+00 0. -1.
         -2   -1    0    0    0  501 -0.00000000000E+00 -0.00000000000E+00 -0.73523473315E+03  0.73523473315E+03  0.00000000000E+00 0.  1.
        -24    2    1    2    0    0 -0.54251864253E+03  0.16455616643E+02 -0.12323636997E+03  0.56244519979E+03  0.80994660707E+02 0.  0.
        254    2    1    2    0    0  0.54251864253E+03 -0.16455616643E+02  0.31035264024E+03  0.10951405368E+04  0.89911999711E+03 0.  0.
         23    2    4    4    0    0  0.63656780116E+03  0.22166451932E+03  0.42110524397E+03  0.80010367185E+03  0.92100676429E+02 0.  0.
         23    2    4    4    0    0 -0.94049158630E+02 -0.23812013596E+03 -0.11075260373E+03  0.29503686494E+03  0.96094583891E+02 0.  0.
          1    1    3    3  502    0 -0.50816805867E+03  0.28469277483E+02 -0.98407438036E+02  0.51839106809E+03  0.00000000000E+00 0. -1.
         -2    1    3    3    0  502 -0.34350583860E+02 -0.12013660841E+02 -0.24828931934E+02  0.44054131694E+02  0.00000000000E+00 0.  1.
         13    1    5    5    0    0  0.48972563444E+03  0.19761992589E+03  0.36064494246E+03  0.63949167833E+03  0.00000000000E+00 0. -1.
        -13    1    5    5    0    0  0.14684216673E+03  0.24044593430E+02  0.60460301513E+02  0.16061199352E+03  0.00000000000E+00 0.  1.
          1    1    6    6  503    0 -0.67777916715E+02 -0.20722446572E+03 -0.12587436755E+03  0.25175420869E+03  0.00000000000E+00 0. -1.
         -1    1    6    6    0  503 -0.26271241915E+02 -0.30895670235E+02  0.15121763816E+02  0.43282656249E+02  0.00000000000E+00 0.  1.
<mgrwt>
<rscale>  0 0.16469906E+04</rscale>
<asrwt>0</asrwt>
<pdfrwt beam="1">  1        1 0.14190015E+00 0.16469906E+04</pdfrwt>
<pdfrwt beam="2">  1       -2 0.11311304E+00 0.16469906E+04</pdfrwt>
<totfact> 0.89728599E+00</totfact>
</mgrwt>
</event>
<event>
12    5  0.5041746E-008  0.1561626E+04  0.7818608E-02  0.8844476E-01
          1   -1    0    0  501    0  0.00000000000E+00  0.00000000000E+00  0.11583540830E+04  0.11583540830E+04  0.00000000000E+00 0. -1.
         -2   -1    0    0    0  501 -0.00000000000E+00 -0.00000000000E+00 -0.52632353210E+03  0.52632353210E+03  0.00000000000E+00 0.  1.
        -24    2    1    2    0    0  0.24195443138E+03  0.22786035619E+03  0.63623682371E+03  0.72236835110E+03  0.80971908898E+02 0.  0.
        254    2    1    2    0    0 -0.24195443138E+03 -0.22786035619E+03 -0.42062728529E+01  0.96230926397E+03  0.90308312907E+03 0.  0.
         23    2    4    4    0    0 -0.25835750448E+03 -0.55660585247E+03 -0.12049161125E+02  0.62024678723E+03  0.89455126508E+02 0.  0.
         23    2    4    4    0    0  0.16403073100E+02  0.32874549628E+03  0.78428882723E+01  0.34206247675E+03  0.92750013324E+02 0.  0.
          3    1    3    3  502    0  0.23357870754E+03  0.18444630666E+03  0.56274138843E+03  0.63659824293E+03  0.00000000000E+00 0. -1.
         -4    1    3    3    0  502  0.83757238404E+01  0.43414049534E+02  0.73495435285E+02  0.85770108164E+02  0.00000000000E+00 0.  1.
         13    1    5    5    0    0 -0.25235161021E+03 -0.55827169791E+03 -0.78057604188E+01  0.61270674369E+03  0.00000000000E+00 0.  1.
        -13    1    5    5    0    0 -0.60058942684E+01  0.16658454436E+01 -0.42434007064E+01  0.75400435383E+01  0.00000000000E+00 0. -1.
          4    1    6    6  503    0 -0.70559308876E+01  0.14786899731E+03 -0.40299321749E+02  0.15342445000E+03  0.00000000000E+00 0. -1.
         -4    1    6    6    0  503  0.23459003987E+02  0.18087649897E+03  0.48142210021E+02  0.18863802674E+03  0.00000000000E+00 0.  1.
<mgrwt>
<rscale>  0 0.15616261E+04</rscale>
<asrwt>0</asrwt>
<pdfrwt beam="1">  1        1 0.17820832E+00 0.15616261E+04</pdfrwt>
<pdfrwt beam="2">  1       -2 0.80972851E-01 0.15616261E+04</pdfrwt>
<totfact> 0.13021579E+01</totfact>
</mgrwt>
</event>
<event>
12    5  0.5041746E-008  0.1726003E+04  0.7818608E-02  0.8746671E-01
          1   -1    0    0  501    0  0.00000000000E+00  0.00000000000E+00  0.53968793542E+03  0.53968793542E+03  0.00000000000E+00 0. -1.
         -2   -1    0    0    0  501 -0.00000000000E+00 -0.00000000000E+00 -0.13800036745E+04  0.13800036745E+04  0.00000000000E+00 0.  1.
        -24    2    1    2    0    0 -0.17803238040E+03 -0.23594634128E+03  0.30626749109E+03  0.43273715625E+03  0.78073464525E+02 0.  0.
        254    2    1    2    0    0  0.17803238040E+03  0.23594634128E+03 -0.11465832301E+04  0.14869544536E+04  0.89945218836E+03 0.  0.
         23    2    4    4    0    0 -0.17318605817E+02  0.55426164123E+03 -0.67563802637E+03  0.87888071203E+03  0.91862191706E+02 0.  0.
         23    2    4    4    0    0  0.19535098622E+03 -0.31831529995E+03 -0.47094520375E+03  0.60807374160E+03  0.92074167327E+02 0.  0.
          1    1    3    3  502    0 -0.16885338046E+03 -0.22610471080E+03  0.30956039757E+03  0.41888237500E+03  0.00000000000E+00 0. -1.
         -2    1    3    3    0  502 -0.91789999390E+01 -0.98416304777E+01 -0.32929064804E+01  0.13854781248E+02  0.00000000000E+00 0.  1.
         13    1    5    5    0    0 -0.12154677519E+02  0.55522424690E+03 -0.67410907550E+03  0.87340983862E+03  0.00000000000E+00 0. -1.
        -13    1    5    5    0    0 -0.51639282972E+01 -0.96260567252E+00 -0.15289508730E+01  0.54708734140E+01  0.00000000000E+00 0.  1.
          3    1    6    6  503    0  0.14060248904E+03 -0.28625179692E+03 -0.36613043493E+03  0.48555189892E+03  0.00000000000E+00 0. -1.
         -3    1    6    6    0  503  0.54748497183E+02 -0.32063503025E+02 -0.10481476882E+03  0.12252184268E+03  0.00000000000E+00 0.  1.
<mgrwt>
<rscale>  0 0.17260027E+04</rscale>
<asrwt>0</asrwt>
<pdfrwt beam="1">  1        1 0.83028914E-01 0.17260027E+04</pdfrwt>
<pdfrwt beam="2">  1       -2 0.21230825E+00 0.17260027E+04</pdfrwt>
<totfact> 0.36606694E+00</totfact>
</mgrwt>
</event>
<event>
12    5  0.5041746E-008  0.1271892E+04  0.7818608E-02  0.9052157E-01
         -2   -1    0    0    0  501 -0.00000000000E+00  0.00000000000E+00  0.73808292587E+03  0.73808292587E+03  0.00000000000E+00 0.  1.
          1   -1    0    0  501    0  0.00000000000E+00 -0.00000000000E+00 -0.54794288878E+03  0.54794288878E+03  0.00000000000E+00 0. -1.
        -24    2    1    2    0    0 -0.31803997697E+02  0.31254694423E+03  0.13329904830E+03  0.35046844366E+03  0.79764698353E+02 0.  0.
        254    2    1    2    0    0  0.31803997697E+02 -0.31254694423E+03  0.56840988799E+02  0.93555737100E+03  0.87939729918E+03 0.  0.
         23    2    4    4    0    0 -0.11210037506E+03  0.22070756441E+03  0.22928077642E+03  0.34976917144E+03  0.92143777757E+02 0.  0.
         23    2    4    4    0    0  0.14390437276E+03 -0.53325450864E+03 -0.17243978762E+03  0.58578819955E+03  0.91342733142E+02 0.  0.
          3    1    3    3  502    0 -0.27082537509E+02  0.31668041334E+03  0.13121063027E+03  0.34385487858E+03  0.00000000000E+00 0. -1.
         -4    1    3    3    0  502 -0.47214601879E+01 -0.41334691037E+01  0.20884180272E+01  0.66135650744E+01  0.00000000000E+00 0.  1.
         13    1    5    5    0    0 -0.26511234521E+02 -0.82354810201E-01  0.32029005002E+02  0.41577752459E+02  0.00000000000E+00 0. -1.
        -13    1    5    5    0    0 -0.85589140539E+02  0.22078991922E+03  0.19725177142E+03  0.30819141898E+03  0.00000000000E+00 0.  1.
          3    1    6    6  503    0 -0.42532180757E+01 -0.84274863439E+01  0.69276272416E+01  0.11709159204E+02  0.00000000000E+00 0. -1.
         -3    1    6    6    0  503  0.14815759083E+03 -0.52482702230E+03 -0.17936741486E+03  0.57407904035E+03  0.00000000000E+00 0.  1.
<mgrwt>
<rscale>  0 0.12718920E+04</rscale>
<asrwt>0</asrwt>
<pdfrwt beam="1">  1        1 0.84298906E-01 0.12718920E+04</pdfrwt>
<pdfrwt beam="2">  1       -2 0.11355122E+00 0.12718920E+04</pdfrwt>
<totfact> 0.20424784E+01</totfact>
</mgrwt>
</event>
<event>
12    5  0.5041746E-008  0.1245723E+04  0.7818608E-02  0.9073751E-01
          1   -1    0    0  501    0  0.00000000000E+00  0.00000000000E+00  0.93312739351E+03  0.93312739351E+03  0.00000000000E+00 0. -1.
         -2   -1    0    0    0  501 -0.00000000000E+00 -0.00000000000E+00 -0.41575929656E+03  0.41575929656E+03  0.00000000000E+00 0.  1.
        -24    2    1    2    0    0 -0.54479778424E+02 -0.83092193143E+01 -0.17351973831E+03  0.19733176991E+03  0.76115953997E+02 0.  0.
        254    2    1    2    0    0  0.54479778424E+02  0.83092193143E+01  0.69088783526E+03  0.11515549202E+04  0.91962799209E+03 0.  0.
         23    2    4    4    0    0  0.19294376290E+03  0.37608654609E+03  0.59335789486E+03  0.73424158343E+03  0.91480739221E+02 0.  0.
         23    2    4    4    0    0 -0.13846398447E+03 -0.36777732677E+03  0.97529940398E+02  0.41731333673E+03  0.10102422805E+03 0.  0.
          3    1    3    3  502    0  0.10349157788E+02  0.17052598815E+02 -0.68419740531E+02  0.71268205307E+02  0.00000000000E+00 0. -1.
         -4    1    3    3    0  502 -0.64828936213E+02 -0.25361818130E+02 -0.10509999778E+03  0.12606356461E+03  0.00000000000E+00 0.  1.
         13    1    5    5    0    0  0.13742405460E+03  0.17682761600E+03  0.34065948073E+03  0.40767911201E+03  0.00000000000E+00 0. -1.
        -13    1    5    5    0    0  0.55519708301E+02  0.19925893009E+03  0.25269841414E+03  0.32656247142E+03  0.00000000000E+00 0.  1.
          3    1    6    6  503    0 -0.12399819410E+03 -0.31273097247E+03  0.44183731685E+02  0.33930578455E+03  0.00000000000E+00 0. -1.
         -3    1    6    6    0  503 -0.14465790377E+02 -0.55046354301E+02  0.53346208713E+02  0.78007552180E+02  0.00000000000E+00 0.  1.
<mgrwt>
<rscale>  0 0.12457229E+04</rscale>
<asrwt>0</asrwt>
<pdfrwt beam="1">  1        1 0.14355806E+00 0.12457229E+04</pdfrwt>
<pdfrwt beam="2">  1       -2 0.63962969E-01 0.12457229E+04</pdfrwt>
<totfact> 0.33419222E+01</totfact>
</mgrwt>
</event>
<event>
12    5  0.5041746E-008  0.2041440E+04  0.7818608E-02  0.8587487E-01
         -4   -1    0    0    0  501 -0.00000000000E+00  0.00000000000E+00  0.39331060049E+03  0.39331060049E+03  0.00000000000E+00 0.  1.
          1   -1    0    0  501    0  0.00000000000E+00 -0.00000000000E+00 -0.26489739319E+04  0.26489739319E+04  0.00000000000E+00 0. -1.
        -24    2    1    2    0    0  0.35518493619E+03 -0.45627637245E+03 -0.17767925206E+04  0.18701953345E+04  0.79337639539E+02 0.  0.
        254    2    1    2    0    0 -0.35518493619E+03  0.45627637245E+03 -0.47887081086E+03  0.11720891979E+04  0.90007297895E+03 0.  0.
         23    2    4    4    0    0 -0.49949412199E+03  0.62783863933E+03 -0.46047680320E+03  0.92966698240E+03  0.92553103299E+02 0.  0.
         23    2    4    4    0    0  0.14430918580E+03 -0.17156226688E+03 -0.18394007658E+02  0.24242221552E+03  0.90396009521E+02 0.  0.
          1    1    3    3  502    0  0.29749035017E+03 -0.39822785580E+03 -0.14319112104E+04  0.15157360087E+04  0.00000000000E+00 0. -1.
         -2    1    3    3    0  502  0.57694586023E+02 -0.58048516647E+02 -0.34488131015E+03  0.35445932578E+03  0.00000000000E+00 0.  1.
         13    1    5    5    0    0 -0.11592263895E+03  0.10122184026E+03 -0.61647204997E+02  0.16578388658E+03  0.00000000000E+00 0. -1.
        -13    1    5    5    0    0 -0.38357148304E+03  0.52661679907E+03 -0.39882959821E+03  0.76388309581E+03  0.00000000000E+00 0.  1.
          3    1    6    6  503    0  0.12142388163E+03 -0.78729628899E+02  0.16896013061E+01  0.14472376533E+03  0.00000000000E+00 0. -1.
         -3    1    6    6    0  503  0.22885304165E+02 -0.92832637985E+02 -0.20083608964E+02  0.97698450198E+02  0.00000000000E+00 0.  1.
<mgrwt>
<rscale>  0 0.20414402E+04</rscale>
<asrwt>0</asrwt>
<pdfrwt beam="1">  1        1 0.40753444E+00 0.20414402E+04</pdfrwt>
<pdfrwt beam="2">  1       -4 0.60509325E-01 0.20414402E+04</pdfrwt>
<totfact> 0.12588332E+00</totfact>
</mgrwt>
</event>
<event>
12    5  0.5041746E-008  0.2159440E+04  0.7818608E-02  0.8535502E-01
          1   -1    0    0  501    0  0.00000000000E+00  0.00000000000E+00  0.23054624252E+04  0.23054624252E+04  0.00000000000E+00 0. -1.
         -2   -1    0    0    0  501 -0.00000000000E+00 -0.00000000000E+00 -0.50566672204E+03  0.50566672204E+03  0.00000000000E+00 0.  1.
        -24    2    1    2    0    0 -0.21015589934E+03 -0.44531133094E+03 -0.22282187387E+03  0.54541121401E+03  0.73185527299E+02 0.  0.
        254    2    1    2    0    0  0.21015589934E+03  0.44531133094E+03  0.20226175770E+04  0.22657179332E+04  0.89444295877E+03 0.  0.
         23    2    4    4    0    0  0.47746927960E+03  0.49017354031E+03  0.16982627787E+04  0.18332698649E+04  0.92384628993E+02 0.  0.
         23    2    4    4    0    0 -0.26731338027E+03 -0.44862209371E+02  0.32435479831E+03  0.43244806824E+03  0.91302986996E+02 0.  0.
          1    1    3    3  502    0 -0.14229304593E+03 -0.29235975677E+03 -0.10857048941E+03  0.34279598811E+03  0.00000000000E+00 0. -1.
         -2    1    3    3    0  502 -0.67862853409E+02 -0.15295157417E+03 -0.11425138446E+03  0.20261522590E+03  0.00000000000E+00 0.  1.
         13    1    5    5    0    0  0.26228389134E+03  0.31751652308E+03  0.10960200316E+04  0.11708413606E+04  0.00000000000E+00 0. -1.
        -13    1    5    5    0    0  0.21518538826E+03  0.17265701724E+03  0.60224274708E+03  0.66242850432E+03  0.00000000000E+00 0.  1.
          3    1    6    6  503    0 -0.23151879278E+03 -0.58862502905E+02  0.23463514414E+03  0.33484234578E+03  0.00000000000E+00 0. -1.
         -3    1    6    6    0  503 -0.35794587485E+02  0.14000293534E+02  0.89719654172E+02  0.97605722460E+02  0.00000000000E+00 0.  1.
<mgrwt>
<rscale>  0 0.21594403E+04</rscale>
<asrwt>0</asrwt>
<pdfrwt beam="1">  1        1 0.35468652E+00 0.21594403E+04</pdfrwt>
<pdfrwt beam="2">  1       -2 0.77794882E-01 0.21594403E+04</pdfrwt>
<totfact> 0.21830308E+00</totfact>
</mgrwt>
</event>
<event>
12    5  0.5041746E-008  0.3335291E+04  0.7818608E-02  0.8153973E-01
         -2   -1    0    0    0  501 -0.00000000000E+00  0.00000000000E+00  0.92721224131E+03  0.92721224131E+03  0.00000000000E+00 0.  1.
          1   -1    0    0  501    0  0.00000000000E+00 -0.00000000000E+00 -0.29993587709E+04  0.29993587709E+04  0.00000000000E+00 0. -1.
        -24    2    1    2    0    0  0.61194179693E+03 -0.94380523587E+03 -0.22244098271E+04  0.24939036810E+04  0.79469521942E+02 0.  0.
        254    2    1    2    0    0 -0.61194179693E+03  0.94380523587E+03  0.15226329754E+03  0.14326673312E+04  0.87413413390E+03 0.  0.
         23    2    4    4    0    0 -0.61777970080E+02 -0.80918342415E+02  0.22611111254E+03  0.26353854154E+03  0.89230218728E+02 0.  0.
         23    2    4    4    0    0 -0.55016382685E+03  0.10247235783E+04 -0.73847815001E+02  0.11691287897E+04  0.93112720902E+02 0.  0.
          1    1    3    3  502    0  0.55001377573E+03 -0.85896264051E+03 -0.19627899473E+04  0.22119847080E+04  0.00000000000E+00 0. -1.
         -2    1    3    3    0  502  0.61928021199E+02 -0.84842595359E+02 -0.26161987981E+03  0.28191897295E+03  0.00000000000E+00 0.  1.
         13    1    5    5    0    0 -0.31500974750E+02 -0.69570835455E+02  0.21684957133E+03  0.22990465229E+03  0.00000000000E+00 0. -1.
        -13    1    5    5    0    0 -0.30276995330E+02 -0.11347506960E+02  0.92615412065E+01  0.33633889248E+02  0.00000000000E+00 0.  1.
          2    1    6    6  503    0 -0.22022670757E+03  0.31758225178E+03 -0.24422067618E+02  0.38723988271E+03  0.00000000000E+00 0. -1.
         -2    1    6    6    0  503 -0.32993711928E+03  0.70714132651E+03 -0.49425747383E+02  0.78188890697E+03  0.00000000000E+00 0.  1.
<mgrwt>
<rscale>  0 0.33352914E+04</rscale>
<asrwt>0</asrwt>
<pdfrwt beam="1">  1        1 0.46143981E+00 0.33352914E+04</pdfrwt>
<pdfrwt beam="2">  1       -2 0.14264804E+00 0.33352914E+04</pdfrwt>
<totfact> 0.14893879E-01</totfact>
</mgrwt>
</event>
<event>
12    5  0.5041746E-008  0.2096653E+04  0.7818608E-02  0.8562719E-01
          1   -1    0    0  501    0  0.00000000000E+00  0.00000000000E+00  0.72994231782E+03  0.72994231782E+03  0.00000000000E+00 0. -1.
         -4   -1    0    0    0  501 -0.00000000000E+00 -0.00000000000E+00 -0.15055823825E+04  0.15055823825E+04  0.00000000000E+00 0.  1.
        -24    2    1    2    0    0  0.23411417858E+03 -0.76491876936E+03 -0.63367002856E+03  0.10236229725E+04  0.79725230249E+02 0.  0.
        254    2    1    2    0    0 -0.23411417858E+03  0.76491876936E+03 -0.14197003613E+03  0.12119017279E+04  0.89924420182E+03 0.  0.
         23    2    4    4    0    0 -0.73756261740E+02  0.10993121252E+03 -0.43979209253E+03  0.46912962853E+03  0.95606830711E+02 0.  0.
         23    2    4    4    0    0 -0.16035791684E+03  0.65498755684E+03  0.29782205640E+03  0.74277209934E+03  0.91044237422E+02 0.  0.
          3    1    3    3  502    0  0.27605823647E+02 -0.20802623684E+03 -0.15809475175E+03  0.26273741121E+03  0.00000000000E+00 0. -1.
         -4    1    3    3    0  502  0.20650835494E+03 -0.55689253252E+03 -0.47557527681E+03  0.76088556127E+03  0.00000000000E+00 0.  1.
         13    1    5    5    0    0 -0.14563128360E+02 -0.16013126489E+02 -0.35728297551E+02  0.41773390735E+02  0.00000000000E+00 0. -1.
        -13    1    5    5    0    0 -0.59193133380E+02  0.12594433901E+03 -0.40406379498E+03  0.42735623779E+03  0.00000000000E+00 0.  1.
          3    1    6    6  503    0 -0.27472161947E+02  0.37968140545E+02  0.54626557914E+01  0.47181987948E+02  0.00000000000E+00 0. -1.
         -3    1    6    6    0  503 -0.13288575490E+03  0.61701941629E+03  0.29235940061E+03  0.69559011139E+03  0.00000000000E+00 0.  1.
<mgrwt>
<rscale>  0 0.20966529E+04</rscale>
<asrwt>0</asrwt>
<pdfrwt beam="1">  1        1 0.11229882E+00 0.20966529E+04</pdfrwt>
<pdfrwt beam="2">  1       -4 0.23162806E+00 0.20966529E+04</pdfrwt>
<totfact> 0.92863128E-01</totfact>
</mgrwt>
</event>
<event>
12    5  0.5041746E-008  0.2209879E+04  0.7818608E-02  0.8514327E-01
          1   -1    0    0  501    0  0.00000000000E+00  0.00000000000E+00  0.14324325343E+04  0.14324325343E+04  0.00000000000E+00 0. -1.
         -2   -1    0    0    0  501 -0.00000000000E+00 -0.00000000000E+00 -0.85232060404E+03  0.85232060404E+03  0.00000000000E+00 0.  1.
        -24    2    1    2    0    0 -0.32373389557E+03  0.23597476303E+03  0.10974822361E+04  0.11709901845E+04  0.79139306067E+02 0.  0.
        254    2    1    2    0    0  0.32373389557E+03 -0.23597476303E+03 -0.51737030584E+03  0.11137629538E+04  0.90128139889E+03 0.  0.
         23    2    4    4    0    0  0.20184022829E+03 -0.52393136923E+03 -0.89123718291E+02  0.57577569720E+03  0.91274634513E+02 0.  0.
         23    2    4    4    0    0  0.12189366728E+03  0.28795660620E+03 -0.42824658755E+03  0.53798725661E+03  0.90873953072E+02 0.  0.
          3    1    3    3  502    0 -0.10023374038E+03  0.72610557766E+02  0.45213793323E+03  0.46877265969E+03  0.00000000000E+00 0. -1.
         -2    1    3    3    0  502 -0.22350015519E+03  0.16336420526E+03  0.64534430288E+03  0.70221752484E+03  0.00000000000E+00 0.  1.
         13    1    5    5    0    0  0.10283770140E+03 -0.33299647447E+03 -0.92838427067E+02  0.36066773959E+03  0.00000000000E+00 0.  1.
        -13    1    5    5    0    0  0.99002526887E+02 -0.19093489475E+03  0.37147087755E+01  0.21510795761E+03  0.00000000000E+00 0. -1.
          2    1    6    6  503    0  0.10568571222E+03  0.21651105651E+03 -0.38108978677E+03  0.45086132340E+03  0.00000000000E+00 0.  1.
         -2    1    6    6    0  503  0.16207955057E+02  0.71445549686E+02 -0.47156800784E+02  0.87125933207E+02  0.00000000000E+00 0. -1.
<mgrwt>
<rscale>  0 0.22098794E+04</rscale>
<asrwt>0</asrwt>
<pdfrwt beam="1">  1        1 0.22037424E+00 0.22098794E+04</pdfrwt>
<pdfrwt beam="2">  1       -2 0.13112625E+00 0.22098794E+04</pdfrwt>
<totfact> 0.24771307E+00</totfact>
</mgrwt>
</event>
<event>
12    5  0.5041746E-008  0.1368360E+04  0.7818608E-02  0.8977045E-01
          1   -1    0    0  501    0  0.00000000000E+00  0.00000000000E+00  0.21485450873E+04  0.21485450873E+04  0.00000000000E+00 0. -1.
         -2   -1    0    0    0  501 -0.00000000000E+00 -0.00000000000E+00 -0.21786940555E+03  0.21786940555E+03  0.00000000000E+00 0.  1.
        -24    2    1    2    0    0 -0.25324410473E+03 -0.47120123697E+01  0.10316344931E+04  0.10655332944E+04  0.83286820616E+02 0.  0.
        254    2    1    2    0    0  0.25324410473E+03  0.47120123697E+01  0.89904118868E+03  0.13008811985E+04  0.90546234265E+03 0.  0.
         23    2    4    4    0    0 -0.26115110564E+03  0.48495627919E+02  0.67438964014E+03  0.73059967703E+03  0.91775680039E+02 0.  0.
         23    2    4    4    0    0  0.51439521038E+03 -0.43783615549E+02  0.22465154854E+03  0.57028152144E+03  0.90737302080E+02 0.  0.
          1    1    3    3  502    0 -0.20962201896E+03  0.20498139528E+02  0.73226648838E+03  0.76195523134E+03  0.00000000000E+00 0. -1.
         -2    1    3    3    0  502 -0.43622085772E+02 -0.25210151898E+02  0.29936800472E+03  0.30357806307E+03  0.00000000000E+00 0.  1.
         13    1    5    5    0    0 -0.81716762339E+02 -0.17307110725E+02  0.13955554526E+03  0.16264352290E+03  0.00000000000E+00 0. -1.
        -13    1    5    5    0    0 -0.17943434330E+03  0.65802738644E+02  0.53483409488E+03  0.56795615414E+03  0.00000000000E+00 0.  1.
          4    1    6    6  503    0  0.20403919599E+03 -0.19514232083E+02  0.13815991187E+03  0.24718608375E+03  0.00000000000E+00 0. -1.
         -4    1    6    6    0  503  0.31035601439E+03 -0.24269383466E+02  0.86491636663E+02  0.32309543769E+03  0.00000000000E+00 0.  1.
<mgrwt>
<rscale>  0 0.13683600E+04</rscale>
<asrwt>0</asrwt>
<pdfrwt beam="1">  1        1 0.33054538E+00 0.13683600E+04</pdfrwt>
<pdfrwt beam="2">  1       -2 0.33518371E-01 0.13683600E+04</pdfrwt>
<totfact> 0.16891006E+01</totfact>
</mgrwt>
</event>
<event>
12    5  0.5041746E-008  0.2883746E+04  0.7818608E-02  0.8277730E-01
         -2   -1    0    0    0  501 -0.00000000000E+00  0.00000000000E+00  0.78276578736E+03  0.78276578736E+03  0.00000000000E+00 0.  1.
          1   -1    0    0  501    0  0.00000000000E+00 -0.00000000000E+00 -0.26559631793E+04  0.26559631793E+04  0.00000000000E+00 0. -1.
        -24    2    1    2    0    0  0.33620505659E+02  0.12780040252E+04 -0.56439186915E+03  0.13998185773E+04  0.80803715800E+02 0.  0.
        254    2    1    2    0    0 -0.33620505659E+02 -0.12780040252E+04 -0.13088055228E+04  0.20389103894E+04  0.89986613030E+03 0.  0.
         23    2    4    4    0    0  0.35520800756E+02 -0.72119726459E+01  0.98808744560E+02  0.13908166978E+03  0.90921961217E+02 0.  0.
         23    2    4    4    0    0 -0.69141306415E+02 -0.12707920526E+04 -0.14076142674E+04  0.18998287196E+04  0.90985036903E+02 0.  0.
          3    1    3    3  502    0  0.26120544871E+02  0.78953413016E+03 -0.39098092386E+03  0.88142640554E+03  0.00000000000E+00 0. -1.
         -4    1    3    3    0  502  0.74999607885E+01  0.48846989507E+03 -0.17341094529E+03  0.51839217177E+03  0.00000000000E+00 0.  1.
         13    1    5    5    0    0  0.31799923238E+02 -0.44819208471E+02  0.79496742172E+02  0.96642271196E+02  0.00000000000E+00 0. -1.
        -13    1    5    5    0    0  0.37208775180E+01  0.37607235826E+02  0.19312002388E+02  0.42439398584E+02  0.00000000000E+00 0.  1.
          1    1    6    6  503    0 -0.24200000926E+02 -0.66611116730E+03 -0.80218706292E+03  0.10429735429E+04  0.00000000000E+00 0. -1.
         -1    1    6    6    0  503 -0.44941305489E+02 -0.60468088528E+03 -0.60542720444E+03  0.85685517670E+03  0.00000000000E+00 0.  1.
<mgrwt>
<rscale>  0 0.28837456E+04</rscale>
<asrwt>0</asrwt>
<pdfrwt beam="1">  1        1 0.40860972E+00 0.28837456E+04</pdfrwt>
<pdfrwt beam="2">  1       -2 0.12042551E+00 0.28837456E+04</pdfrwt>
<totfact> 0.41936463E-01</totfact>
</mgrwt>
</event>
<event>
12    5  0.5041746E-008  0.2611931E+04  0.7818608E-02  0.8364160E-01
          1   -1    0    0  501    0  0.00000000000E+00  0.00000000000E+00  0.10578908209E+04  0.10578908209E+04  0.00000000000E+00 0. -1.
         -2   -1    0    0    0  501 -0.00000000000E+00 -0.00000000000E+00 -0.16122141029E+04  0.16122141029E+04  0.00000000000E+00 0.  1.
        -24    2    1    2    0    0 -0.90920232935E+03  0.38630594473E+03 -0.84531513655E+03  0.13025655795E+04  0.78982594436E+02 0.  0.
        254    2    1    2    0    0  0.90920232935E+03 -0.38630594473E+03  0.29099185457E+03  0.13675393443E+04  0.89978132914E+03 0.  0.
         23    2    4    4    0    0  0.86680686562E+03 -0.55825614872E+03  0.25630515941E+02  0.10354938627E+04  0.92663619636E+02 0.  0.
         23    2    4    4    0    0  0.42395463727E+02  0.17195020400E+03  0.26536133862E+03  0.33204548167E+03  0.92050604877E+02 0.  0.
          1    1    3    3  502    0 -0.10319137969E+03  0.40319455332E+02 -0.12947489423E+03  0.17040501036E+03  0.00000000000E+00 0. -1.
         -2    1    3    3    0  502 -0.80601094966E+03  0.34598648939E+03 -0.71584024232E+03  0.11321605691E+04  0.00000000000E+00 0.  1.
         13    1    5    5    0    0  0.55986906890E+03 -0.38346431851E+03 -0.22728654775E+02  0.67898074319E+03  0.00000000000E+00 0.  1.
        -13    1    5    5    0    0  0.30693779672E+03 -0.17479183021E+03  0.48359170716E+02  0.35651311948E+03  0.00000000000E+00 0. -1.
          4    1    6    6  503    0  0.28271633631E+02  0.13315761956E+03  0.25565321364E+03  0.28963563759E+03  0.00000000000E+00 0.  1.
         -4    1    6    6    0  503  0.14123830095E+02  0.38792584440E+02  0.97081249813E+01  0.42409844078E+02  0.00000000000E+00 0. -1.
<mgrwt>
<rscale>  0 0.26119315E+04</rscale>
<asrwt>0</asrwt>
<pdfrwt beam="1">  1        1 0.16275244E+00 0.26119315E+04</pdfrwt>
<pdfrwt beam="2">  1       -2 0.24803294E+00 0.26119315E+04</pdfrwt>
<totfact> 0.69605122E-01</totfact>
</mgrwt>
</event>
<event>
12    5  0.5041746E-008  0.1834773E+04  0.7818608E-02  0.8688023E-01
         -2   -1    0    0    0  501 -0.00000000000E+00  0.00000000000E+00  0.30090922946E+03  0.30090922946E+03  0.00000000000E+00 0.  1.
          1   -1    0    0  501    0  0.00000000000E+00 -0.00000000000E+00 -0.27968487352E+04  0.27968487352E+04  0.00000000000E+00 0. -1.
        -24    2    1    2    0    0  0.63420527485E+03 -0.61847106123E+02 -0.47708402469E+03  0.80011938008E+03  0.80873114159E+02 0.  0.
        254    2    1    2    0    0 -0.63420527485E+03  0.61847106123E+02 -0.20188554811E+04  0.22976385846E+04  0.89293012985E+03 0.  0.
         23    2    4    4    0    0 -0.75557073221E+03 -0.65651819406E+02 -0.19376939715E+04  0.20825652337E+04  0.84986661440E+02 0.  0.
         23    2    4    4    0    0  0.12136545736E+03  0.12749892553E+03 -0.81161509600E+02  0.21507335093E+03  0.93186937870E+02 0.  0.
          3    1    3    3  502    0  0.17221926064E+03 -0.28193781583E+02 -0.17480499620E+03  0.24700435169E+03  0.00000000000E+00 0. -1.
         -4    1    3    3    0  502  0.46198601421E+03 -0.33653324540E+02 -0.30227902849E+03  0.55311502840E+03  0.00000000000E+00 0.  1.
         13    1    5    5    0    0 -0.56699489976E+03 -0.68096819530E+02 -0.15384174173E+04  0.16409901106E+04  0.00000000000E+00 0. -1.
        -13    1    5    5    0    0 -0.18857583245E+03  0.24450001243E+01 -0.39927655412E+03  0.44157512303E+03  0.00000000000E+00 0.  1.
          4    1    6    6  503    0  0.74295033022E+02  0.12478976856E+03 -0.35650965958E+02  0.14954340387E+03  0.00000000000E+00 0. -1.
         -4    1    6    6    0  503  0.47070424341E+02  0.27091569714E+01 -0.45510543642E+02  0.65529947061E+02  0.00000000000E+00 0.  1.
<mgrwt>
<rscale>  0 0.18347726E+04</rscale>
<asrwt>0</asrwt>
<pdfrwt beam="1">  1        1 0.43028444E+00 0.18347726E+04</pdfrwt>
<pdfrwt beam="2">  1       -2 0.46293725E-01 0.18347726E+04</pdfrwt>
<totfact> 0.30686438E+00</totfact>
</mgrwt>
</event>
<event>
12    5  0.5041746E-008  0.2041240E+04  0.7818608E-02  0.8587579E-01
          1   -1    0    0  501    0  0.00000000000E+00  0.00000000000E+00  0.87636365444E+03  0.87636365444E+03  0.00000000000E+00 0. -1.
         -2   -1    0    0    0  501 -0.00000000000E+00 -0.00000000000E+00 -0.11886224797E+04  0.11886224797E+04  0.00000000000E+00 0.  1.
        -24    2    1    2    0    0 -0.40104838534E+03 -0.23009640307E+03  0.56036508587E+03  0.73086360519E+03  0.79802367409E+02 0.  0.
        254    2    1    2    0    0  0.40104838534E+03  0.23009640307E+03 -0.87262391112E+03  0.13341225289E+04  0.89700962640E+03 0.  0.
         23    2    4    4    0    0  0.52013323364E+03  0.44646071080E+03 -0.41764465559E+03  0.80810129635E+03  0.93460685795E+02 0.  0.
         23    2    4    4    0    0 -0.11908484830E+03 -0.21636430773E+03 -0.45497925553E+03  0.52602123258E+03  0.93260384995E+02 0.  0.
          1    1    3    3  502    0 -0.29919701037E+03 -0.14895891235E+03  0.44751686906E+03  0.55855076464E+03  0.00000000000E+00 0. -1.
         -2    1    3    3    0  502 -0.10185137496E+03 -0.81137490723E+02  0.11284821682E+03  0.17231284056E+03  0.00000000000E+00 0.  1.
         13    1    5    5    0    0  0.42133243447E+03  0.32684306681E+03 -0.35600106771E+03  0.64115846003E+03  0.00000000000E+00 0. -1.
        -13    1    5    5    0    0  0.98800799167E+02  0.11961764399E+03 -0.61643587882E+02  0.16694283632E+03  0.00000000000E+00 0.  1.
          2    1    6    6  503    0 -0.10134904874E+03 -0.88701960952E+02 -0.24731599752E+03  0.28161120395E+03  0.00000000000E+00 0. -1.
         -2    1    6    6    0  503 -0.17735799559E+02 -0.12766234678E+03 -0.20766325801E+03  0.24441002863E+03  0.00000000000E+00 0.  1.
<mgrwt>
<rscale>  0 0.20412403E+04</rscale>
<asrwt>0</asrwt>
<pdfrwt beam="1">  1        1 0.13482518E+00 0.20412403E+04</pdfrwt>
<pdfrwt beam="2">  1       -2 0.18286500E+00 0.20412403E+04</pdfrwt>
<totfact> 0.26709099E+00</totfact>
</mgrwt>
</event>
<event>
12    5  0.5041746E-008  0.1077675E+04  0.7818608E-02  0.9227228E-01
          1   -1    0    0  501    0  0.00000000000E+00  0.00000000000E+00  0.91501197234E+03  0.91501197234E+03  0.00000000000E+00 0. -1.
         -2   -1    0    0    0  501 -0.00000000000E+00 -0.00000000000E+00 -0.31731395624E+03  0.31731395624E+03  0.00000000000E+00 0.  1.
        -24    2    1    2    0    0 -0.94472155430E+02 -0.93145865728E+02  0.16622151134E+03  0.22710228532E+03  0.79653730067E+02 0.  0.
        254    2    1    2    0    0  0.94472155430E+02  0.93145865728E+02  0.43147650476E+03  0.10052236433E+04  0.89816560742E+03 0.  0.
         23    2    4    4    0    0  0.10109353430E+03  0.40797248554E+03 -0.38855290343E+02  0.43197418592E+03  0.91817820048E+02 0.  0.
         23    2    4    4    0    0 -0.66213788742E+01 -0.31482661981E+03  0.47033179511E+03  0.57324945734E+03  0.90792618933E+02 0.  0.
          3    1    3    3  502    0 -0.51989925234E+02 -0.82274062320E+02  0.15294595181E+03  0.18128551467E+03  0.00000000000E+00 0. -1.
         -2    1    3    3    0  502 -0.42482230196E+02 -0.10871803408E+02  0.13275559529E+02  0.45816770647E+02  0.00000000000E+00 0.  1.
         13    1    5    5    0    0  0.10875811070E+03  0.34921155666E+03 -0.95856153347E+01  0.36588102160E+03  0.00000000000E+00 0. -1.
        -13    1    5    5    0    0 -0.76645764005E+01  0.58760928878E+02 -0.29269675008E+02  0.66093164314E+02  0.00000000000E+00 0.  1.
          3    1    6    6  503    0 -0.40756202252E+02 -0.75281903734E+02  0.13071696979E+03  0.15625414952E+03  0.00000000000E+00 0. -1.
         -3    1    6    6    0  503  0.34134823377E+02 -0.23954471608E+03  0.33961482531E+03  0.41699530781E+03  0.00000000000E+00 0.  1.
<mgrwt>
<rscale>  0 0.10776754E+04</rscale>
<asrwt>0</asrwt>
<pdfrwt beam="1">  1        1 0.14077107E+00 0.10776754E+04</pdfrwt>
<pdfrwt beam="2">  1       -2 0.48817532E-01 0.10776754E+04</pdfrwt>
<totfact> 0.61470100E+01</totfact>
</mgrwt>
</event>
<event>
12    5  0.5041746E-008  0.1743560E+04  0.7818608E-02  0.8736903E-01
          1   -1    0    0  501    0  0.00000000000E+00  0.00000000000E+00  0.22121655587E+04  0.22121655587E+04  0.00000000000E+00 0. -1.
         -2   -1    0    0    0  501 -0.00000000000E+00 -0.00000000000E+00 -0.34355475818E+03  0.34355475818E+03  0.00000000000E+00 0.  1.
        -24    2    1    2    0    0 -0.42470949609E+03  0.23720915485E+03  0.12753787509E+04  0.13673005579E+04  0.79205543531E+02 0.  0.
        254    2    1    2    0    0  0.42470949609E+03 -0.23720915485E+03  0.59323204962E+03  0.11884197590E+04  0.90761826760E+03 0.  0.
         23    2    4    4    0    0  0.21933471220E+03 -0.80063877022E+01  0.78148487872E+03  0.81703427063E+03  0.93029917235E+02 0.  0.
         23    2    4    4    0    0  0.20537478389E+03 -0.22920276715E+03 -0.18825282909E+03  0.37138548838E+03  0.88177905330E+02 0.  0.
          3    1    3    3  502    0 -0.34500525374E+03  0.15690558224E+03  0.10122010664E+04  0.10808325429E+04  0.00000000000E+00 0. -1.
         -4    1    3    3    0  502 -0.79704242350E+02  0.80303572603E+02  0.26317768447E+03  0.28646801501E+03  0.00000000000E+00 0.  1.
         13    1    5    5    0    0  0.19405311715E+02  0.19951717122E+02  0.41218739239E+02  0.49735516519E+02  0.00000000000E+00 0. -1.
        -13    1    5    5    0    0  0.19992940049E+03 -0.27958104825E+02  0.74026613948E+03  0.76729875411E+03  0.00000000000E+00 0.  1.
          3    1    6    6  503    0  0.24679550175E+02 -0.50663139093E+02 -0.73574932558E+02  0.92677422065E+02  0.00000000000E+00 0. -1.
         -3    1    6    6    0  503  0.18069523372E+03 -0.17853962805E+03 -0.11467789654E+03  0.27870806631E+03  0.00000000000E+00 0.  1.
<mgrwt>
<rscale>  0 0.17435596E+04</rscale>
<asrwt>0</asrwt>
<pdfrwt beam="1">  1        1 0.34033315E+00 0.17435596E+04</pdfrwt>
<pdfrwt beam="2">  1       -2 0.52854579E-01 0.17435596E+04</pdfrwt>
<totfact> 0.60114773E+00</totfact>
</mgrwt>
</event>
<event>
12    5  0.5041746E-008  0.1554853E+04  0.7818608E-02  0.8848774E-01
         -2   -1    0    0    0  501 -0.00000000000E+00  0.00000000000E+00  0.22587547528E+03  0.22587547528E+03  0.00000000000E+00 0.  1.
          1   -1    0    0  501    0  0.00000000000E+00 -0.00000000000E+00 -0.26757757286E+04  0.26757757286E+04  0.00000000000E+00 0. -1.
        -24    2    1    2    0    0 -0.44668250778E+03  0.13091259716E+03 -0.11368000836E+04  0.12309814907E+04  0.79609230815E+02 0.  0.
        254    2    1    2    0    0  0.44668250778E+03 -0.13091259716E+03 -0.13131001697E+04  0.16706697131E+04  0.92208560546E+03 0.  0.
         23    2    4    4    0    0  0.29425233573E+03  0.37623960472E+03 -0.50929364641E+03  0.70417754909E+03  0.91352751034E+02 0.  0.
         23    2    4    4    0    0  0.15243017205E+03 -0.50715220187E+03 -0.80380652330E+03  0.96649216404E+03  0.86970472184E+02 0.  0.
          3    1    3    3  502    0 -0.40747181970E+03  0.13521723074E+03 -0.99225795690E+03  0.10811534749E+04  0.00000000000E+00 0. -1.
         -4    1    3    3    0  502 -0.39210688076E+02 -0.43046335809E+01 -0.14454212666E+03  0.14982801577E+03  0.00000000000E+00 0.  1.
         13    1    5    5    0    0  0.23677542221E+02  0.14109139902E+02 -0.70350818290E+01  0.28446198528E+02  0.00000000000E+00 0. -1.
        -13    1    5    5    0    0  0.27057479351E+03  0.36213046481E+03 -0.50225856458E+03  0.67573135056E+03  0.00000000000E+00 0.  1.
          1    1    6    6  503    0  0.62408284414E+01 -0.19706600707E+02 -0.73611678283E+02  0.76458990516E+02  0.00000000000E+00 0. -1.
         -1    1    6    6    0  503  0.14618934361E+03 -0.48744560117E+03 -0.73019484502E+03  0.89003317352E+03  0.00000000000E+00 0.  1.
<mgrwt>
<rscale>  0 0.15548532E+04</rscale>
<asrwt>0</asrwt>
<pdfrwt beam="1">  1        1 0.41165783E+00 0.15548532E+04</pdfrwt>
<pdfrwt beam="2">  1       -2 0.34750071E-01 0.15548532E+04</pdfrwt>
<totfact> 0.67264389E+00</totfact>
</mgrwt>
</event>
<event>
12    5  0.5041746E-008  0.1431019E+04  0.7818608E-02  0.8931667E-01
          1   -1    0    0  501    0  0.00000000000E+00  0.00000000000E+00  0.12433841150E+04  0.12433841150E+04  0.00000000000E+00 0. -1.
         -2   -1    0    0    0  501 -0.00000000000E+00 -0.00000000000E+00 -0.41174209207E+03  0.41174209207E+03  0.00000000000E+00 0.  1.
        -24    2    1    2    0    0 -0.14873886175E+03 -0.33537648360E+03  0.49051511261E+03  0.61788898132E+03  0.81123873142E+02 0.  0.
        254    2    1    2    0    0  0.14873886175E+03  0.33537648360E+03  0.34112691036E+03  0.10372372258E+04  0.90823612504E+03 0.  0.
         23    2    4    4    0    0  0.15861072053E+03 -0.24556358806E+03 -0.76357686406E+02  0.31563962521E+03  0.91318345803E+02 0.  0.
         23    2    4    4    0    0 -0.98718587817E+01  0.58094007166E+03  0.41748459676E+03  0.72159760057E+03  0.93919583432E+02 0.  0.
          1    1    3    3  502    0 -0.15164850228E+03 -0.32468264536E+03  0.44660135972E+03  0.57259834347E+03  0.00000000000E+00 0. -1.
         -2    1    3    3    0  502  0.29096405268E+01 -0.10693838242E+02  0.43913752885E+02  0.45290637849E+02  0.00000000000E+00 0.  1.
         13    1    5    5    0    0  0.11333059709E+03 -0.14746818967E+03 -0.90218449028E+02  0.20671250506E+03  0.00000000000E+00 0. -1.
        -13    1    5    5    0    0  0.45280123437E+02 -0.98095398392E+02  0.13860762623E+02  0.10892712015E+03  0.00000000000E+00 0.  1.
          1    1    6    6  503    0 -0.44426881472E+02  0.36379045141E+03  0.29066756453E+03  0.46776583181E+03  0.00000000000E+00 0. -1.
         -1    1    6    6    0  503  0.34555022690E+02  0.21714962025E+03  0.12681703223E+03  0.25383176876E+03  0.00000000000E+00 0.  1.
<mgrwt>
<rscale>  0 0.14310186E+04</rscale>
<asrwt>0</asrwt>
<pdfrwt beam="1">  1        1 0.19128986E+00 0.14310186E+04</pdfrwt>
<pdfrwt beam="2">  1       -2 0.63344938E-01 0.14310186E+04</pdfrwt>
<totfact> 0.19559612E+01</totfact>
</mgrwt>
</event>
<event>
12    5  0.5041746E-008  0.1634395E+04  0.7818608E-02  0.8799692E-01
         -2   -1    0    0    0  501 -0.00000000000E+00  0.00000000000E+00  0.35088122758E+03  0.35088122758E+03  0.00000000000E+00 0.  1.
          1   -1    0    0  501    0  0.00000000000E+00 -0.00000000000E+00 -0.19032409918E+04  0.19032409918E+04  0.00000000000E+00 0. -1.
        -24    2    1    2    0    0  0.29700966553E+03 -0.94768675050E+02  0.10659796538E+03  0.33903884331E+03  0.79927266050E+02 0.  0.
        254    2    1    2    0    0 -0.29700966553E+03  0.94768675050E+02 -0.16589577296E+04  0.19150833761E+04  0.90454836552E+03 0.  0.
         23    2    4    4    0    0 -0.38290620474E+03 -0.18835316300E+03 -0.15067469058E+04  0.15686571509E+04  0.91131460405E+02 0.  0.
         23    2    4    4    0    0  0.85896539213E+02  0.28312183805E+03 -0.15221082378E+03  0.34642622523E+03  0.96471778373E+02 0.  0.
          1    1    3    3  502    0  0.10441112844E+01 -0.12747997723E+02 -0.26573437349E+01  0.13063808405E+02  0.00000000000E+00 0. -1.
         -2    1    3    3    0  502  0.29596555425E+03 -0.82020677328E+02  0.10925530911E+03  0.32597503490E+03  0.00000000000E+00 0.  1.
         13    1    5    5    0    0 -0.15063274154E+03 -0.89505830668E+02 -0.77607539137E+03  0.79560953340E+03  0.00000000000E+00 0.  1.
        -13    1    5    5    0    0 -0.23227346321E+03 -0.98847332332E+02 -0.73067151446E+03  0.77304761746E+03  0.00000000000E+00 0. -1.
          3    1    6    6  503    0  0.97356163218E+02  0.25397036891E+03 -0.10891408645E+03  0.29298711410E+03  0.00000000000E+00 0. -1.
         -3    1    6    6    0  503 -0.11459624005E+02  0.29151469142E+02 -0.43296737328E+02  0.53439111133E+02  0.00000000000E+00 0.  1.
<mgrwt>
<rscale>  0 0.16343947E+04</rscale>
<asrwt>0</asrwt>
<pdfrwt beam="1">  1        1 0.29280630E+00 0.16343947E+04</pdfrwt>
<pdfrwt beam="2">  1       -2 0.53981728E-01 0.16343947E+04</pdfrwt>
<totfact> 0.94132165E+00</totfact>
</mgrwt>
</event>
<event>
12    5  0.5041746E-008  0.1059371E+04  0.7818608E-02  0.9245722E-01
         -2   -1    0    0    0  501 -0.00000000000E+00  0.00000000000E+00  0.13669657452E+03  0.13669657452E+03  0.00000000000E+00 0.  1.
          1   -1    0    0  501    0  0.00000000000E+00 -0.00000000000E+00 -0.20524795063E+04  0.20524795063E+04  0.00000000000E+00 0. -1.
        -24    2    1    2    0    0 -0.94415413160E+02  0.35877908270E+02 -0.45285780012E+03  0.47064964485E+03  0.78926589463E+02 0.  0.
        254    2    1    2    0    0  0.94415413160E+02 -0.35877908270E+02 -0.14629251316E+04  0.17185264359E+04  0.89609244818E+03 0.  0.
         23    2    4    4    0    0  0.31581697722E+03 -0.33734692509E+03 -0.10661188634E+04  0.11654227345E+04  0.89763067055E+02 0.  0.
         23    2    4    4    0    0 -0.22140156406E+03  0.30146901682E+03 -0.39680626819E+03  0.55310370140E+03  0.92554142866E+02 0.  0.
          1    1    3    3  502    0 -0.10204815831E+03  0.12213275541E+02 -0.38063290737E+03  0.39426437943E+03  0.00000000000E+00 0. -1.
         -2    1    3    3    0  502  0.76327451491E+01  0.23664632729E+02 -0.72224892744E+02  0.76385265416E+02  0.00000000000E+00 0.  1.
         13    1    5    5    0    0  0.21307381456E+03 -0.19412314569E+03 -0.75000772623E+03  0.80348978559E+03  0.00000000000E+00 0.  1.
        -13    1    5    5    0    0  0.10274316266E+03 -0.14322377940E+03 -0.31611113721E+03  0.36193294893E+03  0.00000000000E+00 0. -1.
          4    1    6    6  503    0 -0.34451793076E+02  0.91866392636E+02 -0.14983744882E+03  0.17910226468E+03  0.00000000000E+00 0. -1.
         -4    1    6    6    0  503 -0.18694977098E+03  0.20960262418E+03 -0.24696881937E+03  0.37400143673E+03  0.00000000000E+00 0.  1.
<mgrwt>
<rscale>  0 0.10593714E+04</rscale>
<asrwt>0</asrwt>
<pdfrwt beam="1">  1        1 0.31576606E+00 0.10593714E+04</pdfrwt>
<pdfrwt beam="2">  1       -2 0.21030243E-01 0.10593714E+04</pdfrwt>
<totfact> 0.47289569E+01</totfact>
</mgrwt>
</event>
<event>
12    5  0.5041746E-008  0.1118191E+04  0.7818608E-02  0.9187641E-01
         -2   -1    0    0    0  501 -0.00000000000E+00  0.00000000000E+00  0.45154007794E+03  0.45154007794E+03  0.00000000000E+00 0.  1.
          1   -1    0    0  501    0  0.00000000000E+00 -0.00000000000E+00 -0.69227031197E+03  0.69227031197E+03  0.00000000000E+00 0. -1.
        -24    2    1    2    0    0 -0.13921496486E+02  0.12758624690E+03 -0.17454028160E+03  0.23180463685E+03  0.82444049511E+02 0.  0.
        254    2    1    2    0    0  0.13921496486E+02 -0.12758624690E+03 -0.66189952420E+02  0.91200575306E+03  0.90050059709E+03 0.  0.
         23    2    4    4    0    0 -0.37630771185E+03 -0.28076198220E+03 -0.38702945119E+01  0.47817138896E+03  0.90543433740E+02 0.  0.
         23    2    4    4    0    0  0.39022920834E+03  0.15317573530E+03 -0.62319657908E+02  0.43383436410E+03  0.92665391558E+02 0.  0.
          3    1    3    3  502    0  0.76175717809E+01  0.13051065798E+03 -0.15209897215E+03  0.20056210155E+03  0.00000000000E+00 0. -1.
         -4    1    3    3    0  502 -0.21539068266E+02 -0.29244110890E+01 -0.22441309453E+02  0.31242535300E+02  0.00000000000E+00 0.  1.
         13    1    5    5    0    0 -0.32319302135E+03 -0.27541393311E+03 -0.71765702405E+01  0.42468584479E+03  0.00000000000E+00 0.  1.
        -13    1    5    5    0    0 -0.53114690500E+02 -0.53480490812E+01  0.33062757286E+01  0.53485544169E+02  0.00000000000E+00 0. -1.
          1    1    6    6  503    0  0.10323744561E+03  0.86117159873E+02 -0.25240123274E+02  0.13678888560E+03  0.00000000000E+00 0. -1.
         -1    1    6    6    0  503  0.28699176273E+03  0.67058575428E+02 -0.37079534634E+02  0.29704547851E+03  0.00000000000E+00 0.  1.
<mgrwt>
<rscale>  0 0.11181910E+04</rscale>
<asrwt>0</asrwt>
<pdfrwt beam="1">  1        1 0.10650312E+00 0.11181910E+04</pdfrwt>
<pdfrwt beam="2">  1       -2 0.69467705E-01 0.11181910E+04</pdfrwt>
<totfact> 0.45664727E+01</totfact>
</mgrwt>
</event>
<event>
12    5  0.5041746E-008  0.1456849E+04  0.7818608E-02  0.8913666E-01
          1   -1    0    0  501    0  0.00000000000E+00  0.00000000000E+00  0.18367331486E+04  0.18367331486E+04  0.00000000000E+00 0. -1.
         -2   -1    0    0    0  501 -0.00000000000E+00 -0.00000000000E+00 -0.28888387549E+03  0.28888387549E+03  0.00000000000E+00 0.  1.
        -24    2    1    2    0    0  0.34678371472E+03  0.26803695990E+03  0.40230002151E+03  0.59975191428E+03  0.75857067642E+02 0.  0.
        254    2    1    2    0    0 -0.34678371472E+03 -0.26803695990E+03  0.11455492516E+04  0.15258651098E+04  0.90767752469E+03 0.  0.
         23    2    4    4    0    0 -0.56534993505E+03 -0.39146855266E+02  0.10250651500E+04  0.11752386979E+04  0.96303738700E+02 0.  0.
         23    2    4    4    0    0  0.21856622032E+03 -0.22889010463E+03  0.12048410167E+03  0.35062641192E+03  0.90887784176E+02 0.  0.
          3    1    3    3  502    0  0.26177515063E+03  0.23955950534E+03  0.33004216628E+03  0.48460583736E+03  0.00000000000E+00 0. -1.
         -4    1    3    3    0  502  0.85008564090E+02  0.28477454558E+02  0.72257855232E+02  0.11514607692E+03  0.00000000000E+00 0.  1.
         13    1    5    5    0    0 -0.70228540722E+02  0.11537836738E+02  0.79627208600E+02  0.10679729378E+03  0.00000000000E+00 0. -1.
        -13    1    5    5    0    0 -0.49512139432E+03 -0.50684692004E+02  0.94543794136E+03  0.10684414041E+04  0.00000000000E+00 0.  1.
          3    1    6    6  503    0  0.56136995511E+02 -0.78161469953E+02  0.80489015186E+02  0.12545540728E+03  0.00000000000E+00 0. -1.
         -3    1    6    6    0  503  0.16242922481E+03 -0.15072863468E+03  0.39995086482E+02  0.22517100464E+03  0.00000000000E+00 0.  1.
<mgrwt>
<rscale>  0 0.14568495E+04</rscale>
<asrwt>0</asrwt>
<pdfrwt beam="1">  1        1 0.28257432E+00 0.14568495E+04</pdfrwt>
<pdfrwt beam="2">  1       -2 0.44443674E-01 0.14568495E+04</pdfrwt>
<totfact> 0.15740758E+01</totfact>
</mgrwt>
</event>
<event>
12    5  0.5041746E-008  0.1340518E+04  0.7818608E-02  0.8998037E-01
          1   -1    0    0  501    0  0.00000000000E+00  0.00000000000E+00  0.61363521974E+03  0.61363521974E+03  0.00000000000E+00 0. -1.
         -2   -1    0    0    0  501 -0.00000000000E+00 -0.00000000000E+00 -0.73210732767E+03  0.73210732767E+03  0.00000000000E+00 0.  1.
        -24    2    1    2    0    0 -0.28264191112E+03  0.12820479730E+03  0.14398415502E+03  0.35117577741E+03  0.79183772143E+02 0.  0.
        254    2    1    2    0    0  0.28264191112E+03 -0.12820479730E+03 -0.26245626295E+03  0.99456677000E+03  0.90772068945E+03 0.  0.
         23    2    4    4    0    0  0.36429993252E+03 -0.46291236002E+03 -0.22235744430E+03  0.63597088331E+03  0.89520039609E+02 0.  0.
         23    2    4    4    0    0 -0.81658021399E+02  0.33470756272E+03 -0.40098818654E+02  0.35859588669E+03  0.91026972332E+02 0.  0.
          1    1    3    3  502    0 -0.22824940972E+03  0.10722339296E+03  0.14858081058E+03  0.29269592806E+03  0.00000000000E+00 0. -1.
         -2    1    3    3    0  502 -0.54392501403E+02  0.20981404336E+02 -0.45966555613E+01  0.58479849343E+02  0.00000000000E+00 0.  1.
         13    1    5    5    0    0  0.16419536197E+02 -0.10915799746E+02 -0.26248184626E+02  0.32828692469E+02  0.00000000000E+00 0. -1.
        -13    1    5    5    0    0  0.34788039632E+03 -0.45199656028E+03 -0.19610925967E+03  0.60314219084E+03  0.00000000000E+00 0.  1.
          2    1    6    6  503    0  0.95641740805E+01  0.42529892446E+00  0.11555228614E+01  0.96431083215E+01  0.00000000000E+00 0. -1.
         -2    1    6    6    0  503 -0.91222195480E+02  0.33428226380E+03 -0.41254341515E+02  0.34895277837E+03  0.00000000000E+00 0.  1.
<mgrwt>
<rscale>  0 0.13405176E+04</rscale>
<asrwt>0</asrwt>
<pdfrwt beam="1">  1        1 0.94405419E-01 0.13405176E+04</pdfrwt>
<pdfrwt beam="2">  1       -2 0.11263190E+00 0.13405176E+04</pdfrwt>
<totfact> 0.17626283E+01</totfact>
</mgrwt>
</event>
<event>
12    5  0.5041746E-008  0.2657390E+04  0.7818608E-02  0.8348964E-01
          1   -1    0    0  501    0  0.00000000000E+00  0.00000000000E+00  0.20466441932E+04  0.20466441932E+04  0.00000000000E+00 0. -1.
         -2   -1    0    0    0  501 -0.00000000000E+00 -0.00000000000E+00 -0.86259744994E+03  0.86259744994E+03  0.00000000000E+00 0.  1.
        -24    2    1    2    0    0  0.89538847726E+03 -0.71145371065E+03  0.23974532157E+03  0.11709663912E+04  0.76141727030E+02 0.  0.
        254    2    1    2    0    0 -0.89538847726E+03  0.71145371065E+03  0.94430142165E+03  0.17382752519E+04  0.90664699231E+03 0.  0.
         23    2    4    4    0    0 -0.29868037827E+03  0.78211284966E+03  0.45191554366E+03  0.95578540549E+03  0.91583867437E+02 0.  0.
         23    2    4    4    0    0 -0.59670809900E+03 -0.70659139003E+02  0.49238587799E+03  0.78248984637E+03  0.93772264018E+02 0.  0.
          1    1    3    3  502    0  0.87799952793E+02 -0.88561531176E+02  0.45409353103E+02  0.13271769235E+03  0.00000000000E+00 0. -1.
         -2    1    3    3    0  502  0.80758852447E+03 -0.62289217948E+03  0.19433596847E+03  0.10382486989E+04  0.00000000000E+00 0.  1.
         13    1    5    5    0    0 -0.18408417500E+03  0.58570186269E+03  0.34865344392E+03  0.70604028171E+03  0.00000000000E+00 0.  1.
        -13    1    5    5    0    0 -0.11459620327E+03  0.19641098697E+03  0.10326209974E+03  0.24974512377E+03  0.00000000000E+00 0. -1.
          4    1    6    6  503    0 -0.55177053754E+02 -0.34900255453E+02  0.58380513680E+02  0.87583214540E+02  0.00000000000E+00 0. -1.
         -4    1    6    6    0  503 -0.54153104524E+03 -0.35758883550E+02  0.43400536431E+03  0.69490663183E+03  0.00000000000E+00 0.  1.
<mgrwt>
<rscale>  0 0.26573897E+04</rscale>
<asrwt>0</asrwt>
<pdfrwt beam="1">  1        1 0.31486834E+00 0.26573897E+04</pdfrwt>
<pdfrwt beam="2">  1       -2 0.13270730E+00 0.26573897E+04</pdfrwt>
<totfact> 0.87947809E-01</totfact>
</mgrwt>
</event>
<event>
12    5  0.5041746E-008  0.2296514E+04  0.7818608E-02  0.8479297E-01
         -2   -1    0    0    0  501 -0.00000000000E+00  0.00000000000E+00  0.73428396055E+03  0.73428396055E+03  0.00000000000E+00 0.  1.
          1   -1    0    0  501    0  0.00000000000E+00 -0.00000000000E+00 -0.17956194354E+04  0.17956194354E+04  0.00000000000E+00 0. -1.
        -24    2    1    2    0    0  0.56595552844E+03  0.17403689556E+03 -0.12969154333E+04  0.14277804999E+04  0.77285274691E+02 0.  0.
        254    2    1    2    0    0 -0.56595552844E+03 -0.17403689556E+03  0.23557995848E+03  0.11021228960E+04  0.89921213282E+03 0.  0.
         23    2    4    4    0    0 -0.19145321418E+03  0.33783904451E+03 -0.47295009926E+02  0.40178239271E+03  0.91666351042E+02 0.  0.
         23    2    4    4    0    0 -0.37450231426E+03 -0.51187594008E+03  0.28287496841E+03  0.70034050327E+03  0.90496471476E+02 0.  0.
          3    1    3    3  502    0  0.31867584702E+03  0.73234630258E+02 -0.78566085958E+03  0.85098800980E+03  0.00000000000E+00 0. -1.
         -4    1    3    3    0  502  0.24727968142E+03  0.10080226530E+03 -0.51125457372E+03  0.57679249014E+03  0.00000000000E+00 0.  1.
         13    1    5    5    0    0 -0.56922245015E+02  0.13654657290E+03 -0.59290929607E+02  0.15937541492E+03  0.00000000000E+00 0. -1.
        -13    1    5    5    0    0 -0.13453096916E+03  0.20129247162E+03  0.11995919681E+02  0.24240697779E+03  0.00000000000E+00 0.  1.
          1    1    6    6  503    0 -0.35575396908E+03 -0.50992733001E+03  0.27290513925E+03  0.67901692426E+03  0.00000000000E+00 0. -1.
         -1    1    6    6    0  503 -0.18748345181E+02 -0.19486100699E+01  0.99698291573E+01  0.21323579006E+02  0.00000000000E+00 0.  1.
<mgrwt>
<rscale>  0 0.22965144E+04</rscale>
<asrwt>0</asrwt>
<pdfrwt beam="1">  1        1 0.27624914E+00 0.22965144E+04</pdfrwt>
<pdfrwt beam="2">  1       -2 0.11296676E+00 0.22965144E+04</pdfrwt>
<totfact> 0.20063368E+00</totfact>
</mgrwt>
</event>
<event>
12    5  0.5041746E-008  0.1796653E+04  0.7818608E-02  0.8708081E-01
          1   -1    0    0  501    0  0.00000000000E+00  0.00000000000E+00  0.72577662679E+03  0.72577662679E+03  0.00000000000E+00 0. -1.
         -2   -1    0    0    0  501 -0.00000000000E+00 -0.00000000000E+00 -0.11118991804E+04  0.11118991804E+04  0.00000000000E+00 0.  1.
        -24    2    1    2    0    0  0.16175771285E+03  0.34526106158E+03  0.41680210941E+03  0.57053551770E+03  0.80100063926E+02 0.  0.
        254    2    1    2    0    0 -0.16175771285E+03 -0.34526106158E+03 -0.80292466305E+03  0.12671402895E+04  0.90309785765E+03 0.  0.
         23    2    4    4    0    0 -0.20528798621E+03 -0.49076134778E+03 -0.10883853442E+03  0.55074843124E+03  0.92131157467E+02 0.  0.
         23    2    4    4    0    0  0.43530273366E+02  0.14550028620E+03 -0.69408612863E+03  0.71639185828E+03  0.91632541600E+02 0.  0.
          3    1    3    3  502    0  0.11832235978E+03  0.19386597181E+03  0.20045883232E+03  0.30293223550E+03  0.00000000000E+00 0. -1.
         -4    1    3    3    0  502  0.43435353065E+02  0.15139508977E+03  0.21634327709E+03  0.26760328220E+03  0.00000000000E+00 0.  1.
         13    1    5    5    0    0 -0.11609332202E+03 -0.20003716459E+03 -0.11971478067E+02  0.23159413404E+03  0.00000000000E+00 0.  1.
        -13    1    5    5    0    0 -0.89194664195E+02 -0.29072418319E+03 -0.96867056355E+02  0.31915429720E+03  0.00000000000E+00 0. -1.
          3    1    6    6  503    0  0.10002582398E+02  0.96625991485E+02 -0.24735761055E+03  0.26574879375E+03  0.00000000000E+00 0. -1.
         -3    1    6    6    0  503  0.33527690968E+02  0.48874294717E+02 -0.44672851808E+03  0.45064306453E+03  0.00000000000E+00 0.  1.
<mgrwt>
<rscale>  0 0.17966529E+04</rscale>
<asrwt>0</asrwt>
<pdfrwt beam="1">  1        1 0.11165794E+00 0.17966529E+04</pdfrwt>
<pdfrwt beam="2">  1       -2 0.17106141E+00 0.17966529E+04</pdfrwt>
<totfact> 0.44602281E+00</totfact>
</mgrwt>
</event>
<event>
12    5  0.5041746E-008  0.1406444E+04  0.7818608E-02  0.8949168E-01
         -2   -1    0    0    0  501 -0.00000000000E+00  0.00000000000E+00  0.84832162403E+03  0.84832162403E+03  0.00000000000E+00 0.  1.
          1   -1    0    0  501    0  0.00000000000E+00 -0.00000000000E+00 -0.58294032513E+03  0.58294032513E+03  0.00000000000E+00 0. -1.
        -24    2    1    2    0    0 -0.38104603066E+03  0.14284719364E+03  0.82416111866E+02  0.42008788557E+03  0.63875017753E+02 0.  0.
        254    2    1    2    0    0  0.38104603066E+03 -0.14284719364E+03  0.18296518703E+03  0.10111740636E+04  0.90741133396E+03 0.  0.
         23    2    4    4    0    0  0.53419290957E+03  0.21690078391E+03  0.41688771088E+02  0.58568644622E+03  0.94247784852E+02 0.  0.
         23    2    4    4    0    0 -0.15314687891E+03 -0.35974797755E+03  0.14127641594E+03  0.42548761737E+03  0.90598636678E+02 0.  0.
          3    1    3    3  502    0 -0.22544665989E+03  0.67342803283E+02  0.75091592510E+02  0.24698177438E+03  0.00000000000E+00 0. -1.
         -4    1    3    3    0  502 -0.15559937077E+03  0.75504390354E+02  0.73245193560E+01  0.17310611119E+03  0.00000000000E+00 0.  1.
         13    1    5    5    0    0  0.32478317502E+03  0.13234853198E+03  0.71391348562E+02  0.35790636951E+03  0.00000000000E+00 0. -1.
        -13    1    5    5    0    0  0.20940973456E+03  0.84552251932E+02 -0.29702577473E+02  0.22778007670E+03  0.00000000000E+00 0.  1.
          3    1    6    6  503    0  0.97067946291E+01 -0.65201788651E+01  0.87817255252E-01  0.11693686599E+02  0.00000000000E+00 0. -1.
         -3    1    6    6    0  503 -0.16285367354E+03 -0.35322779868E+03  0.14118859869E+03  0.41379393077E+03  0.00000000000E+00 0.  1.
<mgrwt>
<rscale>  0 0.14064436E+04</rscale>
<asrwt>0</asrwt>
<pdfrwt beam="1">  1        1 0.89683127E-01 0.14064436E+04</pdfrwt>
<pdfrwt beam="2">  1       -2 0.13051102E+00 0.14064436E+04</pdfrwt>
<totfact> 0.13086046E+01</totfact>
</mgrwt>
</event>
<event>
12    5  0.5041746E-008  0.1379727E+04  0.7818608E-02  0.8968625E-01
         -2   -1    0    0    0  501 -0.00000000000E+00  0.00000000000E+00  0.34858644124E+03  0.34858644124E+03  0.00000000000E+00 0.  1.
          1   -1    0    0  501    0  0.00000000000E+00 -0.00000000000E+00 -0.13652621088E+04  0.13652621088E+04  0.00000000000E+00 0. -1.
        -24    2    1    2    0    0  0.12001277767E+03 -0.33636109625E+03 -0.87675738913E+02  0.37578619265E+03  0.77371658393E+02 0.  0.
        254    2    1    2    0    0 -0.12001277767E+03  0.33636109625E+03 -0.92899992864E+03  0.13380623574E+04  0.89433111930E+03 0.  0.
         23    2    4    4    0    0  0.17295904504E+03  0.52962044505E+03 -0.73612738670E+03  0.92744353871E+03  0.88630361398E+02 0.  0.
         23    2    4    4    0    0 -0.29297182271E+03 -0.19325934880E+03 -0.19287254194E+03  0.41061881867E+03  0.90699129070E+02 0.  0.
          1    1    3    3  502    0  0.20225007020E+02 -0.50128745080E+02 -0.43648543604E+02  0.69477603233E+02  0.00000000000E+00 0. -1.
         -2    1    3    3    0  502  0.99787770646E+02 -0.28623235117E+03 -0.44027195309E+02  0.30630858942E+03  0.00000000000E+00 0.  1.
         13    1    5    5    0    0  0.12076652678E+03  0.46721153999E+03 -0.63898992571E+03  0.80073672468E+03  0.00000000000E+00 0. -1.
        -13    1    5    5    0    0  0.52192518265E+02  0.62408905061E+02 -0.97137460995E+02  0.12670681403E+03  0.00000000000E+00 0.  1.
          3    1    6    6  503    0 -0.29396831494E+03 -0.17984573450E+03 -0.17044000809E+03  0.38446281324E+03  0.00000000000E+00 0. -1.
         -3    1    6    6    0  503  0.99649223106E+00 -0.13413614300E+02 -0.22432533847E+02  0.26156005432E+02  0.00000000000E+00 0.  1.
<mgrwt>
<rscale>  0 0.13797273E+04</rscale>
<asrwt>0</asrwt>
<pdfrwt beam="1">  1        1 0.21004033E+00 0.13797273E+04</pdfrwt>
<pdfrwt beam="2">  1       -2 0.53628683E-01 0.13797273E+04</pdfrwt>
<totfact> 0.22815819E+01</totfact>
</mgrwt>
</event>
<event>
12    5  0.5041746E-008  0.1404352E+04  0.7818608E-02  0.8950674E-01
         -2   -1    0    0    0  501 -0.00000000000E+00  0.00000000000E+00  0.36518637179E+03  0.36518637179E+03  0.00000000000E+00 0.  1.
          1   -1    0    0  501    0  0.00000000000E+00 -0.00000000000E+00 -0.13501360498E+04  0.13501360498E+04  0.00000000000E+00 0. -1.
        -24    2    1    2    0    0  0.28588470533E+03  0.17526870048E+03 -0.57494822439E+03  0.67174045220E+03  0.90667481934E+02 0.  0.
        254    2    1    2    0    0 -0.28588470533E+03 -0.17526870048E+03 -0.41000145361E+03  0.10435819694E+04  0.89917348311E+03 0.  0.
         23    2    4    4    0    0 -0.34847420403E+03 -0.48687552051E+03 -0.37054369935E+03  0.71047441684E+03  0.94811499897E+02 0.  0.
         23    2    4    4    0    0  0.62589498707E+02  0.31160682002E+03 -0.39457754254E+02  0.33310755253E+03  0.91583140075E+02 0.  0.
          1    1    3    3  502    0  0.22405006726E+03  0.16451926678E+03 -0.41082720560E+03  0.49602823977E+03  0.00000000000E+00 0. -1.
         -2    1    3    3    0  502  0.61834638066E+02  0.10749433700E+02 -0.16412101879E+03  0.17571221243E+03  0.00000000000E+00 0.  1.
         13    1    5    5    0    0 -0.26547859237E+03 -0.36191857742E+03 -0.32344643546E+03  0.55324636131E+03  0.00000000000E+00 0. -1.
        -13    1    5    5    0    0 -0.82995611668E+02 -0.12495694309E+03 -0.47097263891E+02  0.15722805554E+03  0.00000000000E+00 0.  1.
          1    1    6    6  503    0  0.66182191980E+02  0.21482468358E+03  0.86789406217E+01  0.22495566501E+03  0.00000000000E+00 0. -1.
         -1    1    6    6    0  503 -0.35926932730E+01  0.96782136444E+02 -0.48136694876E+02  0.10815188752E+03  0.00000000000E+00 0.  1.
<mgrwt>
<rscale>  0 0.14043522E+04</rscale>
<asrwt>0</asrwt>
<pdfrwt beam="1">  1        1 0.20771323E+00 0.14043522E+04</pdfrwt>
<pdfrwt beam="2">  1       -2 0.56182520E-01 0.14043522E+04</pdfrwt>
<totfact> 0.21187025E+01</totfact>
</mgrwt>
</event>
<event>
12    5  0.5041746E-008  0.1551482E+04  0.7818608E-02  0.8850922E-01
          3   -1    0    0  501    0  0.00000000000E+00  0.00000000000E+00  0.20394192067E+04  0.20394192067E+04  0.00000000000E+00 0. -1.
         -4   -1    0    0    0  501 -0.00000000000E+00 -0.00000000000E+00 -0.29507117097E+03  0.29507117097E+03  0.00000000000E+00 0.  1.
        -24    2    1    2    0    0  0.28788042240E+03 -0.37317887985E+03  0.88281836765E+03  0.10039232603E+04  0.79724704015E+02 0.  0.
        254    2    1    2    0    0 -0.28788042240E+03  0.37317887985E+03  0.86152966809E+03  0.13305671173E+04  0.89779611871E+03 0.  0.
         23    2    4    4    0    0  0.64522477585E+02 -0.24745079906E+03  0.11865718032E+03  0.29626346940E+03  0.91090442929E+02 0.  0.
         23    2    4    4    0    0 -0.35240289999E+03  0.62062967891E+03  0.74287248777E+03  0.10343036479E+04  0.92495950098E+02 0.  0.
          1    1    3    3  502    0  0.10286069180E+03 -0.14025076504E+03  0.40929164178E+03  0.44471366860E+03  0.00000000000E+00 0. -1.
         -2    1    3    3    0  502  0.18501973060E+03 -0.23292811481E+03  0.47352672588E+03  0.55920959175E+03  0.00000000000E+00 0.  1.
         13    1    5    5    0    0  0.34561115914E+02 -0.34243180903E+02 -0.33975437939E+01  0.48770990101E+02  0.00000000000E+00 0. -1.
        -13    1    5    5    0    0  0.29961361671E+02 -0.21320761816E+03  0.12205472411E+03  0.24749247930E+03  0.00000000000E+00 0.  1.
          4    1    6    6  503    0 -0.15530963073E+01  0.81448770982E+01 -0.15542271998E+01  0.84360389564E+01  0.00000000000E+00 0. -1.
         -4    1    6    6    0  503 -0.35084980368E+03  0.61248480181E+03  0.74442671497E+03  0.10258676090E+04  0.00000000000E+00 0.  1.
<mgrwt>
<rscale>  0 0.15514816E+04</rscale>
<asrwt>0</asrwt>
<pdfrwt beam="1">  1        3 0.31375679E+00 0.15514816E+04</pdfrwt>
<pdfrwt beam="2">  1       -4 0.45395566E-01 0.15514816E+04</pdfrwt>
<totfact> 0.33982067E-01</totfact>
</mgrwt>
</event>
<event>
12    5  0.5041746E-008  0.1762519E+04  0.7818608E-02  0.8726489E-01
          1   -1    0    0  501    0  0.00000000000E+00  0.00000000000E+00  0.23926689382E+04  0.23926689382E+04  0.00000000000E+00 0. -1.
         -2   -1    0    0    0  501 -0.00000000000E+00 -0.00000000000E+00 -0.32458231846E+03  0.32458231846E+03  0.00000000000E+00 0.  1.
        -24    2    1    2    0    0  0.47859425431E+03  0.43863356346E+03  0.74607425215E+03  0.99202453397E+03  0.77678974203E+02 0.  0.
        254    2    1    2    0    0 -0.47859425431E+03 -0.43863356346E+03  0.13220123676E+04  0.17252267227E+04  0.89846462443E+03 0.  0.
         23    2    4    4    0    0 -0.14652713754E+03 -0.27117758814E+03 -0.27335578119E+02  0.32264210146E+03  0.91341148733E+02 0.  0.
         23    2    4    4    0    0 -0.33206711677E+03 -0.16745597531E+03  0.13493479457E+04  0.14025846212E+04  0.90518878740E+02 0.  0.
          1    1    3    3  502    0  0.22341683424E+03  0.19980227218E+03  0.40333002638E+03  0.50250486562E+03  0.00000000000E+00 0. -1.
         -2    1    3    3    0  502  0.25517742007E+03  0.23883129128E+03  0.34274422577E+03  0.48951966835E+03  0.00000000000E+00 0.  1.
         13    1    5    5    0    0 -0.98578152328E+02 -0.24692044167E+03 -0.95600025421E+01  0.26604276025E+03  0.00000000000E+00 0. -1.
        -13    1    5    5    0    0 -0.47948985214E+02 -0.24257146475E+02 -0.17775575577E+02  0.56599341209E+02  0.00000000000E+00 0.  1.
          3    1    6    6  503    0 -0.15836594724E+03 -0.88909864452E+02  0.82235371803E+03  0.84217003913E+03  0.00000000000E+00 0.  1.
         -3    1    6    6    0  503 -0.17370116952E+03 -0.78546110859E+02  0.52699422768E+03  0.56041458211E+03  0.00000000000E+00 0. -1.
<mgrwt>
<rscale>  0 0.17625187E+04</rscale>
<asrwt>0</asrwt>
<pdfrwt beam="1">  1        1 0.36810290E+00 0.17625187E+04</pdfrwt>
<pdfrwt beam="2">  1       -2 0.49935743E-01 0.17625187E+04</pdfrwt>
<totfact> 0.50745131E+00</totfact>
</mgrwt>
</event>
<event>
12    5  0.5041746E-008  0.2325357E+04  0.7818608E-02  0.8467990E-01
          1   -1    0    0  501    0  0.00000000000E+00  0.00000000000E+00  0.25388314831E+04  0.25388314831E+04  0.00000000000E+00 0. -1.
         -2   -1    0    0    0  501 -0.00000000000E+00 -0.00000000000E+00 -0.53245821150E+03  0.53245821150E+03  0.00000000000E+00 0.  1.
        -24    2    1    2    0    0  0.25946126700E+03 -0.87581719998E+03  0.10983973107E+04  0.14309293918E+04  0.81892339706E+02 0.  0.
        254    2    1    2    0    0 -0.25946126700E+03  0.87581719998E+03  0.90797596085E+03  0.16403603028E+04  0.10158669502E+04 0.  0.
         23    2    4    4    0    0  0.19608695482E+02  0.87186565270E+03  0.10016369570E+04  0.13311797883E+04  0.90712832261E+02 0.  0.
         23    2    4    4    0    0 -0.27906996248E+03  0.39515472742E+01 -0.93660996161E+02  0.30918051442E+03  0.94469834413E+02 0.  0.
          1    1    3    3  502    0  0.10200289602E+03 -0.33618544109E+03  0.48552832849E+03  0.59930209358E+03  0.00000000000E+00 0. -1.
         -2    1    3    3    0  502  0.15745837098E+03 -0.53963175888E+03  0.61286898223E+03  0.83162729823E+03  0.00000000000E+00 0.  1.
         13    1    5    5    0    0 -0.52271760703E+01  0.20842772586E+03  0.29887469951E+03  0.36441120494E+03  0.00000000000E+00 0.  1.
        -13    1    5    5    0    0  0.24835871552E+02  0.66343792684E+03  0.70276225750E+03  0.96676858340E+03  0.00000000000E+00 0. -1.
          1    1    6    6  503    0 -0.27162990009E+03 -0.11965754543E+01 -0.10792624665E+03  0.29228805849E+03  0.00000000000E+00 0. -1.
         -1    1    6    6    0  503 -0.74400623850E+01  0.51481227285E+01  0.14265250493E+02  0.16892455936E+02  0.00000000000E+00 0.  1.
<mgrwt>
<rscale>  0 0.23253573E+04</rscale>
<asrwt>0</asrwt>
<pdfrwt beam="1">  1        1 0.39058945E+00 0.23253573E+04</pdfrwt>
<pdfrwt beam="2">  1       -2 0.81916649E-01 0.23253573E+04</pdfrwt>
<totfact> 0.13223033E+00</totfact>
</mgrwt>
</event>
<event>
12    5  0.1010727E-007  0.1563206E+04  0.7818608E-02  0.8843476E-01
          1   -1    0    0  501    0  0.00000000000E+00  0.00000000000E+00  0.69530428069E+03  0.69530428069E+03  0.00000000000E+00 0. -1.
         -2   -1    0    0    0  501 -0.00000000000E+00 -0.00000000000E+00 -0.87861274371E+03  0.87861274371E+03  0.00000000000E+00 0.  1.
        -24    2    1    2    0    0 -0.59207328470E+02 -0.40973115244E+03  0.25989343510E+03  0.49522172757E+03  0.79465947602E+02 0.  0.
        254    2    1    2    0    0  0.59207328470E+02  0.40973115244E+03 -0.44320189812E+03  0.10786952968E+04  0.89205969300E+03 0.  0.
         23    2    4    4    0    0  0.25292980515E+03  0.64270238591E+02  0.18309507392E+03  0.33165124126E+03  0.91458131574E+02 0.  0.
         23    2    4    4    0    0 -0.19372247668E+03  0.34546091385E+03 -0.62629697204E+03  0.74704405557E+03  0.94632355992E+02 0.  0.
          1    1    3    3  502    0 -0.38457960462E+02 -0.32431522543E+03  0.16510441187E+03  0.36594924100E+03  0.00000000000E+00 0. -1.
         -2    1    3    3    0  502 -0.20749368008E+02 -0.85415927004E+02  0.94789023235E+02  0.12927248657E+03  0.00000000000E+00 0.  1.
         13    1    5    5    0    0  0.23493048911E+03  0.61096890911E+02  0.19366865741E+03  0.31053617125E+03  0.00000000000E+00 0. -1.
        -13    1    5    5    0    0  0.17999316048E+02  0.31733476797E+01 -0.10573583491E+02  0.21115070010E+02  0.00000000000E+00 0.  1.
          3    1    6    6  503    0 -0.16588700916E+03  0.32361461118E+03 -0.60459243003E+03  0.70553307706E+03  0.00000000000E+00 0. -1.
         -3    1    6    6    0  503 -0.27835467527E+02  0.21846302668E+02 -0.21704542012E+02  0.41510978507E+02  0.00000000000E+00 0.  1.
<mgrwt>
<rscale>  0 0.15632059E+04</rscale>
<asrwt>0</asrwt>
<pdfrwt beam="1">  1        1 0.10696989E+00 0.15632059E+04</pdfrwt>
<pdfrwt beam="2">  1       -2 0.13517119E+00 0.15632059E+04</pdfrwt>
<totfact> 0.91171419E+00</totfact>
</mgrwt>
</event>
<event>
12    5  0.5041746E-008  0.3008088E+04  0.7818608E-02  0.8241425E-01
          1   -1    0    0  501    0  0.00000000000E+00  0.00000000000E+00  0.95984053629E+03  0.95984053629E+03  0.00000000000E+00 0. -1.
         -2   -1    0    0    0  501 -0.00000000000E+00 -0.00000000000E+00 -0.23567965082E+04  0.23567965082E+04  0.00000000000E+00 0.  1.
        -24    2    1    2    0    0 -0.23147542311E+03 -0.36394189926E+03  0.79370554918E+03  0.90685625542E+03  0.79907394203E+02 0.  0.
        254    2    1    2    0    0  0.23147542311E+03  0.36394189926E+03 -0.21906615211E+04  0.24097807891E+04  0.90664820840E+03 0.  0.
         23    2    4    4    0    0 -0.28110335749E+03  0.36359837380E+03 -0.12449142112E+04  0.13302157846E+04  0.91868195353E+02 0.  0.
         23    2    4    4    0    0  0.51257878060E+03  0.34352546212E+00 -0.94574730984E+03  0.10795650044E+04  0.91024723871E+02 0.  0.
          1    1    3    3  502    0 -0.18477605956E+03 -0.33032323209E+03  0.71923497246E+03  0.81274508639E+03  0.00000000000E+00 0. -1.
         -2    1    3    3    0  502 -0.46699363551E+02 -0.33618667171E+02  0.74470576726E+02  0.94111169030E+02  0.00000000000E+00 0.  1.
         13    1    5    5    0    0 -0.21758126384E+03  0.21986646022E+03 -0.88466851853E+03  0.93718795041E+03  0.00000000000E+00 0.  1.
        -13    1    5    5    0    0 -0.63522093649E+02  0.14373191358E+03 -0.36024569272E+03  0.39302783423E+03  0.00000000000E+00 0. -1.
          1    1    6    6  503    0  0.37855311341E+03 -0.36992008770E+02 -0.66025258254E+03  0.76197397668E+03  0.00000000000E+00 0. -1.
         -1    1    6    6    0  503  0.13402566719E+03  0.37335534232E+02 -0.28549472730E+03  0.31759102774E+03  0.00000000000E+00 0.  1.
<mgrwt>
<rscale>  0 0.30080883E+04</rscale>
<asrwt>0</asrwt>
<pdfrwt beam="1">  1        1 0.14766778E+00 0.30080883E+04</pdfrwt>
<pdfrwt beam="2">  1       -2 0.36258407E+00 0.30080883E+04</pdfrwt>
<totfact> 0.15721473E-01</totfact>
</mgrwt>
</event>
<event>
12    5  0.5041746E-008  0.1592157E+04  0.7818608E-02  0.8825381E-01
         -2   -1    0    0    0  501 -0.00000000000E+00  0.00000000000E+00  0.85278605455E+03  0.85278605455E+03  0.00000000000E+00 0.  1.
          1   -1    0    0  501    0  0.00000000000E+00 -0.00000000000E+00 -0.74314212044E+03  0.74314212044E+03  0.00000000000E+00 0. -1.
        -24    2    1    2    0    0  0.31488968020E+03  0.33025177874E+03 -0.26213300310E+03  0.53219309617E+03  0.79334937048E+02 0.  0.
        254    2    1    2    0    0 -0.31488968020E+03 -0.33025177874E+03  0.37177693721E+03  0.10637350788E+04  0.88605444462E+03 0.  0.
         23    2    4    4    0    0 -0.86467888592E+02 -0.56929978280E+03  0.41845343524E+03  0.71762883135E+03  0.91153297655E+02 0.  0.
         23    2    4    4    0    0 -0.22842179161E+03  0.23904800406E+03 -0.46676498027E+02  0.34610624747E+03  0.91051501611E+02 0.  0.
          3    1    3    3  502    0  0.30966735031E+03  0.31372098704E+03 -0.23379730532E+03  0.49897485461E+03  0.00000000000E+00 0. -1.
         -4    1    3    3    0  502  0.52223298951E+01  0.16530791706E+02 -0.28335697781E+02  0.33218241565E+02  0.00000000000E+00 0.  1.
         13    1    5    5    0    0  0.10746403782E+02 -0.18777941739E+02  0.47231735603E+01  0.22145082043E+02  0.00000000000E+00 0.  1.
        -13    1    5    5    0    0 -0.97214292375E+02 -0.55052184106E+03  0.41373026168E+03  0.69548374931E+03  0.00000000000E+00 0. -1.
          1    1    6    6  503    0 -0.20749876242E+03  0.23257287573E+03 -0.63995110395E+02  0.31818430679E+03  0.00000000000E+00 0. -1.
         -1    1    6    6    0  503 -0.20923029184E+02  0.64751283280E+01  0.17318612368E+02  0.27921940682E+02  0.00000000000E+00 0.  1.
<mgrwt>
<rscale>  0 0.15921573E+04</rscale>
<asrwt>0</asrwt>
<pdfrwt beam="1">  1        1 0.11432956E+00 0.15921573E+04</pdfrwt>
<pdfrwt beam="2">  1       -2 0.13119785E+00 0.15921573E+04</pdfrwt>
<totfact> 0.88622718E+00</totfact>
</mgrwt>
</event>
<event>
12    5  0.5041746E-008  0.2559158E+04  0.7818608E-02  0.8382208E-01
          1   -1    0    0  501    0  0.00000000000E+00  0.00000000000E+00  0.27688808473E+04  0.27688808473E+04  0.00000000000E+00 0. -1.
         -2   -1    0    0    0  501 -0.00000000000E+00 -0.00000000000E+00 -0.59133018206E+03  0.59133018206E+03  0.00000000000E+00 0.  1.
        -24    2    1    2    0    0  0.10183552810E+04 -0.30613052616E+03  0.14271084760E+04  0.17815259693E+04  0.80204737200E+02 0.  0.
        254    2    1    2    0    0 -0.10183552810E+04  0.30613052616E+03  0.75044218932E+03  0.15786850601E+04  0.89348735980E+03 0.  0.
         23    2    4    4    0    0 -0.26555910209E+03  0.76010148119E+02 -0.19065833556E+03  0.34838221337E+03  0.93383008934E+02 0.  0.
         23    2    4    4    0    0 -0.75279617888E+03  0.23012037804E+03  0.94110052487E+03  0.12303028467E+04  0.91199898063E+02 0.  0.
          1    1    3    3  502    0  0.81019627406E+03 -0.25104018801E+03  0.11884575757E+04  0.14600926641E+04  0.00000000000E+00 0. -1.
         -2    1    3    3    0  502  0.20815900690E+03 -0.55090338150E+02  0.23865090030E+03  0.32143330525E+03  0.00000000000E+00 0.  1.
         13    1    5    5    0    0 -0.25701470672E+03  0.90188220092E+02 -0.16697019146E+03  0.31948320668E+03  0.00000000000E+00 0.  1.
        -13    1    5    5    0    0 -0.85443953690E+01 -0.14178071974E+02 -0.23688144096E+02  0.28899006693E+02  0.00000000000E+00 0. -1.
          3    1    6    6  503    0 -0.16899645542E+03  0.44421748391E+02  0.27021976338E+03  0.32179467708E+03  0.00000000000E+00 0. -1.
         -3    1    6    6    0  503 -0.58379972345E+03  0.18569862965E+03  0.67088076149E+03  0.90850816963E+03  0.00000000000E+00 0.  1.
<mgrwt>
<rscale>  0 0.25591583E+04</rscale>
<asrwt>0</asrwt>
<pdfrwt beam="1">  1        1 0.42598166E+00 0.25591583E+04</pdfrwt>
<pdfrwt beam="2">  1       -2 0.90973876E-01 0.25591583E+04</pdfrwt>
<totfact> 0.70248760E-01</totfact>
</mgrwt>
</event>
<event>
12    5  0.5041746E-008  0.1683747E+04  0.7818608E-02  0.8770689E-01
         -2   -1    0    0    0  501 -0.00000000000E+00  0.00000000000E+00  0.78125629235E+03  0.78125629235E+03  0.00000000000E+00 0.  1.
          1   -1    0    0  501    0  0.00000000000E+00 -0.00000000000E+00 -0.90719365152E+03  0.90719365152E+03  0.00000000000E+00 0. -1.
        -24    2    1    2    0    0  0.22038818323E+03 -0.91485217867E+01 -0.60222972711E+03  0.64445814329E+03  0.63174421103E+02 0.  0.
        254    2    1    2    0    0 -0.22038818323E+03  0.91485217867E+01  0.47629236793E+03  0.10439918006E+04  0.90244657081E+03 0.  0.
         23    2    4    4    0    0  0.24330176879E+03  0.27975024764E+03  0.23668288718E+03  0.44908273767E+03  0.90556967945E+02 0.  0.
         23    2    4    4    0    0 -0.46368995202E+03 -0.27060172585E+03  0.23960948075E+03  0.59490906291E+03  0.90941872810E+02 0.  0.
          3    1    3    3  502    0  0.16925632246E+03 -0.29102925617E+02 -0.40924926000E+03  0.44382388374E+03  0.00000000000E+00 0. -1.
         -4    1    3    3    0  502  0.51131860775E+02  0.19954403831E+02 -0.19298046711E+03  0.20063425954E+03  0.00000000000E+00 0.  1.
         13    1    5    5    0    0  0.70174904012E+01  0.75556153159E+01  0.34067060402E+02  0.35593497984E+02  0.00000000000E+00 0.  1.
        -13    1    5    5    0    0  0.23628427839E+03  0.27219463232E+03  0.20261582678E+03  0.41348923969E+03  0.00000000000E+00 0. -1.
          3    1    6    6  503    0 -0.18501357874E+03 -0.16029272370E+03  0.10557267523E+03  0.26658839312E+03  0.00000000000E+00 0. -1.
         -3    1    6    6    0  503 -0.27867637328E+03 -0.11030900215E+03  0.13403680552E+03  0.32832066979E+03  0.00000000000E+00 0.  1.
<mgrwt>
<rscale>  0 0.16837467E+04</rscale>
<asrwt>0</asrwt>
<pdfrwt beam="1">  1        1 0.13956825E+00 0.16837467E+04</pdfrwt>
<pdfrwt beam="2">  1       -2 0.12019328E+00 0.16837467E+04</pdfrwt>
<totfact> 0.79275906E+00</totfact>
</mgrwt>
</event>
<event>
12    5  0.5041746E-008  0.1589349E+04  0.7818608E-02  0.8827118E-01
         -2   -1    0    0    0  501 -0.00000000000E+00  0.00000000000E+00  0.69824059151E+03  0.69824059151E+03  0.00000000000E+00 0.  1.
          1   -1    0    0  501    0  0.00000000000E+00 -0.00000000000E+00 -0.90442644073E+03  0.90442644073E+03  0.00000000000E+00 0. -1.
        -24    2    1    2    0    0 -0.12151172290E+03 -0.30699245734E+03 -0.49225201852E+03  0.59800315048E+03  0.79285878819E+02 0.  0.
        254    2    1    2    0    0  0.12151172290E+03  0.30699245734E+03  0.28606616930E+03  0.10046638818E+04  0.90471332169E+03 0.  0.
         23    2    4    4    0    0 -0.33987689280E+03  0.34292568034E+03  0.14234871087E+03  0.51211288043E+03  0.94245012184E+02 0.  0.
         23    2    4    4    0    0  0.46138861570E+03 -0.35933223001E+02  0.14371745843E+03  0.49255100133E+03  0.88210712733E+02 0.  0.
          1    1    3    3  502    0 -0.11936494787E+03 -0.31043124844E+03 -0.49209402725E+03  0.59394619491E+03  0.00000000000E+00 0. -1.
         -2    1    3    3    0  502 -0.21467750221E+01  0.34387911046E+01 -0.15799127104E+00  0.40569555701E+01  0.00000000000E+00 0.  1.
         13    1    5    5    0    0 -0.66150988055E+02  0.53617268401E+02 -0.99042955024E+01  0.85725490730E+02  0.00000000000E+00 0.  1.
        -13    1    5    5    0    0 -0.27372590475E+03  0.28930841194E+03  0.15225300638E+03  0.42638738970E+03  0.00000000000E+00 0. -1.
          4    1    6    6  503    0  0.56348329295E+02 -0.33061784840E+02  0.10591927519E+02  0.66184626309E+02  0.00000000000E+00 0. -1.
         -4    1    6    6    0  503  0.40504028640E+03 -0.28714381617E+01  0.13312553091E+03  0.42636637502E+03  0.00000000000E+00 0.  1.
<mgrwt>
<rscale>  0 0.15893486E+04</rscale>
<asrwt>0</asrwt>
<pdfrwt beam="1">  1        1 0.13914253E+00 0.15893486E+04</pdfrwt>
<pdfrwt beam="2">  1       -2 0.10742163E+00 0.15893486E+04</pdfrwt>
<totfact> 0.10567375E+01</totfact>
</mgrwt>
</event>
<event>
12    5  0.5041746E-008  0.1343123E+04  0.7818608E-02  0.8996050E-01
          1   -1    0    0  501    0  0.00000000000E+00  0.00000000000E+00  0.24058399774E+04  0.24058399774E+04  0.00000000000E+00 0. -1.
         -2   -1    0    0    0  501 -0.00000000000E+00 -0.00000000000E+00 -0.18745844419E+03  0.18745844419E+03  0.00000000000E+00 0.  1.
        -24    2    1    2    0    0 -0.25958378340E+03 -0.89456732024E+02  0.13925575003E+03  0.31814347454E+03  0.80230037797E+02 0.  0.
        254    2    1    2    0    0  0.25958378340E+03  0.89456732024E+02  0.20791257832E+04  0.22751549471E+04  0.88214497862E+03 0.  0.
         23    2    4    4    0    0 -0.12115399717E+03 -0.18093454867E+02 -0.40265500565E+01  0.15270416930E+03  0.91086146456E+02 0.  0.
         23    2    4    4    0    0  0.38073778057E+03  0.10755018689E+03  0.20831523332E+04  0.21224507778E+04  0.93516630980E+02 0.  0.
          1    1    3    3  502    0 -0.73533036730E+01  0.11734627010E+02  0.10698156948E+02  0.17499231642E+02  0.00000000000E+00 0. -1.
         -2    1    3    3    0  502 -0.25223047973E+03 -0.10119135903E+03  0.12855759309E+03  0.30064424290E+03  0.00000000000E+00 0.  1.
         13    1    5    5    0    0 -0.12543007279E+03 -0.22963915709E+02 -0.25702977011E+02  0.13007954340E+03  0.00000000000E+00 0. -1.
        -13    1    5    5    0    0  0.42760756164E+01  0.48704608425E+01  0.21676426955E+02  0.22624625898E+02  0.00000000000E+00 0.  1.
          3    1    6    6  503    0  0.33622804804E+03  0.84081550195E+02  0.16253189509E+04  0.16618606138E+04  0.00000000000E+00 0. -1.
         -3    1    6    6    0  503  0.44509732526E+02  0.23468636695E+02  0.45783338231E+03  0.46059016398E+03  0.00000000000E+00 0.  1.
<mgrwt>
<rscale>  0 0.13431233E+04</rscale>
<asrwt>0</asrwt>
<pdfrwt beam="1">  1        1 0.37012921E+00 0.13431233E+04</pdfrwt>
<pdfrwt beam="2">  1       -2 0.28839762E-01 0.13431233E+04</pdfrwt>
<totfact> 0.14987754E+01</totfact>
</mgrwt>
</event>
<event>
12    5  0.5041746E-008  0.1542293E+04  0.7818608E-02  0.8856805E-01
         -2   -1    0    0    0  501 -0.00000000000E+00  0.00000000000E+00  0.19922984644E+03  0.19922984644E+03  0.00000000000E+00 0.  1.
          1   -1    0    0  501    0  0.00000000000E+00 -0.00000000000E+00 -0.29848299558E+04  0.29848299558E+04  0.00000000000E+00 0. -1.
        -24    2    1    2    0    0 -0.43113038047E+03 -0.33250188496E+02 -0.37644381937E+03  0.57887933099E+03  0.80077154730E+02 0.  0.
        254    2    1    2    0    0  0.43113038047E+03  0.33250188496E+02 -0.24091562900E+04  0.26051804713E+04  0.89216157630E+03 0.  0.
         23    2    4    4    0    0  0.99932057464E+01 -0.14321719751E+03 -0.19290626523E+04  0.19365045651E+04  0.90311595342E+02 0.  0.
         23    2    4    4    0    0  0.42113717472E+03  0.17646738600E+03 -0.48009363773E+03  0.66867590621E+03  0.90223657167E+02 0.  0.
          1    1    3    3  502    0 -0.20512128329E+03  0.64363995035E+01 -0.13419225453E+03  0.24520140552E+03  0.00000000000E+00 0. -1.
         -2    1    3    3    0  502 -0.22600909718E+03 -0.39686588000E+02 -0.24225156484E+03  0.33367792546E+03  0.00000000000E+00 0.  1.
         13    1    5    5    0    0  0.48462935947E+02 -0.55489369360E+02 -0.79930611184E+03  0.80269420497E+03  0.00000000000E+00 0. -1.
        -13    1    5    5    0    0 -0.38469730201E+02 -0.87727828146E+02 -0.11297565404E+04  0.11338103601E+04  0.00000000000E+00 0.  1.
          3    1    6    6  503    0  0.37868097731E+03  0.15791971842E+03 -0.38381218102E+03  0.56182711784E+03  0.00000000000E+00 0. -1.
         -3    1    6    6    0  503  0.42456197408E+02  0.18547667582E+02 -0.96281456706E+02  0.10684878837E+03  0.00000000000E+00 0.  1.
<mgrwt>
<rscale>  0 0.15422934E+04</rscale>
<asrwt>0</asrwt>
<pdfrwt beam="1">  1        1 0.45920463E+00 0.15422934E+04</pdfrwt>
<pdfrwt beam="2">  1       -2 0.30650744E-01 0.15422934E+04</pdfrwt>
<totfact> 0.51420419E+00</totfact>
</mgrwt>
</event>
<event>
12    5  0.5041746E-008  0.2398894E+04  0.7818608E-02  0.8439918E-01
          1   -1    0    0  501    0  0.00000000000E+00  0.00000000000E+00  0.99599646781E+03  0.99599646781E+03  0.00000000000E+00 0. -1.
         -2   -1    0    0    0  501 -0.00000000000E+00 -0.00000000000E+00 -0.14444554668E+04  0.14444554668E+04  0.00000000000E+00 0.  1.
        -24    2    1    2    0    0  0.93434450820E+03  0.42332342734E+03 -0.15268910310E+03  0.10401429154E+04  0.79880773896E+02 0.  0.
        254    2    1    2    0    0 -0.93434450820E+03 -0.42332342734E+03 -0.29576989589E+03  0.14003090193E+04  0.90619155477E+03 0.  0.
         23    2    4    4    0    0  0.63454808069E+02 -0.16829804257E+02  0.18563745587E+03  0.21731691277E+03  0.91954448378E+02 0.  0.
         23    2    4    4    0    0 -0.99779931627E+03 -0.40649362308E+03 -0.48140735176E+03  0.11829921065E+04  0.82926138879E+02 0.  0.
          1    1    3    3  502    0  0.59879333816E+03  0.27828722613E+03 -0.13629677672E+03  0.67422107160E+03  0.00000000000E+00 0. -1.
         -2    1    3    3    0  502  0.33555117005E+03  0.14503620121E+03 -0.16392326388E+02  0.36592184377E+03  0.00000000000E+00 0.  1.
         13    1    5    5    0    0  0.59940415390E+02  0.27560057854E+02  0.13228869256E+03  0.14782661589E+03  0.00000000000E+00 0.  1.
        -13    1    5    5    0    0  0.35143926788E+01 -0.44389862112E+02  0.53348763310E+02  0.69490296883E+02  0.00000000000E+00 0. -1.
          1    1    6    6  503    0 -0.12859125851E+02 -0.95035683724E+01  0.21675575443E+01  0.16136084877E+02  0.00000000000E+00 0. -1.
         -1    1    6    6    0  503 -0.98494019042E+03 -0.39699005471E+03 -0.48357490930E+03  0.11668560216E+04  0.00000000000E+00 0.  1.
<mgrwt>
<rscale>  0 0.23988935E+04</rscale>
<asrwt>0</asrwt>
<pdfrwt beam="1">  1        1 0.15323023E+00 0.23988935E+04</pdfrwt>
<pdfrwt beam="2">  1       -2 0.22222392E+00 0.23988935E+04</pdfrwt>
<totfact> 0.11459619E+00</totfact>
</mgrwt>
</event>
<event>
12    5  0.5041746E-008  0.3829835E+04  0.7818608E-02  0.8039782E-01
         -2   -1    0    0    0  501 -0.00000000000E+00  0.00000000000E+00  0.21443040978E+04  0.21443040978E+04  0.00000000000E+00 0.  1.
          1   -1    0    0  501    0  0.00000000000E+00 -0.00000000000E+00 -0.17100697922E+04  0.17100697922E+04  0.00000000000E+00 0. -1.
        -24    2    1    2    0    0  0.10150808739E+04  0.14954641015E+04  0.12920186438E+03  0.18138092214E+04  0.80054421056E+02 0.  0.
        254    2    1    2    0    0 -0.10150808739E+04 -0.14954641015E+04  0.30503244114E+03  0.20405646686E+04  0.89669243172E+03 0.  0.
         23    2    4    4    0    0 -0.23150287080E+03 -0.20946325806E+03  0.41690800714E+03  0.52760378725E+03  0.84172645429E+02 0.  0.
         23    2    4    4    0    0 -0.78357800314E+03 -0.12860008434E+04 -0.11187556600E+03  0.15129608814E+04  0.93497753447E+02 0.  0.
          3    1    3    3  502    0  0.99360463919E+03  0.14452089986E+04  0.13410449528E+03  0.17589381013E+04  0.00000000000E+00 0. -1.
         -4    1    3    3    0  502  0.21476234749E+02  0.50255102950E+02 -0.49026309014E+01  0.54871120102E+02  0.00000000000E+00 0.  1.
         13    1    5    5    0    0 -0.15438263317E+02  0.71734924851E+01  0.27952070414E+02  0.32727927052E+02  0.00000000000E+00 0. -1.
        -13    1    5    5    0    0 -0.21606460748E+03 -0.21663675055E+03  0.38895593673E+03  0.49487586020E+03  0.00000000000E+00 0.  1.
          3    1    6    6  503    0 -0.57792489343E+03 -0.90343132694E+03 -0.44189491440E+02  0.10733769404E+04  0.00000000000E+00 0. -1.
         -3    1    6    6    0  503 -0.20565310971E+03 -0.38256951650E+03 -0.67686074564E+02  0.43958394100E+03  0.00000000000E+00 0.  1.
<mgrwt>
<rscale>  0 0.38298353E+04</rscale>
<asrwt>0</asrwt>
<pdfrwt beam="1">  1        1 0.26308766E+00 0.38298353E+04</pdfrwt>
<pdfrwt beam="2">  1       -2 0.32989294E+00 0.38298353E+04</pdfrwt>
<totfact> 0.67992663E-02</totfact>
</mgrwt>
</event>
<event>
12    5  0.5041746E-008  0.1451399E+04  0.7818608E-02  0.8917431E-01
         -2   -1    0    0    0  501 -0.00000000000E+00  0.00000000000E+00  0.72432122958E+03  0.72432122958E+03  0.00000000000E+00 0.  1.
          1   -1    0    0  501    0  0.00000000000E+00 -0.00000000000E+00 -0.72708059324E+03  0.72708059324E+03  0.00000000000E+00 0. -1.
        -24    2    1    2    0    0 -0.28075099292E+03 -0.11516739110E+03  0.31969480816E+03  0.44755024963E+03  0.77535847094E+02 0.  0.
        254    2    1    2    0    0  0.28075099292E+03  0.11516739110E+03 -0.32245417182E+03  0.10038515732E+04  0.90091988550E+03 0.  0.
         23    2    4    4    0    0  0.24717783004E+03  0.38997926840E+03 -0.48014292118E+03  0.67242293541E+03  0.91840458724E+02 0.  0.
         23    2    4    4    0    0  0.33573162880E+02 -0.27481187731E+03  0.15768874936E+03  0.33142863779E+03  0.91271436377E+02 0.  0.
          1    1    3    3  502    0 -0.18379976584E+02 -0.26071057870E+02  0.59174985881E+02  0.67225014331E+02  0.00000000000E+00 0. -1.
         -2    1    3    3    0  502 -0.26237101633E+03 -0.89096333228E+02  0.26051982227E+03  0.38032523530E+03  0.00000000000E+00 0.  1.
         13    1    5    5    0    0  0.10298718500E+03  0.88329585615E+02 -0.15602978730E+03  0.20676984909E+03  0.00000000000E+00 0. -1.
        -13    1    5    5    0    0  0.14419064504E+03  0.30164968279E+03 -0.32411313388E+03  0.46565308632E+03  0.00000000000E+00 0.  1.
          3    1    6    6  503    0 -0.11157262026E+02 -0.11624495152E+02 -0.72026519502E+01  0.17649124017E+02  0.00000000000E+00 0. -1.
         -3    1    6    6    0  503  0.44730424907E+02 -0.26318738215E+03  0.16489140131E+03  0.31377951377E+03  0.00000000000E+00 0.  1.
<mgrwt>
<rscale>  0 0.14513992E+04</rscale>
<asrwt>0</asrwt>
<pdfrwt beam="1">  1        1 0.11185855E+00 0.14513992E+04</pdfrwt>
<pdfrwt beam="2">  1       -2 0.11143404E+00 0.14513992E+04</pdfrwt>
<totfact> 0.13916148E+01</totfact>
</mgrwt>
</event>
<event>
12    5  0.5041746E-008  0.3348856E+04  0.7818608E-02  0.8150574E-01
          1   -1    0    0  501    0  0.00000000000E+00  0.00000000000E+00  0.22002473476E+04  0.22002473476E+04  0.00000000000E+00 0. -1.
         -2   -1    0    0    0  501 -0.00000000000E+00 -0.00000000000E+00 -0.12742699490E+04  0.12742699490E+04  0.00000000000E+00 0.  1.
        -24    2    1    2    0    0 -0.33509276724E+03  0.11039649635E+04 -0.64673674302E+03  0.13249443490E+04  0.78634024878E+02 0.  0.
        254    2    1    2    0    0  0.33509276724E+03 -0.11039649635E+04  0.15727141416E+04  0.21495729477E+04  0.90344246239E+03 0.  0.
         23    2    4    4    0    0 -0.14703091848E+03 -0.92067310891E+03  0.10870212020E+04  0.14350058070E+04  0.91485015458E+02 0.  0.
         23    2    4    4    0    0  0.48212368571E+03 -0.18329185457E+03  0.48569293966E+03  0.71456714070E+03  0.93109691535E+02 0.  0.
          3    1    3    3  502    0 -0.26375304089E+03  0.91847237261E+03 -0.50485203984E+03  0.10807556375E+04  0.00000000000E+00 0. -1.
         -4    1    3    3    0  502 -0.71339726349E+02  0.18549259087E+03 -0.14188470318E+03  0.24418871149E+03  0.00000000000E+00 0.  1.
         13    1    5    5    0    0 -0.10547581189E+03 -0.50102091336E+03  0.53758475489E+03  0.74239105006E+03  0.00000000000E+00 0.  1.
        -13    1    5    5    0    0 -0.41555106587E+02 -0.41965219555E+03  0.54943644709E+03  0.69261475692E+03  0.00000000000E+00 0. -1.
          3    1    6    6  503    0  0.41713522917E+02 -0.38913146634E+02  0.82257954042E+02  0.10010305679E+03  0.00000000000E+00 0. -1.
         -3    1    6    6    0  503  0.44041016280E+03 -0.14437870794E+03  0.40343498562E+03  0.61446408392E+03  0.00000000000E+00 0.  1.
<mgrwt>
<rscale>  0 0.33488560E+04</rscale>
<asrwt>0</asrwt>
<pdfrwt beam="1">  1        1 0.33849959E+00 0.33488560E+04</pdfrwt>
<pdfrwt beam="2">  1       -2 0.19604153E+00 0.33488560E+04</pdfrwt>
<totfact> 0.22352828E-01</totfact>
</mgrwt>
</event>
<event>
12    5  0.5041746E-008  0.1426862E+04  0.7818608E-02  0.8934601E-01
         -4   -1    0    0    0  501 -0.00000000000E+00  0.00000000000E+00  0.25537448396E+03  0.25537448396E+03  0.00000000000E+00 0.  1.
          3   -1    0    0  501    0  0.00000000000E+00 -0.00000000000E+00 -0.19930880591E+04  0.19930880591E+04  0.00000000000E+00 0. -1.
        -24    2    1    2    0    0  0.45760348466E+02  0.36502248880E+03 -0.18788375827E+03  0.42119848397E+03  0.82294771777E+02 0.  0.
        254    2    1    2    0    0 -0.45760348466E+02 -0.36502248880E+03 -0.15498298168E+04  0.18272640591E+04  0.89531338284E+03 0.  0.
         23    2    4    4    0    0  0.99283058654E+02 -0.59750111436E+03 -0.13305464630E+04  0.14647272598E+04  0.90594414939E+02 0.  0.
         23    2    4    4    0    0 -0.14504340712E+03  0.23247862556E+03 -0.21928335381E+03  0.36253679921E+03  0.90905666678E+02 0.  0.
          3    1    3    3  502    0  0.91773118680E+01  0.17542004115E+02 -0.34146572183E+02  0.39470664465E+02  0.00000000000E+00 0. -1.
         -4    1    3    3    0  502  0.36583036598E+02  0.34748048468E+03 -0.15373718609E+03  0.38172781951E+03  0.00000000000E+00 0.  1.
         13    1    5    5    0    0  0.43142769588E+02 -0.11939543514E+03 -0.21391575723E+03  0.24874991395E+03  0.00000000000E+00 0. -1.
        -13    1    5    5    0    0  0.56140289067E+02 -0.47810567922E+03 -0.11166307058E+04  0.12159773459E+04  0.00000000000E+00 0.  1.
          1    1    6    6  503    0 -0.92331564547E+02  0.66006061461E+02 -0.97729230765E+02  0.14977623479E+03  0.00000000000E+00 0. -1.
         -1    1    6    6    0  503 -0.52711842573E+02  0.16647256410E+03 -0.12155412304E+03  0.21276056442E+03  0.00000000000E+00 0.  1.
<mgrwt>
<rscale>  0 0.14268621E+04</rscale>
<asrwt>0</asrwt>
<pdfrwt beam="1">  1        3 0.30662893E+00 0.14268621E+04</pdfrwt>
<pdfrwt beam="2">  1       -4 0.39288383E-01 0.14268621E+04</pdfrwt>
<totfact> 0.50398590E-01</totfact>
</mgrwt>
</event>
<event>
12    5  0.5041746E-008  0.1442790E+04  0.7818608E-02  0.8923415E-01
          1   -1    0    0  501    0  0.00000000000E+00  0.00000000000E+00  0.28435397146E+04  0.28435397146E+04  0.00000000000E+00 0. -1.
         -2   -1    0    0    0  501 -0.00000000000E+00 -0.00000000000E+00 -0.18301499531E+03  0.18301499531E+03  0.00000000000E+00 0.  1.
        -24    2    1    2    0    0 -0.14105927184E+03 -0.29750706345E+03  0.21844993379E+03  0.40269978146E+03  0.77708232763E+02 0.  0.
        254    2    1    2    0    0  0.14105927184E+03  0.29750706345E+03  0.24420747855E+04  0.26238549284E+04  0.90137520302E+03 0.  0.
         23    2    4    4    0    0 -0.30622403639E+03  0.35060024631E+03  0.15407310598E+04  0.16120977889E+04  0.91177789300E+02 0.  0.
         23    2    4    4    0    0  0.44728330823E+03 -0.53093182863E+02  0.90134372567E+03  0.10117571395E+04  0.91382457964E+02 0.  0.
          3    1    3    3  502    0 -0.34971788123E+02 -0.14948059734E+03  0.12520364008E+03  0.19809953669E+03  0.00000000000E+00 0. -1.
         -4    1    3    3    0  502 -0.10608748372E+03 -0.14802646611E+03  0.93246293714E+02  0.20460024478E+03  0.00000000000E+00 0.  1.
         13    1    5    5    0    0 -0.95707774050E+02  0.10033907683E+03  0.61071326728E+03  0.62625761727E+03  0.00000000000E+00 0. -1.
        -13    1    5    5    0    0 -0.21051626234E+03  0.25026116948E+03  0.93001779250E+03  0.98584017164E+03  0.00000000000E+00 0.  1.
          2    1    6    6  503    0  0.17523112867E+03 -0.53063375888E+02  0.29532084640E+03  0.34747096660E+03  0.00000000000E+00 0. -1.
         -2    1    6    6    0  503  0.27205217957E+03 -0.29806975604E-01  0.60602287927E+03  0.66428617289E+03  0.00000000000E+00 0.  1.
<mgrwt>
<rscale>  0 0.14427895E+04</rscale>
<asrwt>0</asrwt>
<pdfrwt beam="1">  1        1 0.43746762E+00 0.14427895E+04</pdfrwt>
<pdfrwt beam="2">  1       -2 0.28156155E-01 0.14427895E+04</pdfrwt>
<totfact> 0.76810653E+00</totfact>
</mgrwt>
</event>
<event>
12    5  0.5041746E-008  0.1833758E+04  0.7818608E-02  0.8688550E-01
          1   -1    0    0  501    0  0.00000000000E+00  0.00000000000E+00  0.89073848239E+03  0.89073848239E+03  0.00000000000E+00 0. -1.
         -2   -1    0    0    0  501 -0.00000000000E+00 -0.00000000000E+00 -0.94378676112E+03  0.94378676112E+03  0.00000000000E+00 0.  1.
        -24    2    1    2    0    0 -0.31345575083E+03 -0.19187374061E+03  0.56307646446E+03  0.67740686887E+03  0.82188327021E+02 0.  0.
        254    2    1    2    0    0  0.31345575083E+03  0.19187374061E+03 -0.61612474319E+03  0.11571183746E+04  0.90787840249E+03 0.  0.
         23    2    4    4    0    0  0.27576189238E+02  0.52322790836E+03 -0.30349748547E+03  0.61206541045E+03  0.89361360084E+02 0.  0.
         23    2    4    4    0    0  0.28587956159E+03 -0.33135416776E+03 -0.31262725773E+03  0.54505296420E+03  0.88454639686E+02 0.  0.
          3    1    3    3  502    0 -0.30137715100E+03 -0.20028683543E+03  0.53982394911E+03  0.64988683601E+03  0.00000000000E+00 0. -1.
         -2    1    3    3    0  502 -0.12078599829E+02  0.84130948187E+01  0.23252515350E+02  0.27520032856E+02  0.00000000000E+00 0.  1.
         13    1    5    5    0    0 -0.16288120903E+02  0.39698012893E+03 -0.23908317942E+03  0.46370172776E+03  0.00000000000E+00 0. -1.
        -13    1    5    5    0    0  0.43864310141E+02  0.12624777943E+03 -0.64414306049E+02  0.14836368268E+03  0.00000000000E+00 0.  1.
          1    1    6    6  503    0  0.26914826974E+03 -0.27406121334E+03 -0.24875825716E+03  0.45763632970E+03  0.00000000000E+00 0. -1.
         -1    1    6    6    0  503  0.16731291857E+02 -0.57292954410E+02 -0.63869000571E+02  0.87416634494E+02  0.00000000000E+00 0.  1.
<mgrwt>
<rscale>  0 0.18337581E+04</rscale>
<asrwt>0</asrwt>
<pdfrwt beam="1">  1        1 0.13703669E+00 0.18337581E+04</pdfrwt>
<pdfrwt beam="2">  1       -2 0.14519796E+00 0.18337581E+04</pdfrwt>
<totfact> 0.49844343E+00</totfact>
</mgrwt>
</event>
<event>
12    5  0.5041746E-008  0.1912699E+04  0.7818608E-02  0.8648561E-01
          1   -1    0    0  501    0  0.00000000000E+00  0.00000000000E+00  0.20376315723E+04  0.20376315723E+04  0.00000000000E+00 0. -1.
         -2   -1    0    0    0  501 -0.00000000000E+00 -0.00000000000E+00 -0.44885642589E+03  0.44885642589E+03  0.00000000000E+00 0.  1.
        -24    2    1    2    0    0  0.37426504222E+03 -0.41132682996E+03 -0.87499388724E+01  0.56185387610E+03  0.79618677359E+02 0.  0.
        254    2    1    2    0    0 -0.37426504222E+03  0.41132682996E+03  0.15975250853E+04  0.19246341221E+04  0.91807735130E+03 0.  0.
         23    2    4    4    0    0 -0.34731519796E+03 -0.18014673291E+03  0.31993034160E+03  0.51352246307E+03  0.90935166355E+02 0.  0.
         23    2    4    4    0    0 -0.26949844257E+02  0.59147356287E+03  0.12775947437E+04  0.14111116590E+04  0.91763366894E+02 0.  0.
          1    1    3    3  502    0  0.36447258386E+03 -0.40829384866E+03  0.15688205322E+01  0.54730849841E+03  0.00000000000E+00 0. -1.
         -2    1    3    3    0  502  0.97924583616E+01 -0.30329812982E+01 -0.10318759405E+02  0.14545377684E+02  0.00000000000E+00 0.  1.
         13    1    5    5    0    0 -0.16240419074E+02  0.24564323856E+01  0.39512608774E+02  0.42790554143E+02  0.00000000000E+00 0. -1.
        -13    1    5    5    0    0 -0.33107477889E+03 -0.18260316530E+03  0.28041773283E+03  0.47073190892E+03  0.00000000000E+00 0.  1.
          4    1    6    6  503    0 -0.38581347202E+02  0.49213100489E+03  0.98274311001E+03  0.10997570034E+04  0.00000000000E+00 0.  1.
         -4    1    6    6    0  503  0.11631502945E+02  0.99342557978E+02  0.29485163368E+03  0.31135465561E+03  0.00000000000E+00 0. -1.
<mgrwt>
<rscale>  0 0.19126986E+04</rscale>
<asrwt>0</asrwt>
<pdfrwt beam="1">  1        1 0.31348178E+00 0.19126986E+04</pdfrwt>
<pdfrwt beam="2">  1       -2 0.69054836E-01 0.19126986E+04</pdfrwt>
<totfact> 0.44161688E+00</totfact>
</mgrwt>
</event>
<event>
12    5  0.5041746E-008  0.1857275E+04  0.7818608E-02  0.8676421E-01
         -2   -1    0    0    0  501 -0.00000000000E+00  0.00000000000E+00  0.74655844471E+03  0.74655844471E+03  0.00000000000E+00 0.  1.
          1   -1    0    0  501    0  0.00000000000E+00 -0.00000000000E+00 -0.11551236115E+04  0.11551236115E+04  0.00000000000E+00 0. -1.
        -24    2    1    2    0    0 -0.58800130638E+03  0.30404751700E+03  0.95270444183E+02  0.67363193336E+03  0.80703749625E+02 0.  0.
        254    2    1    2    0    0  0.58800130638E+03 -0.30404751700E+03 -0.50383561097E+03  0.12280501229E+04  0.90336390921E+03 0.  0.
         23    2    4    4    0    0  0.82085912657E+03 -0.25789114843E+03 -0.40465534493E+03  0.95517778921E+03  0.91110431343E+02 0.  0.
         23    2    4    4    0    0 -0.23285782019E+03 -0.46156368573E+02 -0.99180266038E+02  0.27287233365E+03  0.90936299233E+02 0.  0.
          1    1    3    3  502    0 -0.81996824010E+02  0.69988062804E+02 -0.13077876867E+01  0.10781242225E+03  0.00000000000E+00 0. -1.
         -2    1    3    3    0  502 -0.50600448237E+03  0.23405945420E+03  0.96578231870E+02  0.56581951111E+03  0.00000000000E+00 0.  1.
         13    1    5    5    0    0  0.25799532005E+03 -0.12592334872E+03 -0.13686521855E+03  0.31804144851E+03  0.00000000000E+00 0.  1.
        -13    1    5    5    0    0  0.56286380652E+03 -0.13196779971E+03 -0.26779012638E+03  0.63713634069E+03  0.00000000000E+00 0. -1.
          4    1    6    6  503    0 -0.88154567059E+02 -0.59772206176E+02 -0.23757162724E+02  0.10912537333E+03  0.00000000000E+00 0. -1.
         -4    1    6    6    0  503 -0.14470325313E+03  0.13615837603E+02 -0.75423103314E+02  0.16374696032E+03  0.00000000000E+00 0.  1.
<mgrwt>
<rscale>  0 0.18572747E+04</rscale>
<asrwt>0</asrwt>
<pdfrwt beam="1">  1        1 0.17771132E+00 0.18572747E+04</pdfrwt>
<pdfrwt beam="2">  1       -2 0.11485515E+00 0.18572747E+04</pdfrwt>
<totfact> 0.56169443E+00</totfact>
</mgrwt>
</event>
<event>
12    5  0.5041746E-008  0.1269495E+04  0.7818608E-02  0.9054112E-01
          1   -1    0    0  501    0  0.00000000000E+00  0.00000000000E+00  0.25314697392E+04  0.25314697392E+04  0.00000000000E+00 0. -1.
         -2   -1    0    0    0  501 -0.00000000000E+00 -0.00000000000E+00 -0.15915824497E+03  0.15915824497E+03  0.00000000000E+00 0.  1.
        -24    2    1    2    0    0  0.26502812769E+03 -0.13639678113E+02  0.19242637178E+03  0.33759373407E+03  0.80719709129E+02 0.  0.
        254    2    1    2    0    0 -0.26502812769E+03  0.13639678113E+02  0.21798851224E+04  0.23530342501E+04  0.84524853489E+03 0.  0.
         23    2    4    4    0    0 -0.36661688548E+03  0.24110013753E+03  0.19505011213E+04  0.20013251018E+04  0.91160966810E+02 0.  0.
         23    2    4    4    0    0  0.10158875779E+03 -0.22746045942E+03  0.22938400114E+03  0.35170914828E+03  0.94993519241E+02 0.  0.
          3    1    3    3  502    0  0.82639745460E+02 -0.26234272663E+01  0.17241073458E+02  0.84459839653E+02  0.00000000000E+00 0. -1.
         -4    1    3    3    0  502  0.18238838223E+03 -0.11016250847E+02  0.17518529832E+03  0.25313389442E+03  0.00000000000E+00 0.  1.
         13    1    5    5    0    0 -0.33086495626E+03  0.23659528372E+03  0.16855188634E+04  0.17339039150E+04  0.00000000000E+00 0.  1.
        -13    1    5    5    0    0 -0.35751929217E+02  0.45048538153E+01  0.26498225791E+03  0.26742118681E+03  0.00000000000E+00 0. -1.
          3    1    6    6  503    0  0.72872984563E+01 -0.99145330490E+02  0.13128417651E+03  0.16467676302E+03  0.00000000000E+00 0. -1.
         -3    1    6    6    0  503  0.94301459332E+02 -0.12831512893E+03  0.98099824630E+02  0.18703238526E+03  0.00000000000E+00 0.  1.
<mgrwt>
<rscale>  0 0.12694948E+04</rscale>
<asrwt>0</asrwt>
<pdfrwt beam="1">  1        1 0.38945685E+00 0.12694948E+04</pdfrwt>
<pdfrwt beam="2">  1       -2 0.24485886E-01 0.12694948E+04</pdfrwt>
<totfact> 0.16680918E+01</totfact>
</mgrwt>
</event>
<event>
12    5  0.5041746E-008  0.1867089E+04  0.7818608E-02  0.8671414E-01
          1   -1    0    0  501    0  0.00000000000E+00  0.00000000000E+00  0.83411730968E+03  0.83411730968E+03  0.00000000000E+00 0. -1.
         -2   -1    0    0    0  501 -0.00000000000E+00 -0.00000000000E+00 -0.10448233986E+04  0.10448233986E+04  0.00000000000E+00 0.  1.
        -24    2    1    2    0    0 -0.29581764208E+03  0.62626777115E+03 -0.19668855808E+03  0.72430647494E+03  0.78829450166E+02 0.  0.
        254    2    1    2    0    0  0.29581764208E+03 -0.62626777115E+03 -0.14017530798E+02  0.11546342333E+04  0.92372307701E+03 0.  0.
         23    2    4    4    0    0  0.52624226761E+03 -0.61886195124E+03  0.18426670535E+03  0.83790908699E+03  0.90644252139E+02 0.  0.
         23    2    4    4    0    0 -0.23042462553E+03 -0.74058199077E+01 -0.19828423615E+03  0.31672514631E+03  0.88587955060E+02 0.  0.
          1    1    3    3  502    0 -0.61405821734E+02  0.10181827064E+03 -0.60832561775E+01  0.11905730210E+03  0.00000000000E+00 0. -1.
         -2    1    3    3    0  502 -0.23441182035E+03  0.52444950051E+03 -0.19060530191E+03  0.60524917284E+03  0.00000000000E+00 0.  1.
         13    1    5    5    0    0  0.45749268693E+03 -0.55037551913E+03  0.19068149403E+03  0.74065660249E+03  0.00000000000E+00 0.  1.
        -13    1    5    5    0    0  0.68749580682E+02 -0.68486432105E+02 -0.64147886755E+01  0.97252484494E+02  0.00000000000E+00 0. -1.
          3    1    6    6  503    0 -0.10772071464E+03 -0.47601467883E+02 -0.98827876849E+02  0.15374199605E+03  0.00000000000E+00 0. -1.
         -3    1    6    6    0  503 -0.12270391089E+03  0.40195647975E+02 -0.99456359301E+02  0.16298315026E+03  0.00000000000E+00 0.  1.
<mgrwt>
<rscale>  0 0.18670889E+04</rscale>
<asrwt>0</asrwt>
<pdfrwt beam="1">  1        1 0.12832574E+00 0.18670889E+04</pdfrwt>
<pdfrwt beam="2">  1       -2 0.16074206E+00 0.18670889E+04</pdfrwt>
<totfact> 0.42227585E+00</totfact>
</mgrwt>
</event>
<event>
12    5  0.5041746E-008  0.4909947E+04  0.7818608E-02  0.7842551E-01
          1   -1    0    0  501    0  0.00000000000E+00  0.00000000000E+00  0.35017884790E+04  0.35017884790E+04  0.00000000000E+00 0. -1.
         -2   -1    0    0    0  501 -0.00000000000E+00 -0.00000000000E+00 -0.17210906808E+04  0.17210906808E+04  0.00000000000E+00 0.  1.
        -24    2    1    2    0    0 -0.23458796798E+04 -0.30944972044E+03  0.67015954346E+03  0.24605395484E+04  0.78933226425E+02 0.  0.
        254    2    1    2    0    0  0.23458796798E+04  0.30944972044E+03  0.11105382547E+04  0.27623396114E+04  0.89348436572E+03 0.  0.
         23    2    4    4    0    0  0.10810752650E+04  0.44704885431E+03  0.18843029415E+03  0.11883440471E+04  0.89884324420E+02 0.  0.
         23    2    4    4    0    0  0.12648044147E+04 -0.13759913387E+03  0.92210796059E+03  0.15739955642E+04  0.92277928344E+02 0.  0.
          3    1    3    3  502    0 -0.71403835954E+03 -0.77607101364E+02  0.23714266878E+03  0.75637972370E+03  0.00000000000E+00 0. -1.
         -4    1    3    3    0  502 -0.16318413203E+04 -0.23184261907E+03  0.43301687468E+03  0.17041598247E+04  0.00000000000E+00 0.  1.
         13    1    5    5    0    0  0.38650218511E+03  0.19510539426E+03  0.40693920213E+02  0.43486325334E+03  0.00000000000E+00 0. -1.
        -13    1    5    5    0    0  0.69457307994E+03  0.25194346005E+03  0.14773637393E+03  0.75348079379E+03  0.00000000000E+00 0.  1.
          3    1    6    6  503    0  0.79996068178E+03 -0.82254421153E+02  0.52759398492E+03  0.96179950880E+03  0.00000000000E+00 0. -1.
         -3    1    6    6    0  503  0.46484373296E+03 -0.55344712715E+02  0.39451397567E+03  0.61219605544E+03  0.00000000000E+00 0.  1.
<mgrwt>
<rscale>  0 0.49099473E+04</rscale>
<asrwt>0</asrwt>
<pdfrwt beam="1">  1        1 0.53873669E+00 0.49099473E+04</pdfrwt>
<pdfrwt beam="2">  1       -2 0.26478318E+00 0.49099473E+04</pdfrwt>
<totfact> 0.83089058E-03</totfact>
</mgrwt>
</event>
<event>
12    5  0.5041746E-008  0.1947596E+04  0.7818608E-02  0.8631521E-01
         -2   -1    0    0    0  501 -0.00000000000E+00  0.00000000000E+00  0.46959384042E+03  0.46959384042E+03  0.00000000000E+00 0.  1.
          1   -1    0    0  501    0  0.00000000000E+00 -0.00000000000E+00 -0.20193668428E+04  0.20193668428E+04  0.00000000000E+00 0. -1.
        -24    2    1    2    0    0 -0.57811648874E+03  0.16766272979E+03 -0.89270264677E+01  0.60722267446E+03  0.79436887273E+02 0.  0.
        254    2    1    2    0    0  0.57811648874E+03 -0.16766272979E+03 -0.15408459759E+04  0.18817380088E+04  0.89688468973E+03 0.  0.
         23    2    4    4    0    0  0.72981235836E+03 -0.32368338585E+03 -0.94405333037E+03  0.12398319329E+04  0.92463606890E+02 0.  0.
         23    2    4    4    0    0 -0.15169586962E+03  0.15602065606E+03 -0.59679264557E+03  0.64190607588E+03  0.92346448069E+02 0.  0.
          1    1    3    3  502    0 -0.12892905588E+03  0.72562956769E+02 -0.60406437389E+01  0.14806948883E+03  0.00000000000E+00 0. -1.
         -2    1    3    3    0  502 -0.44918743286E+03  0.95099773020E+02 -0.28863827288E+01  0.45915318562E+03  0.00000000000E+00 0.  1.
         13    1    5    5    0    0  0.28928046443E+03 -0.14635491556E+03 -0.31877457502E+03  0.45466490748E+03  0.00000000000E+00 0.  1.
        -13    1    5    5    0    0  0.44053189393E+03 -0.17732847029E+03 -0.62527875535E+03  0.78516702544E+03  0.00000000000E+00 0. -1.
          2    1    6    6  503    0 -0.13188375996E+03  0.15243713914E+03 -0.58458470142E+03  0.61836047793E+03  0.00000000000E+00 0. -1.
         -2    1    6    6    0  503 -0.19812109657E+02  0.35835169219E+01 -0.12207944150E+02  0.23545597953E+02  0.00000000000E+00 0.  1.
<mgrwt>
<rscale>  0 0.19475957E+04</rscale>
<asrwt>0</asrwt>
<pdfrwt beam="1">  1        1 0.31067182E+00 0.19475957E+04</pdfrwt>
<pdfrwt beam="2">  1       -2 0.72245207E-01 0.19475957E+04</pdfrwt>
<totfact> 0.41037087E+00</totfact>
</mgrwt>
</event>
<event>
12    5  0.5041746E-008  0.1485999E+04  0.7818608E-02  0.8893817E-01
         -2   -1    0    0    0  501 -0.00000000000E+00  0.00000000000E+00  0.41271878820E+03  0.41271878820E+03  0.00000000000E+00 0.  1.
          1   -1    0    0  501    0  0.00000000000E+00 -0.00000000000E+00 -0.13375896760E+04  0.13375896760E+04  0.00000000000E+00 0. -1.
        -24    2    1    2    0    0  0.14716391601E+02 -0.20043397824E+03 -0.79176796087E+03  0.82120781577E+03  0.84234321970E+02 0.  0.
        254    2    1    2    0    0 -0.14716391601E+02  0.20043397824E+03 -0.13310292694E+03  0.92910064844E+03  0.89728550304E+03 0.  0.
         23    2    4    4    0    0 -0.16615843307E+03 -0.26332667566E+02  0.33157297892E+03  0.38279371790E+03  0.91040407813E+02 0.  0.
         23    2    4    4    0    0  0.15144204147E+03  0.22676664581E+03 -0.46467590585E+03  0.54630693054E+03  0.90386731860E+02 0.  0.
          1    1    3    3  502    0 -0.61154098326E+01 -0.19531712724E+03 -0.68617382552E+03  0.71345686433E+03  0.00000000000E+00 0. -1.
         -2    1    3    3    0  502  0.20831801434E+02 -0.51168510082E+01 -0.10559413535E+03  0.10775095144E+03  0.00000000000E+00 0.  1.
         13    1    5    5    0    0 -0.16273405670E+03 -0.25264295764E+02  0.33768785130E+03  0.37570432892E+03  0.00000000000E+00 0. -1.
        -13    1    5    5    0    0 -0.34243763705E+01 -0.10683718025E+01 -0.61148723863E+01  0.70893889818E+01  0.00000000000E+00 0.  1.
          2    1    6    6  503    0  0.16351947653E+02  0.10053350424E+03 -0.14940128418E+03  0.18081790669E+03  0.00000000000E+00 0. -1.
         -2    1    6    6    0  503  0.13509009382E+03  0.12623314157E+03 -0.31527462167E+03  0.36548902384E+03  0.00000000000E+00 0.  1.
<mgrwt>
<rscale>  0 0.14859992E+04</rscale>
<asrwt>0</asrwt>
<pdfrwt beam="1">  1        1 0.20578302E+00 0.14859992E+04</pdfrwt>
<pdfrwt beam="2">  1       -2 0.63495199E-01 0.14859992E+04</pdfrwt>
<totfact> 0.16586377E+01</totfact>
</mgrwt>
</event>
<event>
12    5  0.5041746E-008  0.1178141E+04  0.7818608E-02  0.9132207E-01
          1   -1    0    0  501    0  0.00000000000E+00  0.00000000000E+00  0.13287894753E+04  0.13287894753E+04  0.00000000000E+00 0. -1.
         -2   -1    0    0    0  501 -0.00000000000E+00 -0.00000000000E+00 -0.26114316731E+03  0.26114316731E+03  0.00000000000E+00 0.  1.
        -24    2    1    2    0    0  0.22844856258E+03  0.48107712835E+02  0.21045006859E+03  0.32483911294E+03  0.82025118994E+02 0.  0.
        254    2    1    2    0    0 -0.22844856258E+03 -0.48107712835E+02  0.85719623941E+03  0.12650935297E+04  0.90065151317E+03 0.  0.
         23    2    4    4    0    0  0.20772218626E+03  0.19025727772E+03  0.31898916009E+02  0.29737204775E+03  0.89812335188E+02 0.  0.
         23    2    4    4    0    0 -0.43617074884E+03 -0.23836499056E+03  0.82529732340E+03  0.96772148192E+03  0.91139473823E+02 0.  0.
          3    1    3    3  502    0  0.22994764555E+03  0.35063661390E+02  0.18909442664E+03  0.29977004892E+03  0.00000000000E+00 0. -1.
         -4    1    3    3    0  502 -0.14990829646E+01  0.13044051444E+02  0.21355641947E+02  0.25069064019E+02  0.00000000000E+00 0.  1.
         13    1    5    5    0    0  0.17494234969E+03  0.12230083235E+03  0.51169058453E+02  0.21950077871E+03  0.00000000000E+00 0.  1.
        -13    1    5    5    0    0  0.32779836562E+02  0.67956445374E+02 -0.19270142444E+02  0.77871269045E+02  0.00000000000E+00 0. -1.
          1    1    6    6  503    0 -0.26667539886E+02 -0.24384398899E+02  0.11349815659E+03  0.11911166249E+03  0.00000000000E+00 0. -1.
         -1    1    6    6    0  503 -0.40950320895E+03 -0.21398059166E+03  0.71179916681E+03  0.84860981942E+03  0.00000000000E+00 0.  1.
<mgrwt>
<rscale>  0 0.11781414E+04</rscale>
<asrwt>0</asrwt>
<pdfrwt beam="1">  1        1 0.20442915E+00 0.11781414E+04</pdfrwt>
<pdfrwt beam="2">  1       -2 0.40175873E-01 0.11781414E+04</pdfrwt>
<totfact> 0.43977896E+01</totfact>
</mgrwt>
</event>
<event>
12    5  0.5041746E-008  0.1477599E+04  0.7818608E-02  0.8899487E-01
          1   -1    0    0  501    0  0.00000000000E+00  0.00000000000E+00  0.42092897087E+04  0.42092897087E+04  0.00000000000E+00 0. -1.
         -2   -1    0    0    0  501 -0.00000000000E+00 -0.00000000000E+00 -0.12967153637E+03  0.12967153637E+03  0.00000000000E+00 0.  1.
        -24    2    1    2    0    0 -0.44315788000E+03 -0.10224270663E+02  0.16683656028E+04  0.17282687824E+04  0.83520999260E+02 0.  0.
        254    2    1    2    0    0  0.44315788000E+03  0.10224270663E+02  0.24112525695E+04  0.26106924627E+04  0.89726402927E+03 0.  0.
         23    2    4    4    0    0  0.34861562137E+02 -0.17670367844E+03  0.52637919360E+02  0.20802714119E+03  0.89805469904E+02 0.  0.
         23    2    4    4    0    0  0.40829631786E+03  0.18692794911E+03  0.23586146502E+04  0.24026653215E+04  0.89942413260E+02 0.  0.
          1    1    3    3  502    0 -0.28460156063E+03  0.32765336212E+02  0.10290179622E+04  0.10681524152E+04  0.00000000000E+00 0. -1.
         -2    1    3    3    0  502 -0.15855631936E+03 -0.42989606875E+02  0.63934764053E+03  0.66011636713E+03  0.00000000000E+00 0.  1.
         13    1    5    5    0    0  0.12393608903E+02 -0.55568249673E+02 -0.25237738823E+02  0.62276603747E+02  0.00000000000E+00 0. -1.
        -13    1    5    5    0    0  0.22467953235E+02 -0.12113542877E+03  0.77875658183E+02  0.14575053744E+03  0.00000000000E+00 0.  1.
          4    1    6    6  503    0  0.11210200377E+03  0.11424849052E+02  0.65277851101E+03  0.66243276705E+03  0.00000000000E+00 0. -1.
         -4    1    6    6    0  503  0.29619431409E+03  0.17550310005E+03  0.17058361392E+04  0.17402325544E+04  0.00000000000E+00 0.  1.
<mgrwt>
<rscale>  0 0.14775995E+04</rscale>
<asrwt>0</asrwt>
<pdfrwt beam="1">  1        1 0.64758293E+00 0.14775995E+04</pdfrwt>
<pdfrwt beam="2">  1       -2 0.19949470E-01 0.14775995E+04</pdfrwt>
<totfact> 0.11609081E+00</totfact>
</mgrwt>
</event>
<event>
12    5  0.5041746E-008  0.2674754E+04  0.7818608E-02  0.8343243E-01
          1   -1    0    0  501    0  0.00000000000E+00  0.00000000000E+00  0.74366101044E+03  0.74366101044E+03  0.00000000000E+00 0. -1.
         -2   -1    0    0    0  501 -0.00000000000E+00 -0.00000000000E+00 -0.24050976032E+04  0.24050976032E+04  0.00000000000E+00 0.  1.
        -24    2    1    2    0    0 -0.97225159112E+03  0.67784725490E+03 -0.62693781455E+03  0.13429888497E+04  0.76275617450E+02 0.  0.
        254    2    1    2    0    0  0.97225159112E+03 -0.67784725490E+03 -0.10344987782E+04  0.18057697639E+04  0.88649120734E+03 0.  0.
         23    2    4    4    0    0  0.62934924864E+03 -0.89274121462E+02 -0.89997514126E+03  0.11053583898E+04  0.88383083946E+02 0.  0.
         23    2    4    4    0    0  0.34290234248E+03 -0.58857313343E+03 -0.13452363695E+03  0.70041137408E+03  0.92082214172E+02 0.  0.
          3    1    3    3  502    0 -0.43410881937E+01  0.11669015729E+02 -0.92971415716E+01  0.15538591191E+02  0.00000000000E+00 0. -1.
         -4    1    3    3    0  502 -0.96791050293E+03  0.66617823917E+03 -0.61764067298E+03  0.13274502586E+04  0.00000000000E+00 0.  1.
         13    1    5    5    0    0  0.36154061252E+03 -0.95274917581E+02 -0.52652350698E+03  0.64576770423E+03  0.00000000000E+00 0.  1.
        -13    1    5    5    0    0  0.26780863612E+03  0.60007961186E+01 -0.37345163428E+03  0.45959068559E+03  0.00000000000E+00 0. -1.
          3    1    6    6  503    0  0.24275192231E+03 -0.44577976978E+03 -0.13781526026E+03  0.52596686673E+03  0.00000000000E+00 0. -1.
         -3    1    6    6    0  503  0.10015042016E+03 -0.14279336365E+03  0.32916233092E+01  0.17444450735E+03  0.00000000000E+00 0.  1.
<mgrwt>
<rscale>  0 0.26747541E+04</rscale>
<asrwt>0</asrwt>
<pdfrwt beam="1">  1        1 0.11440939E+00 0.26747541E+04</pdfrwt>
<pdfrwt beam="2">  1       -2 0.37001501E+00 0.26747541E+04</pdfrwt>
<totfact> 0.22105968E-01</totfact>
</mgrwt>
</event>
<event>
12    5  0.5041746E-008  0.3615177E+04  0.7818608E-02  0.8087024E-01
         -2   -1    0    0    0  501 -0.00000000000E+00  0.00000000000E+00  0.10969891847E+04  0.10969891847E+04  0.00000000000E+00 0.  1.
          1   -1    0    0  501    0  0.00000000000E+00 -0.00000000000E+00 -0.29784938749E+04  0.29784938749E+04  0.00000000000E+00 0. -1.
        -24    2    1    2    0    0  0.12331278202E+04  0.20469757343E+03 -0.22282907255E+04  0.25562148168E+04  0.80307623731E+02 0.  0.
        254    2    1    2    0    0 -0.12331278202E+04 -0.20469757343E+03  0.34678603534E+03  0.15192682429E+04  0.79082875637E+03 0.  0.
         23    2    4    4    0    0  0.72469615135E+02  0.34246419837E+02  0.11676005139E+03  0.16918117930E+03  0.92545661379E+02 0.  0.
         23    2    4    4    0    0 -0.13055974354E+04 -0.23894399327E+03  0.23002598395E+03  0.13500870636E+04  0.90245392019E+02 0.  0.
          1    1    3    3  502    0  0.28717477567E+03  0.80666357422E+02 -0.50964082848E+03  0.59051688126E+03  0.00000000000E+00 0. -1.
         -2    1    3    3    0  502  0.94595304455E+03  0.12403121601E+03 -0.17186498971E+04  0.19656979355E+04  0.00000000000E+00 0.  1.
         13    1    5    5    0    0  0.54448091130E+02 -0.19545170258E+02  0.88682689050E+02  0.10588308479E+03  0.00000000000E+00 0.  1.
        -13    1    5    5    0    0  0.18021524005E+02  0.53791590095E+02  0.28077362335E+02  0.63298094506E+02  0.00000000000E+00 0. -1.
          4    1    6    6  503    0 -0.11090732706E+04 -0.17745205773E+03  0.17307125532E+03  0.11364358371E+04  0.00000000000E+00 0. -1.
         -4    1    6    6    0  503 -0.19652416471E+03 -0.61491935533E+02  0.56954728628E+02  0.21365122645E+03  0.00000000000E+00 0.  1.
<mgrwt>
<rscale>  0 0.36151767E+04</rscale>
<asrwt>0</asrwt>
<pdfrwt beam="1">  1        1 0.45822982E+00 0.36151767E+04</pdfrwt>
<pdfrwt beam="2">  1       -2 0.16876757E+00 0.36151767E+04</pdfrwt>
<totfact> 0.95839653E-02</totfact>
</mgrwt>
</event>
<event>
12    5  0.5041746E-008  0.4311906E+04  0.7818608E-02  0.7944420E-01
          1   -1    0    0  501    0  0.00000000000E+00  0.00000000000E+00  0.10939333794E+04  0.10939333794E+04  0.00000000000E+00 0. -1.
         -2   -1    0    0    0  501 -0.00000000000E+00 -0.00000000000E+00 -0.42490086077E+04  0.42490086077E+04  0.00000000000E+00 0.  1.
        -24    2    1    2    0    0 -0.71396971362E+03 -0.17520568830E+04 -0.25213582737E+04  0.31532333308E+04  0.78592753464E+02 0.  0.
        254    2    1    2    0    0  0.71396971362E+03  0.17520568830E+04 -0.63371695457E+03  0.21897086563E+04  0.90209242742E+03 0.  0.
         23    2    4    4    0    0 -0.20315176745E+03  0.30510236843E+03 -0.14559801803E+03  0.40606790219E+03  0.96613987052E+02 0.  0.
         23    2    4    4    0    0  0.91712148107E+03  0.14469545146E+04 -0.48811893654E+03  0.17836407541E+04  0.91241794928E+02 0.  0.
          3    1    3    3  502    0 -0.61189360138E+03 -0.15476698387E+04 -0.21848443634E+04  0.27464960589E+04  0.00000000000E+00 0. -1.
         -4    1    3    3    0  502 -0.10207611224E+03 -0.20438704431E+03 -0.33651391023E+03  0.40673727190E+03  0.00000000000E+00 0.  1.
         13    1    5    5    0    0 -0.91234927338E+02  0.20004290485E+03 -0.11988749470E+03  0.25042760857E+03  0.00000000000E+00 0. -1.
        -13    1    5    5    0    0 -0.11191684011E+03  0.10505946358E+03 -0.25710523328E+02  0.15564029362E+03  0.00000000000E+00 0.  1.
          3    1    6    6  503    0  0.33513533250E+03  0.57820477466E+03 -0.15323464859E+03  0.68565101185E+03  0.00000000000E+00 0. -1.
         -3    1    6    6    0  503  0.58198614857E+03  0.86874973992E+03 -0.33488428796E+03  0.10979897422E+04  0.00000000000E+00 0.  1.
<mgrwt>
<rscale>  0 0.43119055E+04</rscale>
<asrwt>0</asrwt>
<pdfrwt beam="1">  1        1 0.16829744E+00 0.43119055E+04</pdfrwt>
<pdfrwt beam="2">  1       -2 0.65369363E+00 0.43119055E+04</pdfrwt>
<totfact> 0.28067599E-03</totfact>
</mgrwt>
</event>
<event>
12    5  0.5041746E-008  0.2453185E+04  0.7818608E-02  0.8419856E-01
          1   -1    0    0  501    0  0.00000000000E+00  0.00000000000E+00  0.19830456925E+04  0.19830456925E+04  0.00000000000E+00 0. -1.
         -2   -1    0    0    0  501 -0.00000000000E+00 -0.00000000000E+00 -0.75869607934E+03  0.75869607934E+03  0.00000000000E+00 0.  1.
        -24    2    1    2    0    0 -0.67761618336E+03  0.48237344405E+03 -0.19546558957E+03  0.85827785067E+03  0.81155657695E+02 0.  0.
        254    2    1    2    0    0  0.67761618336E+03 -0.48237344405E+03  0.14198152027E+04  0.18834639211E+04  0.91635871848E+03 0.  0.
         23    2    4    4    0    0  0.59710211650E+03 -0.55179368790E+03  0.15097083537E+04  0.17169438142E+04  0.87575888606E+02 0.  0.
         23    2    4    4    0    0  0.80514066855E+02  0.69420243853E+02 -0.89893151039E+02  0.16652010693E+03  0.91359083780E+02 0.  0.
          1    1    3    3  502    0 -0.11196080730E+03  0.11370111468E+03 -0.53678459373E+02  0.16835837625E+03  0.00000000000E+00 0. -1.
         -2    1    3    3    0  502 -0.56565537606E+03  0.36867232937E+03 -0.14178713019E+03  0.68991947443E+03  0.00000000000E+00 0.  1.
         13    1    5    5    0    0  0.31635548612E+03 -0.30013440045E+03  0.71814149346E+03  0.84017180181E+03  0.00000000000E+00 0. -1.
        -13    1    5    5    0    0  0.28074663039E+03 -0.25165928745E+03  0.79156686028E+03  0.87677201240E+03  0.00000000000E+00 0.  1.
          1    1    6    6  503    0  0.10916791634E+02  0.13350577491E+02  0.18991510407E+02  0.25653298550E+02  0.00000000000E+00 0. -1.
         -1    1    6    6    0  503  0.69597275220E+02  0.56069666362E+02 -0.10888466145E+03  0.14086680838E+03  0.00000000000E+00 0.  1.
<mgrwt>
<rscale>  0 0.24531849E+04</rscale>
<asrwt>0</asrwt>
<pdfrwt beam="1">  1        1 0.30508395E+00 0.24531849E+04</pdfrwt>
<pdfrwt beam="2">  1       -2 0.11672247E+00 0.24531849E+04</pdfrwt>
<totfact> 0.13636559E+00</totfact>
</mgrwt>
</event>
<event>
12    5  0.5041746E-008  0.2682445E+04  0.7818608E-02  0.8340723E-01
          1   -1    0    0  501    0  0.00000000000E+00  0.00000000000E+00  0.15456004828E+04  0.15456004828E+04  0.00000000000E+00 0. -1.
         -2   -1    0    0    0  501 -0.00000000000E+00 -0.00000000000E+00 -0.11638701025E+04  0.11638701025E+04  0.00000000000E+00 0.  1.
        -24    2    1    2    0    0  0.11692453493E+04 -0.18550720335E+03 -0.77225595134E+02  0.11890731431E+04  0.79897045899E+02 0.  0.
        254    2    1    2    0    0 -0.11692453493E+04  0.18550720335E+03  0.45895597538E+03  0.15203974421E+04  0.83631344929E+03 0.  0.
         23    2    4    4    0    0 -0.18781310288E+03  0.33175433840E+03  0.33664639420E+03  0.51684556424E+03  0.91999129838E+02 0.  0.
         23    2    4    4    0    0 -0.98143224639E+03 -0.14624713505E+03  0.12230958118E+03  0.10035518779E+04  0.86944000526E+02 0.  0.
          1    1    3    3  502    0  0.68163278819E+03 -0.12845357010E+03 -0.11259481990E+02  0.69372210109E+03  0.00000000000E+00 0. -1.
         -2    1    3    3    0  502  0.48761256107E+03 -0.57053633244E+02 -0.65966113144E+02  0.49535104205E+03  0.00000000000E+00 0.  1.
         13    1    5    5    0    0 -0.13847375493E+03  0.20225647484E+03  0.16163724572E+03  0.29361413730E+03  0.00000000000E+00 0. -1.
        -13    1    5    5    0    0 -0.49339347944E+02  0.12949786356E+03  0.17500914848E+03  0.22323142694E+03  0.00000000000E+00 0.  1.
          3    1    6    6  503    0 -0.36993260636E+03 -0.66033506904E+02  0.87496885020E+02  0.38583190921E+03  0.00000000000E+00 0. -1.
         -3    1    6    6    0  503 -0.61149964003E+03 -0.80213628151E+02  0.34812696158E+02  0.61771996868E+03  0.00000000000E+00 0.  1.
<mgrwt>
<rscale>  0 0.26824453E+04</rscale>
<asrwt>0</asrwt>
<pdfrwt beam="1">  1        1 0.23778469E+00 0.26824453E+04</pdfrwt>
<pdfrwt beam="2">  1       -2 0.17905694E+00 0.26824453E+04</pdfrwt>
<totfact> 0.86000812E-01</totfact>
</mgrwt>
</event>
<event>
12    5  0.5041746E-008  0.1568040E+04  0.7818608E-02  0.8840426E-01
         -2   -1    0    0    0  501 -0.00000000000E+00  0.00000000000E+00  0.24479307435E+03  0.24479307435E+03  0.00000000000E+00 0.  1.
          1   -1    0    0  501    0  0.00000000000E+00 -0.00000000000E+00 -0.25110488510E+04  0.25110488510E+04  0.00000000000E+00 0. -1.
        -24    2    1    2    0    0  0.78247283831E+02  0.19279906206E+03  0.77377479117E+02  0.23653367297E+03  0.81650403648E+02 0.  0.
        254    2    1    2    0    0 -0.78247283831E+02 -0.19279906206E+03 -0.23436332558E+04  0.25193082524E+04  0.90055711489E+03 0.  0.
         23    2    4    4    0    0 -0.17578842944E+03  0.12724497757E+03 -0.11294750120E+03  0.26191223850E+03  0.93530884757E+02 0.  0.
         23    2    4    4    0    0  0.97541145606E+02 -0.32004403963E+03 -0.22306857546E+04  0.22573960139E+04  0.89080668324E+02 0.  0.
          1    1    3    3  502    0  0.42132826938E+02  0.16255922313E+03  0.31653437463E+02  0.17088772991E+03  0.00000000000E+00 0. -1.
         -4    1    3    3    0  502  0.36114456893E+02  0.30239838932E+02  0.45724041654E+02  0.65645943062E+02  0.00000000000E+00 0.  1.
         13    1    5    5    0    0 -0.89218566758E+02  0.48178782584E+02 -0.33965761204E+01  0.10145286824E+03  0.00000000000E+00 0. -1.
        -13    1    5    5    0    0 -0.86569862679E+02  0.79066194989E+02 -0.10955092508E+03  0.16045937025E+03  0.00000000000E+00 0.  1.
          2    1    6    6  503    0  0.10018514449E+02 -0.17925617672E+03 -0.12418306699E+04  0.12547416309E+04  0.00000000000E+00 0. -1.
         -2    1    6    6    0  503  0.87522631157E+02 -0.14078786292E+03 -0.98885508468E+03  0.10026543830E+04  0.00000000000E+00 0.  1.
<mgrwt>
<rscale>  0 0.15680400E+04</rscale>
<asrwt>0</asrwt>
<pdfrwt beam="1">  1        1 0.38631521E+00 0.15680400E+04</pdfrwt>
<pdfrwt beam="2">  1       -2 0.37660472E-01 0.15680400E+04</pdfrwt>
<totfact> 0.74962066E+00</totfact>
</mgrwt>
</event>
<event>
12    5  0.5041746E-008  0.2694867E+04  0.7818608E-02  0.8336672E-01
          1   -1    0    0  501    0  0.00000000000E+00  0.00000000000E+00  0.48516841582E+04  0.48516841582E+04  0.00000000000E+00 0. -1.
         -4   -1    0    0    0  501 -0.00000000000E+00 -0.00000000000E+00 -0.37421578051E+03  0.37421578051E+03  0.00000000000E+00 0.  1.
        -24    2    1    2    0    0 -0.68786160260E+03  0.94622322240E+03  0.24053844894E+04  0.26759586073E+04  0.79924685264E+02 0.  0.
        254    2    1    2    0    0  0.68786160260E+03 -0.94622322240E+03  0.20720838883E+04  0.25499413314E+04  0.91661179486E+03 0.  0.
         23    2    4    4    0    0  0.25720987920E+03  0.10754480120E+03  0.73681344361E+03  0.79288813696E+03  0.89748207941E+02 0.  0.
         23    2    4    4    0    0  0.43065172340E+03 -0.10537680236E+04  0.13352704447E+04  0.17570531944E+04  0.91655950031E+02 0.  0.
          3    1    3    3  502    0 -0.56082407824E+03  0.80497571016E+03  0.19630696612E+04  0.21945733151E+04  0.00000000000E+00 0. -1.
         -2    1    3    3    0  502 -0.12703752435E+03  0.14124751224E+03  0.44231482822E+03  0.48138529222E+03  0.00000000000E+00 0.  1.
         13    1    5    5    0    0  0.16072498944E+03  0.34654717075E+02  0.51007870930E+03  0.53592327933E+03  0.00000000000E+00 0. -1.
        -13    1    5    5    0    0  0.96484889757E+02  0.72890084127E+02  0.22673473431E+03  0.25696485763E+03  0.00000000000E+00 0.  1.
          3    1    6    6  503    0  0.94276950808E+00 -0.47346240566E+02  0.64843027456E+02  0.80294293196E+02  0.00000000000E+00 0. -1.
         -3    1    6    6    0  503  0.42970895389E+03 -0.10064217830E+04  0.12704274172E+04  0.16767589012E+04  0.00000000000E+00 0.  1.
<mgrwt>
<rscale>  0 0.26948668E+04</rscale>
<asrwt>0</asrwt>
<pdfrwt beam="1">  1        1 0.74641290E+00 0.26948668E+04</pdfrwt>
<pdfrwt beam="2">  1       -4 0.57571662E-01 0.26948668E+04</pdfrwt>
<totfact> 0.16587044E-02</totfact>
</mgrwt>
</event>
<event>
12    5  0.5041746E-008  0.2091063E+04  0.7818608E-02  0.8565191E-01
          1   -1    0    0  501    0  0.00000000000E+00  0.00000000000E+00  0.91182288203E+03  0.91182288203E+03  0.00000000000E+00 0. -1.
         -2   -1    0    0    0  501 -0.00000000000E+00 -0.00000000000E+00 -0.11988466783E+04  0.11988466783E+04  0.00000000000E+00 0.  1.
        -24    2    1    2    0    0  0.13962411972E+03 -0.18193461832E+03 -0.94329188737E+03  0.97432313836E+03  0.83131780989E+02 0.  0.
        254    2    1    2    0    0 -0.13962411972E+03  0.18193461832E+03  0.65626809112E+03  0.11363464220E+04  0.89888835966E+03 0.  0.
         23    2    4    4    0    0  0.37453023180E+03  0.48071661097E+02  0.27313887783E+03  0.47495114640E+03  0.91596756211E+02 0.  0.
         23    2    4    4    0    0 -0.51415435152E+03  0.13386295722E+03  0.38312921329E+03  0.66139527556E+03  0.91551777448E+02 0.  0.
          1    1    3    3  502    0  0.59763282866E+02 -0.29691036428E+02 -0.36370570865E+03  0.36977702758E+03  0.00000000000E+00 0. -1.
         -2    1    3    3    0  502  0.79860836854E+02 -0.15224358189E+03 -0.57958617872E+03  0.60454611078E+03  0.00000000000E+00 0.  1.
         13    1    5    5    0    0  0.37652905283E+03  0.38242574540E+02  0.26734068450E+03  0.46336558323E+03  0.00000000000E+00 0.  1.
        -13    1    5    5    0    0 -0.19988210286E+01  0.98290865564E+01  0.57981933330E+01  0.11585563170E+02  0.00000000000E+00 0. -1.
          4    1    6    6  503    0 -0.66217969541E+02 -0.93201809658E+01  0.29924283739E+02  0.73260821867E+02  0.00000000000E+00 0. -1.
         -4    1    6    6    0  503 -0.44793638198E+03  0.14318313819E+03  0.35320492955E+03  0.58813445369E+03  0.00000000000E+00 0.  1.
<mgrwt>
<rscale>  0 0.20910627E+04</rscale>
<asrwt>0</asrwt>
<pdfrwt beam="1">  1        1 0.14028044E+00 0.20910627E+04</pdfrwt>
<pdfrwt beam="2">  1       -2 0.18443795E+00 0.20910627E+04</pdfrwt>
<totfact> 0.24260396E+00</totfact>
</mgrwt>
</event>
<event>
12    5  0.5041746E-008  0.2083611E+04  0.7818608E-02  0.8568497E-01
         -2   -1    0    0    0  501 -0.00000000000E+00  0.00000000000E+00  0.13123377708E+04  0.13123377708E+04  0.00000000000E+00 0.  1.
          1   -1    0    0  501    0  0.00000000000E+00 -0.00000000000E+00 -0.82704225792E+03  0.82704225792E+03  0.00000000000E+00 0. -1.
        -24    2    1    2    0    0 -0.47530733573E+03  0.50635949416E+03  0.70006817123E+03  0.99064812227E+03  0.94716720060E+02 0.  0.
        254    2    1    2    0    0  0.47530733573E+03 -0.50635949416E+03 -0.21477265832E+03  0.11487319065E+04  0.88946090270E+03 0.  0.
         23    2    4    4    0    0 -0.18090277470E+03 -0.24407711420E+03  0.14539466569E+03  0.35011800186E+03  0.95621937068E+02 0.  0.
         23    2    4    4    0    0  0.65621011043E+03 -0.26228237997E+03 -0.36016732402E+03  0.79861390460E+03  0.93058645279E+02 0.  0.
          3    1    3    3  502    0 -0.13401319149E+03  0.86793492684E+02  0.17394206214E+03  0.23611117476E+03  0.00000000000E+00 0. -1.
         -4    1    3    3    0  502 -0.34129414425E+03  0.41956600148E+03  0.52612610909E+03  0.75453694751E+03  0.00000000000E+00 0.  1.
         13    1    5    5    0    0 -0.16856950923E+03 -0.16374204213E+03  0.89468920959E+02  0.25145938761E+03  0.00000000000E+00 0.  1.
        -13    1    5    5    0    0 -0.12333265469E+02 -0.80335072069E+02  0.55925744734E+02  0.98658614249E+02  0.00000000000E+00 0. -1.
          2    1    6    6  503    0  0.34488126112E+02 -0.39279297443E+02 -0.27413590862E+02  0.59023715694E+02  0.00000000000E+00 0. -1.
         -2    1    6    6    0  503  0.62172198432E+03 -0.22300308252E+03 -0.33275373315E+03  0.73959018891E+03  0.00000000000E+00 0.  1.
<mgrwt>
<rscale>  0 0.20836111E+04</rscale>
<asrwt>0</asrwt>
<pdfrwt beam="1">  1        1 0.12723727E+00 0.20836111E+04</pdfrwt>
<pdfrwt beam="2">  1       -2 0.20189812E+00 0.20836111E+04</pdfrwt>
<totfact> 0.21843429E+00</totfact>
</mgrwt>
</event>
<event>
12    5  0.5041746E-008  0.1492783E+04  0.7818608E-02  0.8889266E-01
          1   -1    0    0  501    0  0.00000000000E+00  0.00000000000E+00  0.26836960167E+04  0.26836960167E+04  0.00000000000E+00 0. -1.
         -2   -1    0    0    0  501 -0.00000000000E+00 -0.00000000000E+00 -0.20758693358E+03  0.20758693358E+03  0.00000000000E+00 0.  1.
        -24    2    1    2    0    0  0.45632801064E+02  0.49736081651E+02 -0.11050476249E+03  0.15238245958E+03  0.80331071839E+02 0.  0.
        254    2    1    2    0    0 -0.45632801064E+02 -0.49736081651E+02  0.25866138456E+04  0.27389004907E+04  0.89802487787E+03 0.  0.
         23    2    4    4    0    0 -0.14971590515E+03 -0.33014325534E+03  0.22439479754E+04  0.22749709143E+04  0.93705512765E+02 0.  0.
         23    2    4    4    0    0  0.10408310409E+03  0.28040717369E+03  0.34266587018E+03  0.46392957640E+03  0.91374381898E+02 0.  0.
          1    1    3    3  502    0  0.19290932217E+02 -0.19228185729E+02 -0.13268820703E+02  0.30297273723E+02  0.00000000000E+00 0. -1.
         -2    1    3    3    0  502  0.26341868847E+02  0.68964267380E+02 -0.97235941787E+02  0.12208518585E+03  0.00000000000E+00 0.  1.
         13    1    5    5    0    0 -0.14084268549E+03 -0.33434795371E+03  0.21374876106E+04  0.21680586942E+04  0.00000000000E+00 0. -1.
        -13    1    5    5    0    0 -0.88732196615E+01  0.42046983770E+01  0.10646036483E+03  0.10691222004E+03  0.00000000000E+00 0.  1.
          2    1    6    6  503    0  0.68796742403E+02  0.71937972523E+02  0.13341535078E+03  0.16645635909E+03  0.00000000000E+00 0.  1.
         -2    1    6    6    0  503  0.35286361687E+02  0.20846920116E+03  0.20925051939E+03  0.29747321732E+03  0.00000000000E+00 0. -1.
<mgrwt>
<rscale>  0 0.14927829E+04</rscale>
<asrwt>0</asrwt>
<pdfrwt beam="1">  1        1 0.41287629E+00 0.14927829E+04</pdfrwt>
<pdfrwt beam="2">  1       -2 0.31936453E-01 0.14927829E+04</pdfrwt>
<totfact> 0.78398410E+00</totfact>
</mgrwt>
</event>
<event>
12    5  0.5041746E-008  0.2962603E+04  0.7818608E-02  0.8254491E-01
         -2   -1    0    0    0  501 -0.00000000000E+00  0.00000000000E+00  0.19458318966E+04  0.19458318966E+04  0.00000000000E+00 0.  1.
          1   -1    0    0  501    0  0.00000000000E+00 -0.00000000000E+00 -0.11276687932E+04  0.11276687932E+04  0.00000000000E+00 0. -1.
        -24    2    1    2    0    0 -0.12491870840E+04  0.26618778794E+03  0.79065134521E+03  0.15050053438E+04  0.92667286152E+02 0.  0.
        254    2    1    2    0    0  0.12491870840E+04 -0.26618778794E+03  0.27511758223E+02  0.15684953460E+04  0.90999804636E+03 0.  0.
         23    2    4    4    0    0  0.16701394650E+03 -0.77018957780E+02 -0.34734593778E+03  0.40374616823E+03  0.92391502239E+02 0.  0.
         23    2    4    4    0    0  0.10821731375E+04 -0.18916883016E+03  0.37485769600E+03  0.11647491778E+04  0.96118723976E+02 0.  0.
          1    1    3    3  502    0 -0.63820414982E+03  0.17277256649E+03  0.37434182014E+03  0.75979385025E+03  0.00000000000E+00 0. -1.
         -2    1    3    3    0  502 -0.61098293418E+03  0.93415221447E+02  0.41630952507E+03  0.74521149355E+03  0.00000000000E+00 0.  1.
         13    1    5    5    0    0  0.70080077756E+02 -0.14813227699E+02 -0.57493624897E+02  0.91848603239E+02  0.00000000000E+00 0. -1.
        -13    1    5    5    0    0  0.96933868744E+02 -0.62205730081E+02 -0.28985231288E+03  0.31189756499E+03  0.00000000000E+00 0.  1.
          1    1    6    6  503    0  0.75649788576E+03 -0.11865797390E+03  0.30518742712E+03  0.82432283215E+03  0.00000000000E+00 0. -1.
         -1    1    6    6    0  503  0.32567525174E+03 -0.70510856254E+02  0.69670268881E+02  0.34042634565E+03  0.00000000000E+00 0.  1.
<mgrwt>
<rscale>  0 0.29626028E+04</rscale>
<asrwt>0</asrwt>
<pdfrwt beam="1">  1        1 0.17348751E+00 0.29626028E+04</pdfrwt>
<pdfrwt beam="2">  1       -2 0.29935875E+00 0.29626028E+04</pdfrwt>
<totfact> 0.29044275E-01</totfact>
</mgrwt>
</event>
<event>
12    5  0.5041746E-008  0.2559953E+04  0.7818608E-02  0.8381933E-01
         -2   -1    0    0    0  501 -0.00000000000E+00  0.00000000000E+00  0.59476263444E+03  0.59476263444E+03  0.00000000000E+00 0.  1.
          1   -1    0    0  501    0  0.00000000000E+00 -0.00000000000E+00 -0.27546115700E+04  0.27546115700E+04  0.00000000000E+00 0. -1.
        -24    2    1    2    0    0  0.23836946096E+03 -0.62198503025E+03  0.24483432393E+03  0.71413773974E+03  0.79771469612E+02 0.  0.
        254    2    1    2    0    0 -0.23836946096E+03  0.62198503025E+03 -0.24046832595E+04  0.26352364647E+04  0.84751652999E+03 0.  0.
         23    2    4    4    0    0 -0.11160608013E+03  0.46209693424E+03 -0.42872677700E+03  0.64675242680E+03  0.92155078555E+02 0.  0.
         23    2    4    4    0    0 -0.12676338083E+03  0.15988809601E+03 -0.19759564825E+04  0.19884840379E+04  0.89619140128E+02 0.  0.
          3    1    3    3  502    0  0.22632545021E+02 -0.29527929196E+02 -0.14451797862E+01  0.37231965317E+02  0.00000000000E+00 0. -1.
         -4    1    3    3    0  502  0.21573691594E+03 -0.59245710106E+03  0.24627950372E+03  0.67690577442E+03  0.00000000000E+00 0.  1.
         13    1    5    5    0    0  0.34879459858E+01  0.15783800770E+03 -0.12037255574E+03  0.19853099158E+03  0.00000000000E+00 0. -1.
        -13    1    5    5    0    0 -0.11509402611E+03  0.30425892654E+03 -0.30835422125E+03  0.44822143522E+03  0.00000000000E+00 0.  1.
          1    1    6    6  503    0 -0.86152121942E+02  0.40261736853E+02 -0.73911202305E+03  0.74520452105E+03  0.00000000000E+00 0. -1.
         -1    1    6    6    0  503 -0.40611258889E+02  0.11962635916E+03 -0.12368444594E+04  0.12432795168E+04  0.00000000000E+00 0.  1.
<mgrwt>
<rscale>  0 0.25599532E+04</rscale>
<asrwt>0</asrwt>
<pdfrwt beam="1">  1        1 0.42378640E+00 0.25599532E+04</pdfrwt>
<pdfrwt beam="2">  1       -2 0.91501943E-01 0.25599532E+04</pdfrwt>
<totfact> 0.70945019E-01</totfact>
</mgrwt>
</event>
<event>
12    5  0.5041746E-008  0.2366035E+04  0.7818608E-02  0.8452330E-01
         -2   -1    0    0    0  501 -0.00000000000E+00  0.00000000000E+00  0.11084041460E+04  0.11084041460E+04  0.00000000000E+00 0.  1.
          1   -1    0    0  501    0  0.00000000000E+00 -0.00000000000E+00 -0.12626531731E+04  0.12626531731E+04  0.00000000000E+00 0. -1.
        -24    2    1    2    0    0  0.42279127773E+03  0.84066346516E+03  0.30577422092E+03  0.99268437463E+03  0.80354634546E+02 0.  0.
        254    2    1    2    0    0 -0.42279127773E+03 -0.84066346516E+03 -0.46002324804E+03  0.13783729444E+04  0.89600393921E+03 0.  0.
         23    2    4    4    0    0 -0.32081352270E+03 -0.22100663059E+03 -0.60723902756E+03  0.72710446156E+03  0.90423527430E+02 0.  0.
         23    2    4    4    0    0 -0.10197775503E+03 -0.61965683456E+03  0.14721577952E+03  0.65126848289E+03  0.90022752283E+02 0.  0.
          3    1    3    3  502    0  0.21928710870E+02  0.16607618020E+02  0.34747017097E+01  0.27726429425E+02  0.00000000000E+00 0. -1.
         -4    1    3    3    0  502  0.40086256686E+03  0.82405584714E+03  0.30229951921E+03  0.96495794521E+03  0.00000000000E+00 0.  1.
         13    1    5    5    0    0 -0.30212705556E+03 -0.22122540885E+03 -0.53869959679E+03  0.65606302655E+03  0.00000000000E+00 0.  1.
        -13    1    5    5    0    0 -0.18686467134E+02  0.21877825426E+00 -0.68539430763E+02  0.71041435002E+02  0.00000000000E+00 0. -1.
          4    1    6    6  503    0 -0.82848247984E+02 -0.23522717614E+03  0.63964798868E+02  0.25746291399E+03  0.00000000000E+00 0. -1.
         -4    1    6    6    0  503 -0.19129507046E+02 -0.38442965843E+03  0.83250980648E+02  0.39380556890E+03  0.00000000000E+00 0.  1.
<mgrwt>
<rscale>  0 0.23660347E+04</rscale>
<asrwt>0</asrwt>
<pdfrwt beam="1">  1        1 0.19425433E+00 0.23660347E+04</pdfrwt>
<pdfrwt beam="2">  1       -2 0.17052371E+00 0.23660347E+04</pdfrwt>
<totfact> 0.16035942E+00</totfact>
</mgrwt>
</event>
<event>
12    5  0.5041746E-008  0.2221274E+04  0.7818608E-02  0.8509625E-01
         -2   -1    0    0    0  501 -0.00000000000E+00  0.00000000000E+00  0.36837553314E+03  0.36837553314E+03  0.00000000000E+00 0.  1.
          1   -1    0    0  501    0  0.00000000000E+00 -0.00000000000E+00 -0.33485239729E+04  0.33485239729E+04  0.00000000000E+00 0. -1.
        -24    2    1    2    0    0  0.38147907114E+03 -0.64906397194E+03 -0.21086578817E+04  0.22404574266E+04  0.80006855237E+02 0.  0.
        254    2    1    2    0    0 -0.38147907114E+03  0.64906397194E+03 -0.87149055808E+03  0.14764420795E+04  0.92389128140E+03 0.  0.
         23    2    4    4    0    0 -0.31072035734E+03  0.83748749031E+03 -0.87729066515E+03  0.12554605454E+04  0.92789185905E+02 0.  0.
         23    2    4    4    0    0 -0.70758713802E+02 -0.18842351836E+03  0.58001070688E+01  0.22098153408E+03  0.91043831799E+02 0.  0.
          3    1    3    3  502    0  0.18971999156E+03 -0.26916495515E+03 -0.10062489081E+04  0.10587635777E+04  0.00000000000E+00 0. -1.
         -2    1    3    3    0  502  0.19175907958E+03 -0.37989901679E+03 -0.11024089736E+04  0.11816938489E+04  0.00000000000E+00 0.  1.
         13    1    5    5    0    0 -0.23254074127E+03  0.53887587767E+03 -0.61859358356E+03  0.85271356827E+03  0.00000000000E+00 0. -1.
        -13    1    5    5    0    0 -0.78179616072E+02  0.29861161263E+03 -0.25869708159E+03  0.40274697714E+03  0.00000000000E+00 0.  1.
          1    1    6    6  503    0 -0.19660873377E+01 -0.11453300430E+03 -0.21158348261E+02  0.11648755416E+03  0.00000000000E+00 0. -1.
         -1    1    6    6    0  503 -0.68792626465E+02 -0.73890514065E+02  0.26958455330E+02  0.10449397992E+03  0.00000000000E+00 0.  1.
<mgrwt>
<rscale>  0 0.22212738E+04</rscale>
<asrwt>0</asrwt>
<pdfrwt beam="1">  1        1 0.51515755E+00 0.22212738E+04</pdfrwt>
<pdfrwt beam="2">  1       -2 0.56673158E-01 0.22212738E+04</pdfrwt>
<totfact> 0.76726897E-01</totfact>
</mgrwt>
</event>
<event>
12    5  0.5041746E-008  0.1723077E+04  0.7818608E-02  0.8748311E-01
         -2   -1    0    0    0  501 -0.00000000000E+00  0.00000000000E+00  0.19762570011E+03  0.19762570011E+03  0.00000000000E+00 0.  1.
          1   -1    0    0  501    0  0.00000000000E+00 -0.00000000000E+00 -0.37558303060E+04  0.37558303060E+04  0.00000000000E+00 0. -1.
        -24    2    1    2    0    0 -0.51069633972E+03  0.20271580481E+03 -0.19275918619E+04  0.20059913326E+04  0.80538136040E+02 0.  0.
        254    2    1    2    0    0  0.51069633972E+03 -0.20271580481E+03 -0.16306127439E+04  0.19474646735E+04  0.91203962901E+03 0.  0.
         23    2    4    4    0    0  0.24691596625E+03 -0.19599273355E+03 -0.16354324431E+04  0.16680847606E+04  0.92124083882E+02 0.  0.
         23    2    4    4    0    0  0.26378037346E+03 -0.67230712573E+01  0.48196991198E+01  0.27937991287E+03  0.91676720612E+02 0.  0.
          1    1    3    3  502    0 -0.18331273033E+03  0.73333231319E+02 -0.83804198612E+03  0.86098530209E+03  0.00000000000E+00 0. -1.
         -2    1    3    3    0  502 -0.32738360939E+03  0.12938257349E+03 -0.10895498758E+04  0.11450060305E+04  0.00000000000E+00 0.  1.
         13    1    5    5    0    0  0.19372886488E+03 -0.11117821789E+03 -0.98615718525E+03  0.10111367184E+04  0.00000000000E+00 0. -1.
        -13    1    5    5    0    0  0.53187101371E+02 -0.84814515655E+02 -0.64927525780E+03  0.65694804225E+03  0.00000000000E+00 0.  1.
          3    1    6    6  503    0  0.20648957404E+03 -0.41398258653E+02  0.17116814175E+02  0.21129303191E+03  0.00000000000E+00 0. -1.
         -3    1    6    6    0  503  0.57290799421E+02  0.34675187396E+02 -0.12297115055E+02  0.68086880953E+02  0.00000000000E+00 0.  1.
<mgrwt>
<rscale>  0 0.17230770E+04</rscale>
<asrwt>0</asrwt>
<pdfrwt beam="1">  1        1 0.57781999E+00 0.17230770E+04</pdfrwt>
<pdfrwt beam="2">  1       -2 0.30403957E-01 0.17230770E+04</pdfrwt>
<totfact> 0.13079080E+00</totfact>
</mgrwt>
</event>
<event>
12    5  0.5041746E-008  0.1358224E+04  0.7818608E-02  0.8984626E-01
         -2   -1    0    0    0  501 -0.00000000000E+00  0.00000000000E+00  0.14941785760E+04  0.14941785760E+04  0.00000000000E+00 0.  1.
          1   -1    0    0  501    0  0.00000000000E+00 -0.00000000000E+00 -0.30865993683E+03  0.30865993683E+03  0.00000000000E+00 0. -1.
        -24    2    1    2    0    0 -0.12234153494E+03  0.30823156055E+02 -0.13592234104E+03  0.20225902304E+03  0.80723673641E+02 0.  0.
        254    2    1    2    0    0  0.12234153494E+03 -0.30823156055E+02  0.13214409802E+04  0.16005794897E+04  0.89427675850E+03 0.  0.
         23    2    4    4    0    0  0.37538390729E+03 -0.12938514102E+03  0.22180538239E+03  0.46406650776E+03  0.92230707444E+02 0.  0.
         23    2    4    4    0    0 -0.25304237235E+03  0.98561984970E+02  0.10996355978E+04  0.11365129820E+04  0.93372390038E+02 0.  0.
          3    1    3    3  502    0 -0.11966604840E+03  0.27015428606E+01 -0.96451130204E+02  0.15372079232E+03  0.00000000000E+00 0. -1.
         -4    1    3    3    0  502 -0.26754865454E+01  0.28121613194E+02 -0.39471210834E+02  0.48538230722E+02  0.00000000000E+00 0.  1.
         13    1    5    5    0    0 -0.54180522067E+00  0.37595617119E+01  0.13720499526E+02  0.14236571371E+02  0.00000000000E+00 0. -1.
        -13    1    5    5    0    0  0.37592571251E+03 -0.13314470274E+03  0.20808488286E+03  0.44982993639E+03  0.00000000000E+00 0.  1.
          3    1    6    6  503    0 -0.34918322972E+02 -0.15398125392E+02  0.10013866673E+03  0.10716409902E+03  0.00000000000E+00 0. -1.
         -3    1    6    6    0  503 -0.21812404938E+03  0.11396011036E+03  0.99949693105E+03  0.10293488830E+04  0.00000000000E+00 0.  1.
<mgrwt>
<rscale>  0 0.13582239E+04</rscale>
<asrwt>0</asrwt>
<pdfrwt beam="1">  1        1 0.47486145E-01 0.13582239E+04</pdfrwt>
<pdfrwt beam="2">  1       -2 0.22987362E+00 0.13582239E+04</pdfrwt>
<totfact> 0.61808054E+00</totfact>
</mgrwt>
</event>
<event>
12    5  0.5041746E-008  0.1427565E+04  0.7818608E-02  0.8934104E-01
          1   -1    0    0  501    0  0.00000000000E+00  0.00000000000E+00  0.89797378462E+03  0.89797378462E+03  0.00000000000E+00 0. -1.
         -2   -1    0    0    0  501 -0.00000000000E+00 -0.00000000000E+00 -0.56737198019E+03  0.56737198019E+03  0.00000000000E+00 0.  1.
        -24    2    1    2    0    0  0.34411050769E+03 -0.36329210540E+01 -0.15434040185E+03  0.38556930155E+03  0.80109219398E+02 0.  0.
        254    2    1    2    0    0 -0.34411050769E+03  0.36329210540E+01  0.48494220628E+03  0.10797764633E+04  0.90128964688E+03 0.  0.
         23    2    4    4    0    0  0.75907197486E+02  0.36637479882E+03  0.29448076654E+03  0.48526687965E+03  0.93662301784E+02 0.  0.
         23    2    4    4    0    0 -0.42001770518E+03 -0.36274187777E+03  0.19046143974E+03  0.59450958362E+03  0.95757727811E+02 0.  0.
          1    1    3    3  502    0  0.63208806875E+01  0.12115328261E+02 -0.13644973708E+02  0.19311137176E+02  0.00000000000E+00 0. -1.
         -2    1    3    3    0  502  0.33778962700E+03 -0.15748249315E+02 -0.14069542814E+03  0.36625816437E+03  0.00000000000E+00 0.  1.
         13    1    5    5    0    0  0.27447970325E+02  0.29336952300E+03  0.25279323657E+03  0.38823123079E+03  0.00000000000E+00 0. -1.
        -13    1    5    5    0    0  0.48459227160E+02  0.73005275821E+02  0.41687529972E+02  0.97035648861E+02  0.00000000000E+00 0.  1.
          2    1    6    6  503    0 -0.30815741814E+03 -0.22953475318E+03  0.16707200172E+03  0.41899910624E+03  0.00000000000E+00 0. -1.
         -2    1    6    6    0  503 -0.11186028704E+03 -0.13320712459E+03  0.23389438013E+02  0.17551047738E+03  0.00000000000E+00 0.  1.
<mgrwt>
<rscale>  0 0.14275646E+04</rscale>
<asrwt>0</asrwt>
<pdfrwt beam="1">  1        1 0.13814981E+00 0.14275646E+04</pdfrwt>
<pdfrwt beam="2">  1       -2 0.87287997E-01 0.14275646E+04</pdfrwt>
<totfact> 0.17662764E+01</totfact>
</mgrwt>
</event>
<event>
12    5  0.5041746E-008  0.2329532E+04  0.7818608E-02  0.8466367E-01
          1   -1    0    0  501    0  0.00000000000E+00  0.00000000000E+00  0.96149321707E+03  0.96149321707E+03  0.00000000000E+00 0. -1.
         -2   -1    0    0    0  501 -0.00000000000E+00 -0.00000000000E+00 -0.14110132713E+04  0.14110132713E+04  0.00000000000E+00 0.  1.
        -24    2    1    2    0    0  0.16299914204E+03  0.75268276202E+03 -0.82635696968E+03  0.11323672543E+04  0.79307608509E+02 0.  0.
        254    2    1    2    0    0 -0.16299914204E+03 -0.75268276202E+03  0.37683691544E+03  0.12401392341E+04  0.89601294547E+03 0.  0.
         23    2    4    4    0    0  0.23103922360E+03  0.29620138644E+02 -0.60652362521E+02  0.25682066651E+03  0.89563777326E+02 0.  0.
         23    2    4    4    0    0 -0.39403836565E+03 -0.78230290066E+03  0.43748927796E+03  0.98331856755E+03  0.90854141152E+02 0.  0.
          3    1    3    3  502    0  0.14463622726E+02  0.60280405406E+02 -0.10202082168E+03  0.11937827154E+03  0.00000000000E+00 0. -1.
         -4    1    3    3    0  502  0.14853551932E+03  0.69240235661E+03 -0.72433614799E+03  0.10129889828E+04  0.00000000000E+00 0.  1.
         13    1    5    5    0    0  0.34729203329E+02 -0.28285586423E+02 -0.82102514090E+01  0.45536800407E+02  0.00000000000E+00 0. -1.
        -13    1    5    5    0    0  0.19631002028E+03  0.57905725067E+02 -0.52442111112E+02  0.21128386610E+03  0.00000000000E+00 0.  1.
          4    1    6    6  503    0 -0.69445514447E+02 -0.21545666969E+03  0.91759889423E+02  0.24426242711E+03  0.00000000000E+00 0.  1.
         -4    1    6    6    0  503 -0.32459285120E+03 -0.56684623097E+03  0.34572938854E+03  0.73905614043E+03  0.00000000000E+00 0. -1.
<mgrwt>
<rscale>  0 0.23295319E+04</rscale>
<asrwt>0</asrwt>
<pdfrwt beam="1">  1        1 0.14792203E+00 0.23295319E+04</pdfrwt>
<pdfrwt beam="2">  1       -2 0.21707897E+00 0.23295319E+04</pdfrwt>
<totfact> 0.13230929E+00</totfact>
</mgrwt>
</event>
<event>
12    5  0.5041746E-008  0.1303312E+04  0.7818608E-02  0.9026943E-01
         -2   -1    0    0    0  501 -0.00000000000E+00  0.00000000000E+00  0.22302043549E+03  0.22302043549E+03  0.00000000000E+00 0.  1.
          1   -1    0    0  501    0  0.00000000000E+00 -0.00000000000E+00 -0.19041116338E+04  0.19041116338E+04  0.00000000000E+00 0. -1.
        -24    2    1    2    0    0  0.20459497996E+03 -0.25250798478E+03 -0.55236071940E+03  0.64575810390E+03  0.79257657165E+02 0.  0.
        254    2    1    2    0    0 -0.20459497996E+03  0.25250798478E+03 -0.11287304789E+04  0.14813739653E+04  0.90267211270E+03 0.  0.
         23    2    4    4    0    0 -0.19046205410E+02  0.19978360197E+02 -0.11650059482E+04  0.11684449463E+04  0.85222299051E+02 0.  0.
         23    2    4    4    0    0 -0.18554877455E+03  0.23252962459E+03  0.36275469373E+02  0.31292901905E+03  0.90057133172E+02 0.  0.
          3    1    3    3  502    0  0.10291271496E+03 -0.85604292222E+02 -0.17031162369E+03  0.21662218472E+03  0.00000000000E+00 0. -1.
         -4    1    3    3    0  502  0.10168226500E+03 -0.16690369256E+03 -0.38204909570E+03  0.42913591918E+03  0.00000000000E+00 0.  1.
         13    1    5    5    0    0  0.87926976416E+01  0.43643983301E+02 -0.38176902772E+03  0.38435621413E+03  0.00000000000E+00 0. -1.
        -13    1    5    5    0    0 -0.27838903052E+02 -0.23665623104E+02 -0.78323692052E+03  0.78408873216E+03  0.00000000000E+00 0.  1.
          2    1    6    6  503    0 -0.58436991615E+02  0.23056637007E+02 -0.98896974840E+01  0.63594784499E+02  0.00000000000E+00 0. -1.
         -2    1    6    6    0  503 -0.12711178294E+03  0.20947298758E+03  0.46165166857E+02  0.24933423455E+03  0.00000000000E+00 0.  1.
<mgrwt>
<rscale>  0 0.13033124E+04</rscale>
<asrwt>0</asrwt>
<pdfrwt beam="1">  1        1 0.29294024E+00 0.13033124E+04</pdfrwt>
<pdfrwt beam="2">  1       -2 0.34310837E-01 0.13033124E+04</pdfrwt>
<totfact> 0.23774181E+01</totfact>
</mgrwt>
</event>
<event>
12    5  0.5041746E-008  0.1479906E+04  0.7818608E-02  0.8897926E-01
         -2   -1    0    0    0  501 -0.00000000000E+00  0.00000000000E+00  0.37258147825E+03  0.37258147825E+03  0.00000000000E+00 0.  1.
          1   -1    0    0  501    0  0.00000000000E+00 -0.00000000000E+00 -0.14695597429E+04  0.14695597429E+04  0.00000000000E+00 0. -1.
        -24    2    1    2    0    0 -0.16555487482E+03 -0.22406484103E+03 -0.80481305140E+03  0.85562798038E+03  0.82229699965E+02 0.  0.
        254    2    1    2    0    0  0.16555487482E+03  0.22406484103E+03 -0.29216521322E+03  0.98651324072E+03  0.90013020877E+03 0.  0.
         23    2    4    4    0    0  0.95648980849E+02 -0.23525823856E+03  0.17529364438E+03  0.32099546711E+03  0.88402838175E+02 0.  0.
         23    2    4    4    0    0  0.69905893973E+02  0.45932307959E+03 -0.46745885760E+03  0.66551777361E+03  0.92366649791E+02 0.  0.
          3    1    3    3  502    0 -0.12206825771E+03 -0.97166056084E+02 -0.41291213439E+03  0.44140495321E+03  0.00000000000E+00 0. -1.
         -4    1    3    3    0  502 -0.43486617114E+02 -0.12689878494E+03 -0.39190091701E+03  0.41422302717E+03  0.00000000000E+00 0.  1.
         13    1    5    5    0    0  0.78225261337E+02 -0.22928151693E+03  0.18020438318E+03  0.30193182216E+03  0.00000000000E+00 0.  1.
        -13    1    5    5    0    0  0.17423719512E+02 -0.59767216279E+01 -0.49107388006E+01  0.19063644946E+02  0.00000000000E+00 0. -1.
          4    1    6    6  503    0  0.52287790095E+02  0.10823415513E+03 -0.93600192946E+02  0.15234710844E+03  0.00000000000E+00 0. -1.
         -4    1    6    6    0  503  0.17618103878E+02  0.35108892446E+03 -0.37385866465E+03  0.51317066517E+03  0.00000000000E+00 0.  1.
<mgrwt>
<rscale>  0 0.14799064E+04</rscale>
<asrwt>0</asrwt>
<pdfrwt beam="1">  1        1 0.22608611E+00 0.14799064E+04</pdfrwt>
<pdfrwt beam="2">  1       -2 0.57320229E-01 0.14799064E+04</pdfrwt>
<totfact> 0.16651160E+01</totfact>
</mgrwt>
</event>
<event>
12    5  0.5041746E-008  0.2038881E+04  0.7818608E-02  0.8588655E-01
          1   -1    0    0  501    0  0.00000000000E+00  0.00000000000E+00  0.19334834620E+04  0.19334834620E+04  0.00000000000E+00 0. -1.
         -2   -1    0    0    0  501 -0.00000000000E+00 -0.00000000000E+00 -0.53750602231E+03  0.53750602231E+03  0.00000000000E+00 0.  1.
        -24    2    1    2    0    0  0.19921017643E+03 -0.47098375466E+03 -0.22732631073E+03  0.56543037091E+03  0.80770423112E+02 0.  0.
        254    2    1    2    0    0 -0.19921017643E+03  0.47098375466E+03  0.16233037505E+04  0.19055591134E+04  0.85704730147E+03 0.  0.
         23    2    4    4    0    0 -0.25553828425E+03  0.96323859862E+01  0.13095144708E+04  0.13376851393E+04  0.95816413633E+02 0.  0.
         23    2    4    4    0    0  0.56328107813E+02  0.46135136868E+03  0.31378927962E+03  0.56787397408E+03  0.89438231876E+02 0.  0.
          3    1    3    3  502    0  0.42805527003E+02 -0.13613007810E+03 -0.10111432867E+03  0.17489373564E+03  0.00000000000E+00 0. -1.
         -4    1    3    3    0  502  0.15640464943E+03 -0.33485367656E+03 -0.12621198206E+03  0.39053663527E+03  0.00000000000E+00 0.  1.
         13    1    5    5    0    0 -0.24154890724E+03 -0.58752291340E+01  0.12720362383E+04  0.12947805159E+04  0.00000000000E+00 0.  1.
        -13    1    5    5    0    0 -0.13989377008E+02  0.15507615120E+02  0.37478232548E+02  0.42904623418E+02  0.00000000000E+00 0. -1.
          1    1    6    6  503    0  0.12944022965E+02  0.21656068191E+03  0.95508639174E+02  0.23704003214E+03  0.00000000000E+00 0. -1.
         -1    1    6    6    0  503  0.43384084848E+02  0.24479068677E+03  0.21828064044E+03  0.33083394194E+03  0.00000000000E+00 0.  1.
<mgrwt>
<rscale>  0 0.20388811E+04</rscale>
<asrwt>0</asrwt>
<pdfrwt beam="1">  1        1 0.29745899E+00 0.20388811E+04</pdfrwt>
<pdfrwt beam="2">  1       -2 0.82693235E-01 0.20388811E+04</pdfrwt>
<totfact> 0.34434054E+00</totfact>
</mgrwt>
</event>
<event>
12    5  0.5041746E-008  0.1990471E+04  0.7818608E-02  0.8611089E-01
         -2   -1    0    0    0  501 -0.00000000000E+00  0.00000000000E+00  0.54098118342E+03  0.54098118342E+03  0.00000000000E+00 0.  1.
          1   -1    0    0  501    0  0.00000000000E+00 -0.00000000000E+00 -0.18309213312E+04  0.18309213312E+04  0.00000000000E+00 0. -1.
        -24    2    1    2    0    0 -0.21504485835E+03  0.10325291052E+03  0.38338035844E+03  0.45822214339E+03  0.77984478078E+02 0.  0.
        254    2    1    2    0    0  0.21504485835E+03 -0.10325291052E+03 -0.16733205062E+04  0.19136803712E+04  0.89736591871E+03 0.  0.
         23    2    4    4    0    0  0.24920401403E+03 -0.76292072419E+02 -0.45673121851E+02  0.28297420731E+03  0.10032570469E+03 0.  0.
         23    2    4    4    0    0 -0.34159155676E+02 -0.26960838103E+02 -0.16276473844E+04  0.16307061639E+04  0.89849042775E+02 0.  0.
          1    1    3    3  502    0 -0.39405027007E+01 -0.40148737354E+01  0.44231437524E+02  0.44587743137E+02  0.00000000000E+00 0. -1.
         -2    1    3    3    0  502 -0.21110435565E+03  0.10726778426E+03  0.33914892092E+03  0.41363440026E+03  0.00000000000E+00 0.  1.
         13    1    5    5    0    0  0.94108610035E+02 -0.80499397035E+02 -0.26465852925E+02  0.12663737512E+03  0.00000000000E+00 0. -1.
        -13    1    5    5    0    0  0.15509540400E+03  0.42073246164E+01 -0.19207268926E+02  0.15633683219E+03  0.00000000000E+00 0.  1.
          1    1    6    6  503    0 -0.28011721628E+02  0.25345101962E+02 -0.10452336913E+04  0.10459161057E+04  0.00000000000E+00 0. -1.
         -1    1    6    6    0  503 -0.61474340480E+01 -0.52305940065E+02 -0.58241369310E+03  0.58479005825E+03  0.00000000000E+00 0.  1.
<mgrwt>
<rscale>  0 0.19904713E+04</rscale>
<asrwt>0</asrwt>
<pdfrwt beam="1">  1        1 0.28168021E+00 0.19904713E+04</pdfrwt>
<pdfrwt beam="2">  1       -2 0.83227874E-01 0.19904713E+04</pdfrwt>
<totfact> 0.39996550E+00</totfact>
</mgrwt>
</event>
<event>
12    5  0.5041746E-008  0.1203682E+04  0.7818608E-02  0.9109640E-01
         -4   -1    0    0    0  501 -0.00000000000E+00  0.00000000000E+00  0.17553228942E+04  0.17553228942E+04  0.00000000000E+00 0.  1.
          3   -1    0    0  501    0  0.00000000000E+00 -0.00000000000E+00 -0.20635103569E+03  0.20635103569E+03  0.00000000000E+00 0. -1.
        -24    2    1    2    0    0  0.24454062079E+02 -0.20169590768E+03  0.56419065830E+03  0.60699963312E+03  0.94118092640E+02 0.  0.
        254    2    1    2    0    0 -0.24454062079E+02  0.20169590768E+03  0.98478120022E+03  0.13546742968E+04  0.90778257186E+03 0.  0.
         23    2    4    4    0    0 -0.21845712846E+03 -0.26023911946E+03  0.66533148982E+03  0.75249649972E+03  0.90205734118E+02 0.  0.
         23    2    4    4    0    0  0.19400306638E+03  0.46193502714E+03  0.31944971040E+03  0.60217779708E+03  0.97718077930E+02 0.  0.
          3    1    3    3  502    0  0.47818391297E+02 -0.50977152005E+02  0.14610034850E+03  0.16195857620E+03  0.00000000000E+00 0. -1.
         -4    1    3    3    0  502 -0.23364329218E+02 -0.15071875567E+03  0.41809030980E+03  0.44504105692E+03  0.00000000000E+00 0.  1.
         13    1    5    5    0    0 -0.19390650050E+03 -0.18734352068E+03  0.45952366428E+03  0.53278450025E+03  0.00000000000E+00 0. -1.
        -13    1    5    5    0    0 -0.24550627961E+02 -0.72895598784E+02  0.20580782554E+03  0.21971199947E+03  0.00000000000E+00 0.  1.
          3    1    6    6  503    0  0.19392160079E+03  0.36535382919E+03  0.26626969632E+03  0.49192332627E+03  0.00000000000E+00 0. -1.
         -3    1    6    6    0  503  0.81465592746E-01  0.96581197952E+02  0.53180014084E+02  0.11025447080E+03  0.00000000000E+00 0.  1.
<mgrwt>
<rscale>  0 0.12036822E+04</rscale>
<asrwt>0</asrwt>
<pdfrwt beam="1">  1        3 0.31746314E-01 0.12036822E+04</pdfrwt>
<pdfrwt beam="2">  1       -4 0.27004967E+00 0.12036822E+04</pdfrwt>
<totfact> 0.10494544E+00</totfact>
</mgrwt>
</event>
<event>
12    5  0.5041746E-008  0.1813187E+04  0.7818608E-02  0.8699318E-01
          1   -1    0    0  501    0  0.00000000000E+00  0.00000000000E+00  0.23945180121E+04  0.23945180121E+04  0.00000000000E+00 0. -1.
         -2   -1    0    0    0  501 -0.00000000000E+00 -0.00000000000E+00 -0.34324714916E+03  0.34324714916E+03  0.00000000000E+00 0.  1.
        -24    2    1    2    0    0 -0.48613603826E+03 -0.41001968153E+03  0.42764970966E+03  0.77066962901E+03  0.81258943897E+02 0.  0.
        254    2    1    2    0    0  0.48613603826E+03  0.41001968153E+03  0.16236211533E+04  0.19670955322E+04  0.91042561294E+03 0.  0.
         23    2    4    4    0    0 -0.44995524627E+02  0.60334622502E+02  0.11795552976E+04  0.11858068808E+04  0.95511227156E+02 0.  0.
         23    2    4    4    0    0  0.53113156289E+03  0.34968505903E+03  0.44406585566E+03  0.78128865145E+03  0.94005824911E+02 0.  0.
          1    1    3    3  502    0 -0.11037442013E+03 -0.83139272174E+02  0.55361233844E+02  0.14886073159E+03  0.00000000000E+00 0. -1.
         -2    1    3    3    0  502 -0.37576161812E+03 -0.32688040936E+03  0.37228847581E+03  0.62180889741E+03  0.00000000000E+00 0.  1.
         13    1    5    5    0    0 -0.15385297818E+02 -0.21705807755E+01  0.26798472641E+02  0.30977039009E+02  0.00000000000E+00 0. -1.
        -13    1    5    5    0    0 -0.29610226809E+02  0.62505203278E+02  0.11527568250E+04  0.11548298418E+04  0.00000000000E+00 0.  1.
          2    1    6    6  503    0  0.21224025660E+03  0.13680444460E+03  0.12144991730E+03  0.28019897394E+03  0.00000000000E+00 0. -1.
         -2    1    6    6    0  503  0.31889130629E+03  0.21288061443E+03  0.32261593835E+03  0.50108967751E+03  0.00000000000E+00 0.  1.
<mgrwt>
<rscale>  0 0.18131867E+04</rscale>
<asrwt>0</asrwt>
<pdfrwt beam="1">  1        1 0.36838738E+00 0.18131867E+04</pdfrwt>
<pdfrwt beam="2">  1       -2 0.52807255E-01 0.18131867E+04</pdfrwt>
<totfact> 0.44908417E+00</totfact>
</mgrwt>
</event>
<event>
12    5  0.5041746E-008  0.1576893E+04  0.7818608E-02  0.8834870E-01
          1   -1    0    0  501    0  0.00000000000E+00  0.00000000000E+00  0.10236181535E+04  0.10236181535E+04  0.00000000000E+00 0. -1.
         -2   -1    0    0    0  501 -0.00000000000E+00 -0.00000000000E+00 -0.60730461239E+03  0.60730461239E+03  0.00000000000E+00 0.  1.
        -24    2    1    2    0    0 -0.39509812494E+03  0.99124388335E+02 -0.31493637410E+03  0.52091834600E+03  0.79011586270E+02 0.  0.
        254    2    1    2    0    0  0.39509812494E+03 -0.99124388335E+02  0.73124991520E+03  0.11100044199E+04  0.72900973999E+03 0.  0.
         23    2    4    4    0    0  0.30993117973E+03 -0.39651442817E+03  0.41749978598E+03  0.66034080883E+03  0.91993937858E+02 0.  0.
         23    2    4    4    0    0  0.85166945219E+02  0.29739003983E+03  0.31375012922E+03  0.44966361105E+03  0.89799639054E+02 0.  0.
          3    1    3    3  502    0 -0.12633561300E+03  0.45059365815E+02 -0.14892971241E+03  0.20042727558E+03  0.00000000000E+00 0. -1.
         -4    1    3    3    0  502 -0.26876251195E+03  0.54065022520E+02 -0.16600666169E+03  0.32049107041E+03  0.00000000000E+00 0.  1.
         13    1    5    5    0    0  0.10646345749E+03 -0.15433069578E+03  0.21260639014E+03  0.28346764995E+03  0.00000000000E+00 0. -1.
        -13    1    5    5    0    0  0.20346772224E+03 -0.24218373239E+03  0.20489339584E+03  0.37687315888E+03  0.00000000000E+00 0.  1.
          1    1    6    6  503    0  0.23945878953E+02  0.15362592954E+03  0.99900106891E+02  0.18480898978E+03  0.00000000000E+00 0. -1.
         -1    1    6    6    0  503  0.61221066266E+02  0.14376411029E+03  0.21385002232E+03  0.26485462127E+03  0.00000000000E+00 0.  1.
<mgrwt>
<rscale>  0 0.15768932E+04</rscale>
<asrwt>0</asrwt>
<pdfrwt beam="1">  1        1 0.15747972E+00 0.15768932E+04</pdfrwt>
<pdfrwt beam="2">  1       -2 0.93431479E-01 0.15768932E+04</pdfrwt>
<totfact> 0.11844409E+01</totfact>
</mgrwt>
</event>
<event>
12    5  0.5041746E-008  0.1505562E+04  0.7818608E-02  0.8880763E-01
         -2   -1    0    0    0  501 -0.00000000000E+00  0.00000000000E+00  0.42669388504E+03  0.42669388504E+03  0.00000000000E+00 0.  1.
          1   -1    0    0  501    0  0.00000000000E+00 -0.00000000000E+00 -0.13280695294E+04  0.13280695294E+04  0.00000000000E+00 0. -1.
        -24    2    1    2    0    0  0.39680040889E+03 -0.19840619196E+03 -0.99307646861E+02  0.46157969455E+03  0.79863785287E+02 0.  0.
        254    2    1    2    0    0 -0.39680040889E+03  0.19840619196E+03 -0.80206799747E+03  0.12931837199E+04  0.91224748793E+03 0.  0.
         23    2    4    4    0    0 -0.32501583779E+03  0.19970710648E+03 -0.99360096701E+03  0.10674564820E+04  0.81867186017E+02 0.  0.
         23    2    4    4    0    0 -0.71784571098E+02 -0.13009145174E+01  0.19153296953E+03  0.22572723785E+03  0.95463031932E+02 0.  0.
          1    1    3    3  502    0  0.54629924592E+02 -0.56190438236E+02 -0.33518050599E+02  0.85236457728E+02  0.00000000000E+00 0. -1.
         -2    1    3    3    0  502  0.34217048429E+03 -0.14221575372E+03 -0.65789596262E+02  0.37634323683E+03  0.00000000000E+00 0.  1.
         13    1    5    5    0    0 -0.28491348997E+03  0.14467003638E+03 -0.86119567730E+03  0.91856579013E+03  0.00000000000E+00 0. -1.
        -13    1    5    5    0    0 -0.40102347813E+02  0.55037070094E+02 -0.13240528971E+03  0.14889069188E+03  0.00000000000E+00 0.  1.
          2    1    6    6  503    0  0.57685107291E+01  0.30573691135E+02  0.27578750760E+02  0.41576601582E+02  0.00000000000E+00 0.  1.
         -2    1    6    6    0  503 -0.77553081827E+02 -0.31874605653E+02  0.16395421877E+03  0.18415063627E+03  0.00000000000E+00 0. -1.
<mgrwt>
<rscale>  0 0.15055619E+04</rscale>
<asrwt>0</asrwt>
<pdfrwt beam="1">  1        1 0.20431839E+00 0.15055619E+04</pdfrwt>
<pdfrwt beam="2">  1       -2 0.65645214E-01 0.15055619E+04</pdfrwt>
<totfact> 0.15658435E+01</totfact>
</mgrwt>
</event>
<event>
12    5  0.5041746E-008  0.2124092E+04  0.7818608E-02  0.8550704E-01
         -2   -1    0    0    0  501 -0.00000000000E+00  0.00000000000E+00  0.99514857862E+03  0.99514857862E+03  0.00000000000E+00 0.  1.
          1   -1    0    0  501    0  0.00000000000E+00 -0.00000000000E+00 -0.11334409699E+04  0.11334409699E+04  0.00000000000E+00 0. -1.
        -24    2    1    2    0    0  0.98359526694E+02 -0.79258618475E+03 -0.40312689880E+03  0.89837439564E+03  0.81840096909E+02 0.  0.
        254    2    1    2    0    0 -0.98359526694E+02  0.79258618475E+03  0.26483450747E+03  0.12302151529E+04  0.89745448319E+03 0.  0.
         23    2    4    4    0    0 -0.39463826354E+03  0.63610802929E+03  0.40503019266E+03  0.85587558850E+03  0.90004344591E+02 0.  0.
         23    2    4    4    0    0  0.29627873685E+03  0.15647815546E+03 -0.14019568519E+03  0.37433956443E+03  0.90602297457E+02 0.  0.
          3    1    3    3  502    0  0.94375797471E+02 -0.74344042180E+03 -0.35414106183E+03  0.82887052282E+03  0.00000000000E+00 0. -1.
         -4    1    3    3    0  502  0.39837292229E+01 -0.49145762945E+02 -0.48985836972E+02  0.69503872826E+02  0.00000000000E+00 0.  1.
         13    1    5    5    0    0 -0.22544502411E+03  0.33421105192E+03  0.26559740168E+03  0.48276750709E+03  0.00000000000E+00 0. -1.
        -13    1    5    5    0    0 -0.16919323943E+03  0.30189697736E+03  0.13943279098E+03  0.37310808141E+03  0.00000000000E+00 0.  1.
          2    1    6    6  503    0  0.29861881409E+03  0.15813245041E+03 -0.12723340072E+03  0.36106426887E+03  0.00000000000E+00 0. -1.
         -2    1    6    6    0  503 -0.23400772402E+01 -0.16542949460E+01 -0.12962284473E+02  0.13275295553E+02  0.00000000000E+00 0.  1.
<mgrwt>
<rscale>  0 0.21240924E+04</rscale>
<asrwt>0</asrwt>
<pdfrwt beam="1">  1        1 0.17437553E+00 0.21240924E+04</pdfrwt>
<pdfrwt beam="2">  1       -2 0.15309978E+00 0.21240924E+04</pdfrwt>
<totfact> 0.27331641E+00</totfact>
</mgrwt>
</event>
<event>
12    5  0.5041746E-008  0.2283645E+04  0.7818608E-02  0.8484398E-01
         -2   -1    0    0    0  501 -0.00000000000E+00  0.00000000000E+00  0.80088712452E+03  0.80088712452E+03  0.00000000000E+00 0.  1.
          1   -1    0    0  501    0  0.00000000000E+00 -0.00000000000E+00 -0.16278935304E+04  0.16278935304E+04  0.00000000000E+00 0. -1.
        -24    2    1    2    0    0  0.74733561174E+03 -0.47707185934E+03 -0.74690629507E+03  0.11619146507E+04  0.77901003102E+02 0.  0.
        254    2    1    2    0    0 -0.74733561174E+03  0.47707185934E+03 -0.80100110814E+02  0.12668660042E+04  0.90134642031E+03 0.  0.
         23    2    4    4    0    0 -0.27773779073E+02  0.52526347335E+03 -0.81284823754E+02  0.53996584189E+03  0.91009826931E+02 0.  0.
         23    2    4    4    0    0 -0.71956183267E+03 -0.48191614009E+02  0.11847129395E+01  0.72690016235E+03  0.91053719288E+02 0.  0.
          1    1    3    3  502    0  0.29281235519E+03 -0.22470789800E+03 -0.33822567636E+03  0.50062892738E+03  0.00000000000E+00 0. -1.
         -4    1    3    3    0  502  0.45452325655E+03 -0.25236396134E+03 -0.40868061871E+03  0.66128572330E+03  0.00000000000E+00 0.  1.
         13    1    5    5    0    0 -0.29642044772E+02  0.18650276766E+03  0.10026480540E+02  0.18910965992E+03  0.00000000000E+00 0.  1.
        -13    1    5    5    0    0  0.18682656995E+01  0.33876070569E+03 -0.91311304293E+02  0.35085618197E+03  0.00000000000E+00 0. -1.
          3    1    6    6  503    0 -0.63849314565E+03 -0.15270419433E+02  0.11623315360E+02  0.63878148393E+03  0.00000000000E+00 0. -1.
         -3    1    6    6    0  503 -0.81068687016E+02 -0.32921194577E+02 -0.10438602421E+02  0.88118678425E+02  0.00000000000E+00 0.  1.
<mgrwt>
<rscale>  0 0.22836453E+04</rscale>
<asrwt>0</asrwt>
<pdfrwt beam="1">  1        1 0.25044516E+00 0.22836453E+04</pdfrwt>
<pdfrwt beam="2">  1       -2 0.12321341E+00 0.22836453E+04</pdfrwt>
<totfact> 0.21098021E+00</totfact>
</mgrwt>
</event>
<event>
12    5  0.5041746E-008  0.1220951E+04  0.7818608E-02  0.9094713E-01
         -2   -1    0    0    0  501 -0.00000000000E+00  0.00000000000E+00  0.56636071308E+03  0.56636071308E+03  0.00000000000E+00 0.  1.
          1   -1    0    0  501    0  0.00000000000E+00 -0.00000000000E+00 -0.65802670195E+03  0.65802670195E+03  0.00000000000E+00 0. -1.
        -24    2    1    2    0    0 -0.17750966100E+03 -0.19149263523E+03  0.12504514833E+02  0.28252458002E+03  0.10716653548E+03 0.  0.
        254    2    1    2    0    0  0.17750966100E+03  0.19149263523E+03 -0.10417050370E+03  0.94186283501E+03  0.89892991775E+03 0.  0.
         23    2    4    4    0    0 -0.11944789059E+03  0.28798011733E+03  0.28692737677E+03  0.43340177546E+03  0.91156090820E+02 0.  0.
         23    2    4    4    0    0  0.29695755159E+03 -0.96487482097E+02 -0.39109788047E+03  0.50846105954E+03  0.89897026202E+02 0.  0.
          1    1    3    3  502    0 -0.27155798141E+02  0.11062310495E+02 -0.46215768243E+01  0.29684525573E+02  0.00000000000E+00 0. -1.
         -2    1    3    3    0  502 -0.15035386286E+03 -0.20255494573E+03  0.17126091657E+02  0.25284005444E+03  0.00000000000E+00 0.  1.
         13    1    5    5    0    0 -0.50339771697E+02  0.35482876808E+02  0.71547599604E+02  0.94404375800E+02  0.00000000000E+00 0. -1.
        -13    1    5    5    0    0 -0.69108118889E+02  0.25249724052E+03  0.21537977716E+03  0.33899739966E+03  0.00000000000E+00 0.  1.
          1    1    6    6  503    0  0.55858122834E+02  0.16856974476E+02 -0.64189248454E+02  0.86744147307E+02  0.00000000000E+00 0. -1.
         -1    1    6    6    0  503  0.24109942875E+03 -0.11334445657E+03 -0.32690863201E+03  0.42171691224E+03  0.00000000000E+00 0.  1.
<mgrwt>
<rscale>  0 0.12209512E+04</rscale>
<asrwt>0</asrwt>
<pdfrwt beam="1">  1        1 0.10123488E+00 0.12209512E+04</pdfrwt>
<pdfrwt beam="2">  1       -2 0.87132418E-01 0.12209512E+04</pdfrwt>
<totfact> 0.29466240E+01</totfact>
</mgrwt>
</event>
<event>
12    5  0.5041746E-008  0.1165519E+04  0.7818608E-02  0.9143585E-01
         -4   -1    0    0    0  501 -0.00000000000E+00  0.00000000000E+00  0.31143264085E+03  0.31143264085E+03  0.00000000000E+00 0.  1.
          3   -1    0    0  501    0  0.00000000000E+00 -0.00000000000E+00 -0.10904723598E+04  0.10904723598E+04  0.00000000000E+00 0. -1.
        -24    2    1    2    0    0 -0.21157693507E+03 -0.54357181337E+02 -0.18035824269E+03  0.29401935985E+03  0.78732367200E+02 0.  0.
        254    2    1    2    0    0  0.21157693507E+03  0.54357181337E+02 -0.59868147625E+03  0.11078856408E+04  0.90624035468E+03 0.  0.
         23    2    4    4    0    0 -0.31942687557E+03 -0.12587014255E+03 -0.15896797078E+03  0.38937895869E+03  0.92023562826E+02 0.  0.
         23    2    4    4    0    0  0.53100381064E+03  0.18022732388E+03 -0.43971350547E+03  0.71850668210E+03  0.91961677528E+02 0.  0.
          3    1    3    3  502    0 -0.13068877351E+02 -0.26660229871E+02 -0.37773538368E+02  0.48045849070E+02  0.00000000000E+00 0. -1.
         -4    1    3    3    0  502 -0.19850805772E+03 -0.27696951466E+02 -0.14258470432E+03  0.24597351078E+03  0.00000000000E+00 0.  1.
         13    1    5    5    0    0 -0.22224931785E+03 -0.40114567297E+02 -0.10199446547E+03  0.24780397249E+03  0.00000000000E+00 0. -1.
        -13    1    5    5    0    0 -0.97177557722E+02 -0.85755575249E+02 -0.56973505306E+02  0.14157498620E+03  0.00000000000E+00 0.  1.
          1    1    6    6  503    0  0.37168457568E+03  0.81619231566E+02 -0.28287759453E+03  0.47416332234E+03  0.00000000000E+00 0. -1.
         -1    1    6    6    0  503  0.15931923496E+03  0.98608092317E+02 -0.15683591094E+03  0.24434335976E+03  0.00000000000E+00 0.  1.
<mgrwt>
<rscale>  0 0.11655191E+04</rscale>
<asrwt>0</asrwt>
<pdfrwt beam="1">  1        3 0.16776498E+00 0.11655191E+04</pdfrwt>
<pdfrwt beam="2">  1       -4 0.47912714E-01 0.11655191E+04</pdfrwt>
<totfact> 0.22984559E+00</totfact>
</mgrwt>
</event>
<event>
12    5  0.5041746E-008  0.1388255E+04  0.7818608E-02  0.8962365E-01
         -2   -1    0    0    0  501 -0.00000000000E+00  0.00000000000E+00  0.17216795728E+03  0.17216795728E+03  0.00000000000E+00 0.  1.
          1   -1    0    0  501    0  0.00000000000E+00 -0.00000000000E+00 -0.27985043800E+04  0.27985043800E+04  0.00000000000E+00 0. -1.
        -24    2    1    2    0    0 -0.34935439758E+03 -0.16875254858E+03 -0.59515728904E+03  0.71531592755E+03  0.83299218188E+02 0.  0.
        254    2    1    2    0    0  0.34935439758E+03  0.16875254858E+03 -0.20311791337E+04  0.22553564097E+04  0.90023216120E+03 0.  0.
         23    2    4    4    0    0  0.21720664930E+03  0.24145253012E+03 -0.15810015417E+03  0.37399279381E+03  0.96937599908E+02 0.  0.
         23    2    4    4    0    0  0.13214774828E+03 -0.72699981533E+02 -0.18730789795E+04  0.18813636159E+04  0.91410487073E+02 0.  0.
          1    1    3    3  502    0 -0.34446541689E+03 -0.16724988188E+03 -0.59751400304E+03  0.70968438778E+03  0.00000000000E+00 0. -1.
         -2    1    3    3    0  502 -0.48889806895E+01 -0.15026667060E+01  0.23567139988E+01  0.56315397791E+01  0.00000000000E+00 0.  1.
         13    1    5    5    0    0  0.11266039172E+03  0.14086544667E+03 -0.13888026430E+03  0.22764702006E+03  0.00000000000E+00 0. -1.
        -13    1    5    5    0    0  0.10454625758E+03  0.10058708344E+03 -0.19219889871E+02  0.14634577376E+03  0.00000000000E+00 0.  1.
          3    1    6    6  503    0  0.12285203510E+02  0.18685779066E+02 -0.39128995882E+03  0.39192845831E+03  0.00000000000E+00 0. -1.
         -3    1    6    6    0  503  0.11986254477E+03 -0.91385760600E+02 -0.14817890207E+04  0.14894351576E+04  0.00000000000E+00 0.  1.
<mgrwt>
<rscale>  0 0.13882547E+04</rscale>
<asrwt>0</asrwt>
<pdfrwt beam="1">  1        1 0.43053915E+00 0.13882547E+04</pdfrwt>
<pdfrwt beam="2">  1       -2 0.26487377E-01 0.13882547E+04</pdfrwt>
<totfact> 0.93000408E+00</totfact>
</mgrwt>
</event>
<event>
12    5  0.5041746E-008  0.1733051E+04  0.7818608E-02  0.8742736E-01
         -2   -1    0    0    0  501 -0.00000000000E+00  0.00000000000E+00  0.89481011484E+03  0.89481011484E+03  0.00000000000E+00 0.  1.
          1   -1    0    0  501    0  0.00000000000E+00 -0.00000000000E+00 -0.83913463780E+03  0.83913463780E+03  0.00000000000E+00 0. -1.
        -24    2    1    2    0    0 -0.10511313066E+03 -0.19594460115E+03 -0.56280133605E+03  0.61042807343E+03  0.80212418062E+02 0.  0.
        254    2    1    2    0    0  0.10511313066E+03  0.19594460115E+03  0.61847681310E+03  0.11235166792E+04  0.91122615369E+03 0.  0.
         23    2    4    4    0    0  0.35346660664E+03 -0.89842977572E+01 -0.56912707364E+02  0.36984684359E+03  0.92348642873E+02 0.  0.
         23    2    4    4    0    0 -0.24835347598E+03  0.20492889890E+03  0.67538952046E+03  0.75366983562E+03  0.90509193671E+02 0.  0.
          3    1    3    3  502    0 -0.67573159739E+02 -0.14001290536E+03 -0.47479990238E+03  0.49960453649E+03  0.00000000000E+00 0. -1.
         -4    1    3    3    0  502 -0.37539970917E+02 -0.55931695790E+02 -0.88001433671E+02  0.11082353693E+03  0.00000000000E+00 0.  1.
         13    1    5    5    0    0  0.27702232643E+03 -0.14046524122E+02 -0.81978400270E+02  0.28923888447E+03  0.00000000000E+00 0.  1.
        -13    1    5    5    0    0  0.76444280210E+02  0.50622263645E+01  0.25065692906E+02  0.80607959120E+02  0.00000000000E+00 0. -1.
          4    1    6    6  503    0 -0.10712572216E+03  0.10463365260E+03  0.21708422418E+03  0.26372273697E+03  0.00000000000E+00 0. -1.
         -4    1    6    6    0  503 -0.14122775382E+03  0.10029524630E+03  0.45830529628E+03  0.48994709866E+03  0.00000000000E+00 0.  1.
<mgrwt>
<rscale>  0 0.17330507E+04</rscale>
<asrwt>0</asrwt>
<pdfrwt beam="1">  1        1 0.12909764E+00 0.17330507E+04</pdfrwt>
<pdfrwt beam="2">  1       -2 0.13766309E+00 0.17330507E+04</pdfrwt>
<totfact> 0.63800054E+00</totfact>
</mgrwt>
</event>
<event>
12    5  0.5041746E-008  0.1577476E+04  0.7818608E-02  0.8834506E-01
          1   -1    0    0  501    0  0.00000000000E+00  0.00000000000E+00  0.41871400872E+03  0.41871400872E+03  0.00000000000E+00 0. -1.
         -2   -1    0    0    0  501 -0.00000000000E+00 -0.00000000000E+00 -0.14857582447E+04  0.14857582447E+04  0.00000000000E+00 0.  1.
        -24    2    1    2    0    0 -0.71469334668E+02 -0.51617691416E+03 -0.24103255788E+03  0.57966597769E+03  0.79809017172E+02 0.  0.
        254    2    1    2    0    0  0.71469334668E+02  0.51617691416E+03 -0.82601167813E+03  0.13248062757E+04  0.89513680706E+03 0.  0.
         23    2    4    4    0    0  0.34195351131E+03  0.33913482545E+03 -0.66629160433E+02  0.49450244143E+03  0.90269517733E+02 0.  0.
         23    2    4    4    0    0 -0.27048417664E+03  0.17704208871E+03 -0.75938251769E+03  0.83030383432E+03  0.90758239922E+02 0.  0.
          3    1    3    3  502    0 -0.84926504773E+02 -0.41117814118E+03 -0.17476914874E+03  0.45477932049E+03  0.00000000000E+00 0. -1.
         -4    1    3    3    0  502  0.13457170106E+02 -0.10499877298E+03 -0.66263409137E+02  0.12488665719E+03  0.00000000000E+00 0.  1.
         13    1    5    5    0    0  0.10909489042E+03  0.14443246399E+03 -0.60703320397E+02  0.19091182487E+03  0.00000000000E+00 0. -1.
        -13    1    5    5    0    0  0.23285862089E+03  0.19470236146E+03 -0.59258400365E+01  0.30359061656E+03  0.00000000000E+00 0.  1.
          4    1    6    6  503    0 -0.21315083641E+03  0.98502915075E+02 -0.58976021731E+03  0.63478596177E+03  0.00000000000E+00 0. -1.
         -4    1    6    6    0  503 -0.57333340231E+02  0.78539173632E+02 -0.16962230039E+03  0.19551787255E+03  0.00000000000E+00 0.  1.
<mgrwt>
<rscale>  0 0.15774762E+04</rscale>
<asrwt>0</asrwt>
<pdfrwt beam="1">  1        1 0.64417540E-01 0.15774762E+04</pdfrwt>
<pdfrwt beam="2">  1       -2 0.22857819E+00 0.15774762E+04</pdfrwt>
<totfact> 0.41376828E+00</totfact>
</mgrwt>
</event>
<event>
12    5  0.5041746E-008  0.2379531E+04  0.7818608E-02  0.8447207E-01
          1   -1    0    0  501    0  0.00000000000E+00  0.00000000000E+00  0.13100494909E+04  0.13100494909E+04  0.00000000000E+00 0. -1.
         -2   -1    0    0    0  501 -0.00000000000E+00 -0.00000000000E+00 -0.10805253042E+04  0.10805253042E+04  0.00000000000E+00 0.  1.
        -24    2    1    2    0    0  0.76128180523E+03 -0.62637595848E+03 -0.16481385826E+03  0.10027993148E+04  0.80907537419E+02 0.  0.
        254    2    1    2    0    0 -0.76128180523E+03  0.62637595848E+03  0.39433804496E+03  0.13877754802E+04  0.89360028061E+03 0.  0.
         23    2    4    4    0    0 -0.44069226051E+03  0.30167296258E+03 -0.24761672860E+03  0.59515479309E+03  0.87629553418E+02 0.  0.
         23    2    4    4    0    0 -0.32058954472E+03  0.32470299590E+03  0.64195477357E+03  0.79262068714E+03  0.89061386983E+02 0.  0.
          3    1    3    3  502    0  0.50746517147E+03 -0.42302876980E+03 -0.14860041171E+03  0.67716786892E+03  0.00000000000E+00 0. -1.
         -4    1    3    3    0  502  0.25381663377E+03 -0.20334718868E+03 -0.16213446549E+02  0.32563144591E+03  0.00000000000E+00 0.  1.
         13    1    5    5    0    0  0.16023944943E+01  0.12844473914E+02 -0.63307891041E+01  0.14409270243E+02  0.00000000000E+00 0. -1.
        -13    1    5    5    0    0 -0.44229465501E+03  0.28882848866E+03 -0.24128593950E+03  0.58074552285E+03  0.00000000000E+00 0.  1.
          2    1    6    6  503    0 -0.31705435425E+03  0.32758672096E+03  0.64272662609E+03  0.78799367966E+03  0.00000000000E+00 0.  1.
         -2    1    6    6    0  503 -0.35351904715E+01 -0.28837250613E+01 -0.77185252709E+00  0.46270074803E+01  0.00000000000E+00 0. -1.
<mgrwt>
<rscale>  0 0.23795307E+04</rscale>
<asrwt>0</asrwt>
<pdfrwt beam="1">  1        1 0.20154607E+00 0.23795307E+04</pdfrwt>
<pdfrwt beam="2">  1       -2 0.16623466E+00 0.23795307E+04</pdfrwt>
<totfact> 0.15898429E+00</totfact>
</mgrwt>
</event>
<event>
12    5  0.5041746E-008  0.1335963E+04  0.7818608E-02  0.9001522E-01
          1   -1    0    0  501    0  0.00000000000E+00  0.00000000000E+00  0.16299928667E+04  0.16299928667E+04  0.00000000000E+00 0. -1.
         -2   -1    0    0    0  501 -0.00000000000E+00 -0.00000000000E+00 -0.27374318174E+03  0.27374318174E+03  0.00000000000E+00 0.  1.
        -24    2    1    2    0    0  0.32525974810E+03  0.98103458677E+02  0.20631758718E+03  0.40519622876E+03  0.78732742137E+02 0.  0.
        254    2    1    2    0    0 -0.32525974810E+03 -0.98103458677E+02  0.11499320977E+04  0.14985398196E+04  0.89881008521E+03 0.  0.
         23    2    4    4    0    0 -0.21399097335E+03  0.36250228779E+03  0.77773272926E+03  0.88911981591E+03  0.92009801375E+02 0.  0.
         23    2    4    4    0    0 -0.11126877475E+03 -0.46060574646E+03  0.37219936847E+03  0.60942000372E+03  0.91224871266E+02 0.  0.
          1    1    3    3  502    0  0.16383598622E+03  0.24549043438E+02  0.13614078540E+03  0.21442760868E+03  0.00000000000E+00 0. -1.
         -2    1    3    3    0  502  0.16142376188E+03  0.73554415239E+02  0.70176801783E+02  0.19076862009E+03  0.00000000000E+00 0.  1.
         13    1    5    5    0    0 -0.18639042435E+03  0.23698813334E+03  0.57056658404E+03  0.64533014222E+03  0.00000000000E+00 0. -1.
        -13    1    5    5    0    0 -0.27600549007E+02  0.12551415445E+03  0.20716614522E+03  0.24378967369E+03  0.00000000000E+00 0.  1.
          2    1    6    6  503    0 -0.26787239079E+02 -0.17669324621E+03  0.89157881032E+02  0.19971776882E+03  0.00000000000E+00 0. -1.
         -2    1    6    6    0  503 -0.84481535669E+02 -0.28391250025E+03  0.28304148744E+03  0.40970223490E+03  0.00000000000E+00 0.  1.
<mgrwt>
<rscale>  0 0.13359632E+04</rscale>
<asrwt>0</asrwt>
<pdfrwt beam="1">  1        1 0.25076813E+00 0.13359632E+04</pdfrwt>
<pdfrwt beam="2">  1       -2 0.42114336E-01 0.13359632E+04</pdfrwt>
<totfact> 0.24456613E+01</totfact>
</mgrwt>
</event>
<event>
12    5  0.5041746E-008  0.1914492E+04  0.7818608E-02  0.8647676E-01
         -2   -1    0    0    0  501 -0.00000000000E+00  0.00000000000E+00  0.71142125652E+03  0.71142125652E+03  0.00000000000E+00 0.  1.
          1   -1    0    0  501    0  0.00000000000E+00 -0.00000000000E+00 -0.12880126301E+04  0.12880126301E+04  0.00000000000E+00 0. -1.
        -24    2    1    2    0    0  0.32666139549E+03  0.14051878351E+03  0.45591590501E+03  0.58363041097E+03  0.79447771214E+02 0.  0.
        254    2    1    2    0    0 -0.32666139549E+03 -0.14051878351E+03 -0.10325072786E+04  0.14158034756E+04  0.90109655725E+03 0.  0.
         23    2    4    4    0    0 -0.31658125254E+01 -0.38953041634E+03 -0.13087038659E+03  0.42180387080E+03  0.95118240700E+02 0.  0.
         23    2    4    4    0    0 -0.32349558296E+03  0.24901163283E+03 -0.90163689198E+03  0.99399960483E+03  0.91814726158E+02 0.  0.
          3    1    3    3  502    0  0.11884789434E+03  0.87982154494E+02  0.21771623132E+03  0.26318441990E+03  0.00000000000E+00 0. -1.
         -4    1    3    3    0  502  0.20781350115E+03  0.52536629013E+02  0.23819967369E+03  0.32044599107E+03  0.00000000000E+00 0.  1.
         13    1    5    5    0    0 -0.21746564192E+02 -0.20945387437E+03 -0.24927686541E+02  0.21205006036E+03  0.00000000000E+00 0. -1.
        -13    1    5    5    0    0  0.18580751667E+02 -0.18007654197E+03 -0.10594270005E+03  0.20975381044E+03  0.00000000000E+00 0.  1.
          1    1    6    6  503    0 -0.20988046279E+03  0.11961768500E+03 -0.59770346675E+03  0.64467637881E+03  0.00000000000E+00 0. -1.
         -1    1    6    6    0  503 -0.11361512018E+03  0.12939394783E+03 -0.30393342523E+03  0.34932322603E+03  0.00000000000E+00 0.  1.
<mgrwt>
<rscale>  0 0.19144916E+04</rscale>
<asrwt>0</asrwt>
<pdfrwt beam="1">  1        1 0.19815579E+00 0.19144916E+04</pdfrwt>
<pdfrwt beam="2">  1       -2 0.10944942E+00 0.19144916E+04</pdfrwt>
<totfact> 0.50306966E+00</totfact>
</mgrwt>
</event>
<event>
12    5  0.5041746E-008  0.3149826E+04  0.7818608E-02  0.8202195E-01
          1   -1    0    0  501    0  0.00000000000E+00  0.00000000000E+00  0.23457295609E+04  0.23457295609E+04  0.00000000000E+00 0. -1.
         -2   -1    0    0    0  501 -0.00000000000E+00 -0.00000000000E+00 -0.10573901171E+04  0.10573901171E+04  0.00000000000E+00 0.  1.
        -24    2    1    2    0    0  0.13835556460E+04 -0.21429356616E+03  0.21150495773E+03  0.14181990507E+04  0.80039003186E+02 0.  0.
        254    2    1    2    0    0 -0.13835556460E+04  0.21429356616E+03  0.10768344861E+04  0.19849206274E+04  0.90564310214E+03 0.  0.
         23    2    4    4    0    0 -0.92061378063E+03  0.51345121743E+03  0.46171731144E+03  0.11541327054E+04  0.87621573424E+02 0.  0.
         23    2    4    4    0    0 -0.46294186540E+03 -0.29915765127E+03  0.61511717462E+03  0.83078792202E+03  0.89604474240E+02 0.  0.
          1    1    3    3  502    0  0.12232445896E+04 -0.16428842757E+03  0.19357569183E+03  0.12493156374E+04  0.00000000000E+00 0. -1.
         -2    1    3    3    0  502  0.16031105648E+03 -0.50005138595E+02  0.17929265898E+02  0.16888341331E+03  0.00000000000E+00 0.  1.
         13    1    5    5    0    0 -0.28292635631E+03  0.16278772637E+03  0.99593354282E+02  0.34127115783E+03  0.00000000000E+00 0. -1.
        -13    1    5    5    0    0 -0.63768742433E+03  0.35066349105E+03  0.36212395716E+03  0.81286154753E+03  0.00000000000E+00 0.  1.
          3    1    6    6  503    0 -0.65563348555E+02 -0.46777006148E+02  0.14274555043E+03  0.16389915541E+03  0.00000000000E+00 0. -1.
         -3    1    6    6    0  503 -0.39737851685E+03 -0.25238064512E+03  0.47237162420E+03  0.66688876661E+03  0.00000000000E+00 0.  1.
<mgrwt>
<rscale>  0 0.31498262E+04</rscale>
<asrwt>0</asrwt>
<pdfrwt beam="1">  1        1 0.36088147E+00 0.31498262E+04</pdfrwt>
<pdfrwt beam="2">  1       -2 0.16267540E+00 0.31498262E+04</pdfrwt>
<totfact> 0.30802218E-01</totfact>
</mgrwt>
</event>
<event>
12    5  0.5041746E-008  0.1381785E+04  0.7818608E-02  0.8967110E-01
         -4   -1    0    0    0  501 -0.00000000000E+00  0.00000000000E+00  0.75073016576E+03  0.75073016576E+03  0.00000000000E+00 0.  1.
          3   -1    0    0  501    0  0.00000000000E+00 -0.00000000000E+00 -0.63582429675E+03  0.63582429675E+03  0.00000000000E+00 0. -1.
        -24    2    1    2    0    0  0.33618172857E+02 -0.68078069166E+02  0.41378028257E+03  0.42844026076E+03  0.81130325685E+02 0.  0.
        254    2    1    2    0    0 -0.33618172857E+02  0.68078069166E+02 -0.29887441356E+03  0.95811420175E+03  0.90713400524E+03 0.  0.
         23    2    4    4    0    0  0.17518357313E+03  0.23123511609E+03 -0.51906798146E+03  0.60149559962E+03  0.90589313794E+02 0.  0.
         23    2    4    4    0    0 -0.20880174598E+03 -0.16315704692E+03  0.22019356790E+03  0.35661860213E+03  0.92050143691E+02 0.  0.
          1    1    3    3  502    0  0.18179409379E+02  0.13420509404E+02  0.15640052873E+03  0.15802444870E+03  0.00000000000E+00 0. -1.
         -2    1    3    3    0  502  0.15438763478E+02 -0.81498578569E+02  0.25737975384E+03  0.27041581206E+03  0.00000000000E+00 0.  1.
         13    1    5    5    0    0  0.53678912914E+02  0.12332304714E+03 -0.29966100789E+03  0.32846113818E+03  0.00000000000E+00 0. -1.
        -13    1    5    5    0    0  0.12150466021E+03  0.10791206895E+03 -0.21940697358E+03  0.27303446143E+03  0.00000000000E+00 0.  1.
          2    1    6    6  503    0 -0.66942845547E+01 -0.53998139747E+01  0.45659166832E+02  0.46462145371E+02  0.00000000000E+00 0. -1.
         -2    1    6    6    0  503 -0.20210746143E+03 -0.15775723295E+03  0.17453440107E+03  0.31015645676E+03  0.00000000000E+00 0.  1.
<mgrwt>
<rscale>  0 0.13817850E+04</rscale>
<asrwt>0</asrwt>
<pdfrwt beam="1">  1        3 0.97819123E-01 0.13817850E+04</pdfrwt>
<pdfrwt beam="2">  1       -4 0.11549695E+00 0.13817850E+04</pdfrwt>
<totfact> 0.11956285E+00</totfact>
</mgrwt>
</event>
<event>
12    5  0.5041746E-008  0.2188602E+04  0.7818608E-02  0.8523187E-01
         -4   -1    0    0    0  501 -0.00000000000E+00  0.00000000000E+00  0.74048765057E+03  0.74048765057E+03  0.00000000000E+00 0.  1.
          1   -1    0    0  501    0  0.00000000000E+00 -0.00000000000E+00 -0.16171703761E+04  0.16171703761E+04  0.00000000000E+00 0. -1.
        -24    2    1    2    0    0 -0.19160592481E+03  0.50279832599E+03  0.42134972847E+03  0.68995752686E+03  0.94798777153E+02 0.  0.
        254    2    1    2    0    0  0.19160592481E+03 -0.50279832599E+03 -0.12980324540E+04  0.16677004998E+04  0.89823032592E+03 0.  0.
         23    2    4    4    0    0 -0.28003569429E+03  0.61044357926E+02 -0.45441211916E+03  0.54496382043E+03  0.91371701469E+02 0.  0.
         23    2    4    4    0    0  0.47164161910E+03 -0.56384268391E+03 -0.84362033484E+03  0.11227366794E+04  0.92076016460E+02 0.  0.
          1    1    3    3  502    0 -0.62333699593E+02  0.13271695203E+03  0.65757530962E+02  0.16069639803E+03  0.00000000000E+00 0. -1.
         -2    1    3    3    0  502 -0.12927222522E+03  0.37008137396E+03  0.35559219750E+03  0.52926112883E+03  0.00000000000E+00 0.  1.
         13    1    5    5    0    0 -0.24237965636E+03  0.17273095300E+02 -0.36183507296E+03  0.43585648747E+03  0.00000000000E+00 0. -1.
        -13    1    5    5    0    0 -0.37656037922E+02  0.43771262627E+02 -0.92577046201E+02  0.10910733297E+03  0.00000000000E+00 0.  1.
          2    1    6    6  503    0  0.38028695203E+03 -0.40190893059E+03 -0.66261711083E+03  0.86325569210E+03  0.00000000000E+00 0. -1.
         -2    1    6    6    0  503  0.91354667067E+02 -0.16193375333E+03 -0.18100322401E+03  0.25948098729E+03  0.00000000000E+00 0.  1.
<mgrwt>
<rscale>  0 0.21886020E+04</rscale>
<asrwt>0</asrwt>
<pdfrwt beam="1">  1        1 0.24879544E+00 0.21886020E+04</pdfrwt>
<pdfrwt beam="2">  1       -4 0.11392118E+00 0.21886020E+04</pdfrwt>
<totfact> 0.14605518E+00</totfact>
</mgrwt>
</event>
<event>
12    5  0.5041746E-008  0.2668604E+04  0.7818608E-02  0.8345264E-01
          1   -1    0    0  501    0  0.00000000000E+00  0.00000000000E+00  0.19950305152E+04  0.19950305152E+04  0.00000000000E+00 0. -1.
         -4   -1    0    0    0  501 -0.00000000000E+00 -0.00000000000E+00 -0.89239819428E+03  0.89239819428E+03  0.00000000000E+00 0.  1.
        -24    2    1    2    0    0 -0.54974922175E+02  0.40981751649E+03 -0.70748702098E+03  0.82320922714E+03  0.78504190332E+02 0.  0.
        254    2    1    2    0    0  0.54974922175E+02 -0.40981751649E+03  0.18101193419E+04  0.20642194823E+04  0.90194090744E+03 0.  0.
         23    2    4    4    0    0  0.30912333965E+03 -0.45371351964E+03  0.57919364236E+03  0.80323472384E+03  0.91145758011E+02 0.  0.
         23    2    4    4    0    0 -0.25414841748E+03  0.43896003149E+02  0.12309256995E+04  0.12609847585E+04  0.91576231793E+02 0.  0.
          1    1    3    3  502    0 -0.61765265771E+02  0.21120928386E+03 -0.33061587427E+03  0.39715383162E+03  0.00000000000E+00 0. -1.
         -2    1    3    3    0  502  0.67903435955E+01  0.19860823262E+03 -0.37687114671E+03  0.42605539552E+03  0.00000000000E+00 0.  1.
         13    1    5    5    0    0  0.27016140097E+03 -0.41940790634E+03  0.55402512905E+03  0.74554276745E+03  0.00000000000E+00 0.  1.
        -13    1    5    5    0    0  0.38961938682E+02 -0.34305613296E+02  0.25168513313E+02  0.57691956388E+02  0.00000000000E+00 0. -1.
          3    1    6    6  503    0 -0.15949616017E+02  0.30530499744E+02  0.12822390375E+03  0.13276999344E+03  0.00000000000E+00 0. -1.
         -3    1    6    6    0  503 -0.23819880146E+03  0.13365503405E+02  0.11027017958E+04  0.11282147651E+04  0.00000000000E+00 0.  1.
<mgrwt>
<rscale>  0 0.26686039E+04</rscale>
<asrwt>0</asrwt>
<pdfrwt beam="1">  1        1 0.30692777E+00 0.26686039E+04</pdfrwt>
<pdfrwt beam="2">  1       -4 0.13729203E+00 0.26686039E+04</pdfrwt>
<totfact> 0.48473933E-01</totfact>
</mgrwt>
</event>
<event>
12    5  0.5041746E-008  0.1832257E+04  0.7818608E-02  0.8689331E-01
         -2   -1    0    0    0  501 -0.00000000000E+00  0.00000000000E+00  0.72189564812E+03  0.72189564812E+03  0.00000000000E+00 0.  1.
          1   -1    0    0  501    0  0.00000000000E+00 -0.00000000000E+00 -0.11626219190E+04  0.11626219190E+04  0.00000000000E+00 0. -1.
        -24    2    1    2    0    0  0.10079768733E+03 -0.71620978110E+03 -0.16465040963E+03  0.74614787136E+03  0.80686208476E+02 0.  0.
        254    2    1    2    0    0 -0.10079768733E+03  0.71620978110E+03 -0.27607586126E+03  0.11383696958E+04  0.83459634480E+03 0.  0.
         23    2    4    4    0    0 -0.16486700750E+03 -0.22794900697E+01  0.19424781617E+03  0.27223230885E+03  0.95874343065E+02 0.  0.
         23    2    4    4    0    0  0.64069320171E+02  0.71848927117E+03 -0.47032367743E+03  0.86613738691E+03  0.93047841938E+02 0.  0.
          3    1    3    3  502    0  0.22742859835E+02 -0.30135206611E+03 -0.33248201335E+02  0.30403247904E+03  0.00000000000E+00 0. -1.
         -4    1    3    3    0  502  0.78054827496E+02 -0.41485771499E+03 -0.13140220830E+03  0.44211539232E+03  0.00000000000E+00 0.  1.
         13    1    5    5    0    0 -0.12348245130E+02  0.12584748536E+01 -0.10939095849E+02  0.16544689019E+02  0.00000000000E+00 0. -1.
        -13    1    5    5    0    0 -0.15251876237E+03 -0.35379649233E+01  0.20518691202E+03  0.25568761983E+03  0.00000000000E+00 0.  1.
          2    1    6    6  503    0  0.38907490110E+02  0.62588364808E+03 -0.37390280148E+03  0.73010097841E+03  0.00000000000E+00 0. -1.
         -2    1    6    6    0  503  0.25161830061E+02  0.92605623084E+02 -0.96420875953E+02  0.13603640850E+03  0.00000000000E+00 0.  1.
<mgrwt>
<rscale>  0 0.18322573E+04</rscale>
<asrwt>0</asrwt>
<pdfrwt beam="1">  1        1 0.17886491E+00 0.18322573E+04</pdfrwt>
<pdfrwt beam="2">  1       -2 0.11106087E+00 0.18322573E+04</pdfrwt>
<totfact> 0.60313180E+00</totfact>
</mgrwt>
</event>
<event>
12    5  0.5041746E-008  0.1362338E+04  0.7818608E-02  0.8981540E-01
          3   -1    0    0  501    0  0.00000000000E+00  0.00000000000E+00  0.26423517549E+03  0.26423517549E+03  0.00000000000E+00 0. -1.
         -4   -1    0    0    0  501 -0.00000000000E+00 -0.00000000000E+00 -0.17559786860E+04  0.17559786860E+04  0.00000000000E+00 0.  1.
        -24    2    1    2    0    0  0.22257039283E+03  0.26005776876E+02  0.29726761967E+02  0.23989506197E+03  0.80324841624E+02 0.  0.
        254    2    1    2    0    0 -0.22257039283E+03 -0.26005776876E+02 -0.15214702725E+04  0.17803187995E+04  0.89691100879E+03 0.  0.
         23    2    4    4    0    0  0.13949858863E+03  0.31030914555E+03 -0.31576068963E+03  0.47390828940E+03  0.95564803162E+02 0.  0.
         23    2    4    4    0    0 -0.36206898146E+03 -0.33631492243E+03 -0.12057095828E+04  0.13064105101E+04  0.93654409372E+02 0.  0.
          1    1    3    3  502    0  0.19479204834E+03  0.13389580596E+02  0.52074582586E+02  0.20207668128E+03  0.00000000000E+00 0. -1.
         -2    1    3    3    0  502  0.27778344489E+02  0.12616196280E+02 -0.22347820619E+02  0.37818380683E+02  0.00000000000E+00 0.  1.
         13    1    5    5    0    0  0.29546236384E+02  0.13654447941E+02 -0.10309508336E+02  0.34142495444E+02  0.00000000000E+00 0. -1.
        -13    1    5    5    0    0  0.10995235224E+03  0.29665469761E+03 -0.30545118130E+03  0.43976579396E+03  0.00000000000E+00 0.  1.
          3    1    6    6  503    0 -0.33795517933E+02 -0.18491483691E+02 -0.17132143075E+03  0.17559927288E+03  0.00000000000E+00 0. -1.
         -3    1    6    6    0  503 -0.32827346353E+03 -0.31782343874E+03 -0.10343881521E+04  0.11308112372E+04  0.00000000000E+00 0.  1.
<mgrwt>
<rscale>  0 0.13623382E+04</rscale>
<asrwt>0</asrwt>
<pdfrwt beam="1">  1        3 0.40651565E-01 0.13623382E+04</pdfrwt>
<pdfrwt beam="2">  1       -4 0.27015057E+00 0.13623382E+04</pdfrwt>
<totfact> 0.63933095E-01</totfact>
</mgrwt>
</event>
<event>
12    5  0.5041746E-008  0.3512282E+04  0.7818608E-02  0.8110886E-01
          1   -1    0    0  501    0  0.00000000000E+00  0.00000000000E+00  0.34219285253E+04  0.34219285253E+04  0.00000000000E+00 0. -1.
         -2   -1    0    0    0  501 -0.00000000000E+00 -0.00000000000E+00 -0.90125508584E+03  0.90125508584E+03  0.00000000000E+00 0.  1.
        -24    2    1    2    0    0 -0.12716469114E+03 -0.98379401550E+03 -0.43169317918E+03  0.10867479550E+04  0.10315325097E+03 0.  0.
        254    2    1    2    0    0  0.12716469114E+03  0.98379401550E+03  0.29523666186E+04  0.32364356561E+04  0.87978723660E+03 0.  0.
         23    2    4    4    0    0  0.10186628524E+03 -0.67688895808E+02  0.71949628101E+02  0.16860183223E+03  0.91056587698E+02 0.  0.
         23    2    4    4    0    0  0.25298405904E+02  0.10514829113E+04  0.28804169905E+04  0.30678338239E+04  0.92444629189E+02 0.  0.
          1    1    3    3  502    0 -0.19540424353E+02 -0.44444992428E+02 -0.31051651968E+01  0.48650052278E+02  0.00000000000E+00 0. -1.
         -2    1    3    3    0  502 -0.10762426679E+03 -0.93934902307E+03 -0.42858801399E+03  0.10380979027E+04  0.00000000000E+00 0.  1.
         13    1    5    5    0    0  0.44672712839E+02 -0.60502351766E+02 -0.15138503018E+01  0.75222852806E+02  0.00000000000E+00 0.  1.
        -13    1    5    5    0    0  0.57193572399E+02 -0.71865440425E+01  0.73463478403E+02  0.93378979423E+02  0.00000000000E+00 0. -1.
          3    1    6    6  503    0  0.40531705823E+02  0.19402339596E+03  0.53100041857E+03  0.56678862187E+03  0.00000000000E+00 0. -1.
         -3    1    6    6    0  503 -0.15233299919E+02  0.85745951534E+03  0.23494165720E+04  0.25010452020E+04  0.00000000000E+00 0.  1.
<mgrwt>
<rscale>  0 0.35122816E+04</rscale>
<asrwt>0</asrwt>
<pdfrwt beam="1">  1        1 0.52645054E+00 0.35122816E+04</pdfrwt>
<pdfrwt beam="2">  1       -2 0.13865463E+00 0.35122816E+04</pdfrwt>
<totfact> 0.75960347E-02</totfact>
</mgrwt>
</event>
<event>
12    5  0.5041746E-008  0.2132492E+04  0.7818608E-02  0.8547064E-01
         -2   -1    0    0    0  501 -0.00000000000E+00  0.00000000000E+00  0.99810262745E+03  0.99810262745E+03  0.00000000000E+00 0.  1.
          1   -1    0    0  501    0  0.00000000000E+00 -0.00000000000E+00 -0.11390415987E+04  0.11390415987E+04  0.00000000000E+00 0. -1.
        -24    2    1    2    0    0  0.47591011681E+03  0.26982586709E+03 -0.63757145688E+03  0.84395136024E+03  0.80374734780E+02 0.  0.
        254    2    1    2    0    0 -0.47591011681E+03 -0.26982586709E+03  0.49663248565E+03  0.12931928659E+04  0.10613234779E+04 0.  0.
         23    2    4    4    0    0 -0.59191713317E+02 -0.44576615723E+03 -0.16453686649E+03  0.48676390153E+03  0.87496225871E+02 0.  0.
         23    2    4    4    0    0 -0.41671840349E+03  0.17594029015E+03  0.66116935214E+03  0.80642896435E+03  0.92593459887E+02 0.  0.
          1    1    3    3  502    0  0.43209954079E+03  0.24200953514E+03 -0.53527724246E+03  0.72924642923E+03  0.00000000000E+00 0. -1.
         -2    1    3    3    0  502  0.43810576020E+02  0.27816331952E+02 -0.10229421442E+03  0.11470493101E+03  0.00000000000E+00 0.  1.
         13    1    5    5    0    0 -0.47696164402E+02 -0.89473116879E+02 -0.29919658633E+02  0.10571446786E+03  0.00000000000E+00 0. -1.
        -13    1    5    5    0    0 -0.11495548915E+02 -0.35629304035E+03 -0.13461720786E+03  0.38104943367E+03  0.00000000000E+00 0.  1.
          4    1    6    6  503    0 -0.27528882308E+03  0.89329173454E+02  0.35309124580E+03  0.45654908302E+03  0.00000000000E+00 0. -1.
         -4    1    6    6    0  503 -0.14142958042E+03  0.86611116692E+02  0.30807810634E+03  0.34987988133E+03  0.00000000000E+00 0.  1.
<mgrwt>
<rscale>  0 0.21324919E+04</rscale>
<asrwt>0</asrwt>
<pdfrwt beam="1">  1        1 0.17523717E+00 0.21324919E+04</pdfrwt>
<pdfrwt beam="2">  1       -2 0.15355425E+00 0.21324919E+04</pdfrwt>
<totfact> 0.26837611E+00</totfact>
</mgrwt>
</event>
<event>
12    5  0.5041746E-008  0.3495349E+04  0.7818608E-02  0.8114893E-01
          1   -1    0    0  501    0  0.00000000000E+00  0.00000000000E+00  0.30496208253E+04  0.30496208253E+04  0.00000000000E+00 0. -1.
         -2   -1    0    0    0  501 -0.00000000000E+00 -0.00000000000E+00 -0.10015557899E+04  0.10015557899E+04  0.00000000000E+00 0.  1.
        -24    2    1    2    0    0  0.14337288772E+04  0.69827953543E+03  0.55286770807E+03  0.16894840325E+04  0.74302021997E+02 0.  0.
        254    2    1    2    0    0 -0.14337288772E+04 -0.69827953543E+03  0.14951973274E+04  0.23616925827E+04  0.89375835905E+03 0.  0.
         23    2    4    4    0    0 -0.10174914287E+04 -0.59193674146E+03  0.51697120308E+03  0.12889690382E+04  0.92217369483E+02 0.  0.
         23    2    4    4    0    0 -0.41623744853E+03 -0.10634279397E+03  0.97822612429E+03  0.10727235445E+04  0.96161579090E+02 0.  0.
          1    1    3    3  502    0  0.34449740641E+03  0.17144604105E+03  0.10023340213E+03  0.39764172683E+03  0.00000000000E+00 0. -1.
         -2    1    3    3    0  502  0.10892314708E+04  0.52683349438E+03  0.45263430593E+03  0.12918423057E+04  0.00000000000E+00 0.  1.
         13    1    5    5    0    0 -0.71725670691E+03 -0.42334878532E+03  0.41057757288E+03  0.92857704095E+03  0.00000000000E+00 0.  1.
        -13    1    5    5    0    0 -0.30023472180E+03 -0.16858795614E+03  0.10639363020E+03  0.36039199725E+03  0.00000000000E+00 0. -1.
          1    1    6    6  503    0 -0.35644353297E+03 -0.12384009954E+03  0.81922626042E+03  0.90195345125E+03  0.00000000000E+00 0. -1.
         -1    1    6    6    0  503 -0.59793915558E+02  0.17497305564E+02  0.15899986387E+03  0.17077009325E+03  0.00000000000E+00 0.  1.
<mgrwt>
<rscale>  0 0.34953486E+04</rscale>
<asrwt>0</asrwt>
<pdfrwt beam="1">  1        1 0.46917243E+00 0.34953486E+04</pdfrwt>
<pdfrwt beam="2">  1       -2 0.15408551E+00 0.34953486E+04</pdfrwt>
<totfact> 0.11010895E-01</totfact>
</mgrwt>
</event>
<event>
12    5  0.5041746E-008  0.1592967E+04  0.7818608E-02  0.8824881E-01
         -2   -1    0    0    0  501 -0.00000000000E+00  0.00000000000E+00  0.92939151085E+03  0.92939151085E+03  0.00000000000E+00 0.  1.
          1   -1    0    0  501    0  0.00000000000E+00 -0.00000000000E+00 -0.68258169656E+03  0.68258169656E+03  0.00000000000E+00 0. -1.
        -24    2    1    2    0    0  0.20563795346E+02  0.48661814479E+03 -0.14941416837E+03  0.51530994116E+03  0.77457428540E+02 0.  0.
        254    2    1    2    0    0 -0.20563795346E+02 -0.48661814479E+03  0.39622398266E+03  0.10966632662E+04  0.89914225047E+03 0.  0.
         23    2    4    4    0    0 -0.77827460405E+02 -0.26111931931E+03 -0.26440935585E+03  0.39027543397E+03  0.90344863645E+02 0.  0.
         23    2    4    4    0    0  0.57263665058E+02 -0.22549882547E+03  0.66063333851E+03  0.70638783228E+03  0.91752460529E+02 0.  0.
          3    1    3    3  502    0  0.47434188301E+02  0.35817461075E+03 -0.97842751849E+02  0.37431571980E+03  0.00000000000E+00 0. -1.
         -4    1    3    3    0  502 -0.26870392955E+02  0.12844353404E+03 -0.51571416523E+02  0.14099422136E+03  0.00000000000E+00 0.  1.
         13    1    5    5    0    0 -0.86328039363E+02 -0.26249276408E+03 -0.24603737564E+03  0.36998563728E+03  0.00000000000E+00 0. -1.
        -13    1    5    5    0    0  0.85005789577E+01  0.13734447714E+01 -0.18371980204E+02  0.20289796692E+02  0.00000000000E+00 0.  1.
          3    1    6    6  503    0  0.28714882707E+02 -0.21597801102E+03  0.54591007060E+03  0.58778299645E+03  0.00000000000E+00 0. -1.
         -3    1    6    6    0  503  0.28548782352E+02 -0.95208144513E+01  0.11472326791E+03  0.11860483583E+03  0.00000000000E+00 0.  1.
<mgrwt>
<rscale>  0 0.15929666E+04</rscale>
<asrwt>0</asrwt>
<pdfrwt beam="1">  1        1 0.10501257E+00 0.15929666E+04</pdfrwt>
<pdfrwt beam="2">  1       -2 0.14298331E+00 0.15929666E+04</pdfrwt>
<totfact> 0.80840769E+00</totfact>
</mgrwt>
</event>
<event>
12    5  0.5041746E-008  0.1187897E+04  0.7818608E-02  0.9123517E-01
          1   -1    0    0  501    0  0.00000000000E+00  0.00000000000E+00  0.33626173409E+03  0.33626173409E+03  0.00000000000E+00 0. -1.
         -2   -1    0    0    0  501 -0.00000000000E+00 -0.00000000000E+00 -0.10491079916E+04  0.10491079916E+04  0.00000000000E+00 0.  1.
        -24    2    1    2    0    0 -0.62541395429E+02  0.20027550401E+03 -0.33400440742E+03  0.40324054153E+03  0.83799084208E+02 0.  0.
        254    2    1    2    0    0  0.62541395429E+02 -0.20027550401E+03 -0.37884185005E+03  0.98212918412E+03  0.88149582149E+03 0.  0.
         23    2    4    4    0    0  0.31222003209E+03 -0.67110905686E+02  0.15844919018E+03  0.36801880803E+03  0.91359044967E+02 0.  0.
         23    2    4    4    0    0 -0.24967863666E+03 -0.13316459832E+03 -0.53729104023E+03  0.61411037609E+03  0.91529559494E+02 0.  0.
          3    1    3    3  502    0 -0.14126612564E+02 -0.44393746937E+01 -0.31210483572E+02  0.34545093935E+02  0.00000000000E+00 0. -1.
         -4    1    3    3    0  502 -0.48414782865E+02  0.20471487870E+03 -0.30279392385E+03  0.36869544760E+03  0.00000000000E+00 0.  1.
         13    1    5    5    0    0  0.31523906306E+03 -0.55555129637E+02  0.15083752585E+03  0.35385590077E+03  0.00000000000E+00 0. -1.
        -13    1    5    5    0    0 -0.30190309721E+01 -0.11555776049E+02  0.76116643345E+01  0.14162907260E+02  0.00000000000E+00 0.  1.
          1    1    6    6  503    0 -0.25679175781E+03 -0.13475972109E+03 -0.52131235020E+03  0.59654736256E+03  0.00000000000E+00 0. -1.
         -1    1    6    6    0  503  0.71131211540E+01  0.15951227626E+01 -0.15978690033E+02  0.17563013533E+02  0.00000000000E+00 0.  1.
<mgrwt>
<rscale>  0 0.11878971E+04</rscale>
<asrwt>0</asrwt>
<pdfrwt beam="1">  1        1 0.51732575E-01 0.11878971E+04</pdfrwt>
<pdfrwt beam="2">  1       -2 0.16140123E+00 0.11878971E+04</pdfrwt>
<totfact> 0.16041369E+01</totfact>
</mgrwt>
</event>
<event>
12    5  0.5041746E-008  0.2250632E+04  0.7818608E-02  0.8497645E-01
         -2   -1    0    0    0  501 -0.00000000000E+00  0.00000000000E+00  0.13700790712E+04  0.13700790712E+04  0.00000000000E+00 0.  1.
          1   -1    0    0  501    0  0.00000000000E+00 -0.00000000000E+00 -0.92427923821E+03  0.92427923821E+03  0.00000000000E+00 0. -1.
        -24    2    1    2    0    0 -0.32609391517E+03 -0.85272109017E+03 -0.21909168647E+01  0.91629230539E+03  0.78206711106E+02 0.  0.
        254    2    1    2    0    0  0.32609391517E+03  0.85272109017E+03  0.44799074989E+03  0.13780660041E+04  0.92999983895E+03 0.  0.
         23    2    4    4    0    0  0.45267232969E+03  0.42826871447E+03  0.62958760370E+03  0.89085186999E+03  0.94393716292E+02 0.  0.
         23    2    4    4    0    0 -0.12657841452E+03  0.42445237570E+03 -0.18159685381E+03  0.48721413407E+03  0.90654734397E+02 0.  0.
          1    1    3    3  502    0 -0.12554792675E+03 -0.29638226246E+03 -0.36365280265E+02  0.32392462243E+03  0.00000000000E+00 0. -1.
         -2    1    3    3    0  502 -0.20054598842E+03 -0.55633882772E+03  0.34174363400E+02  0.59236768295E+03  0.00000000000E+00 0.  1.
         13    1    5    5    0    0  0.35875748060E+02  0.41135258211E+02  0.22903422026E+02  0.59192444682E+02  0.00000000000E+00 0. -1.
        -13    1    5    5    0    0  0.41679658163E+03  0.38713345626E+03  0.60668418168E+03  0.83165942531E+03  0.00000000000E+00 0.  1.
          1    1    6    6  503    0  0.26505334751E+01  0.11849864349E+03 -0.65231732493E+02  0.13529276685E+03  0.00000000000E+00 0. -1.
         -1    1    6    6    0  503 -0.12922894799E+03  0.30595373221E+03 -0.11636512132E+03  0.35192136723E+03  0.00000000000E+00 0.  1.
<mgrwt>
<rscale>  0 0.22506316E+04</rscale>
<asrwt>0</asrwt>
<pdfrwt beam="1">  1        1 0.14219681E+00 0.22506316E+04</pdfrwt>
<pdfrwt beam="2">  1       -2 0.21078139E+00 0.22506316E+04</pdfrwt>
<totfact> 0.15656196E+00</totfact>
</mgrwt>
</event>
<event>
12    5  0.5041746E-008  0.2417480E+04  0.7818608E-02  0.8432988E-01
          1   -1    0    0  501    0  0.00000000000E+00  0.00000000000E+00  0.14141374252E+04  0.14141374252E+04  0.00000000000E+00 0. -1.
         -2   -1    0    0    0  501 -0.00000000000E+00 -0.00000000000E+00 -0.10331759653E+04  0.10331759653E+04  0.00000000000E+00 0.  1.
        -24    2    1    2    0    0  0.47116611751E+03  0.70909033509E+03 -0.42947431566E+03  0.95682738938E+03  0.79144498528E+02 0.  0.
        254    2    1    2    0    0 -0.47116611751E+03 -0.70909033509E+03  0.81043577550E+03  0.14904860011E+04  0.91648009230E+03 0.  0.
         23    2    4    4    0    0 -0.43806941590E+03 -0.59351463297E+03  0.10017248254E+04  0.12468542580E+04  0.83836043875E+02 0.  0.
         23    2    4    4    0    0 -0.33096701604E+02 -0.11557570212E+03 -0.19128904986E+03  0.24363174307E+03  0.91169024669E+02 0.  0.
          3    1    3    3  502    0  0.12324999831E+03  0.13032975613E+03 -0.10161630300E+03  0.20616081212E+03  0.00000000000E+00 0. -1.
         -4    1    3    3    0  502  0.34791611919E+03  0.57876057896E+03 -0.32785801266E+03  0.75066657726E+03  0.00000000000E+00 0.  1.
         13    1    5    5    0    0 -0.35847416201E+03 -0.46744322455E+03  0.84967223047E+03  0.10339002816E+04  0.00000000000E+00 0. -1.
        -13    1    5    5    0    0 -0.79595253895E+02 -0.12607140842E+03  0.15205259490E+03  0.21295397643E+03  0.00000000000E+00 0.  1.
          4    1    6    6  503    0 -0.36391322511E+02 -0.53652879168E+02 -0.16310490628E+03  0.17551686600E+03  0.00000000000E+00 0.  1.
         -4    1    6    6    0  503  0.32946209067E+01 -0.61922822956E+02 -0.28184143576E+02  0.68114877074E+02  0.00000000000E+00 0. -1.
<mgrwt>
<rscale>  0 0.24174803E+04</rscale>
<asrwt>0</asrwt>
<pdfrwt beam="1">  1        1 0.21755960E+00 0.24174803E+04</pdfrwt>
<pdfrwt beam="2">  1       -2 0.15895015E+00 0.24174803E+04</pdfrwt>
<totfact> 0.15126665E+00</totfact>
</mgrwt>
</event>
<event>
12    5  0.5041746E-008  0.1482918E+04  0.7818608E-02  0.8895892E-01
          1   -1    0    0  501    0  0.00000000000E+00  0.00000000000E+00  0.72668444385E+03  0.72668444385E+03  0.00000000000E+00 0. -1.
         -2   -1    0    0    0  501 -0.00000000000E+00 -0.00000000000E+00 -0.75653410382E+03  0.75653410382E+03  0.00000000000E+00 0.  1.
        -24    2    1    2    0    0  0.89492404994E+02 -0.39172724841E+03  0.21311013134E+03  0.46177864097E+03  0.79777549968E+02 0.  0.
        254    2    1    2    0    0 -0.89492404994E+02  0.39172724841E+03 -0.24295979130E+03  0.10214399067E+04  0.90711129146E+03 0.  0.
         23    2    4    4    0    0  0.28746390512E+03  0.47414600471E+03 -0.26918102821E+03  0.62345587792E+03  0.93749001241E+02 0.  0.
         23    2    4    4    0    0 -0.37695631011E+03 -0.82418756299E+02  0.26221236907E+02  0.39798402877E+03  0.93887287586E+02 0.  0.
          3    1    3    3  502    0  0.10402583976E+03 -0.33457508083E+03  0.17590057284E+03  0.39204957796E+03  0.00000000000E+00 0. -1.
         -4    1    3    3    0  502 -0.14533434766E+02 -0.57152167584E+02  0.37209558497E+02  0.69729063017E+02  0.00000000000E+00 0.  1.
         13    1    5    5    0    0  0.11670099095E+03  0.13726743051E+03 -0.12452042548E+03  0.21901325332E+03  0.00000000000E+00 0. -1.
        -13    1    5    5    0    0  0.17076291417E+03  0.33687857420E+03 -0.14466060273E+03  0.40444262460E+03  0.00000000000E+00 0.  1.
          1    1    6    6  503    0 -0.10497248076E+02 -0.11549085607E+02  0.19102318336E+02  0.24667228489E+02  0.00000000000E+00 0. -1.
         -1    1    6    6    0  503 -0.36645906204E+03 -0.70869670692E+02  0.71189185708E+01  0.37331680028E+03  0.00000000000E+00 0.  1.
<mgrwt>
<rscale>  0 0.14829182E+04</rscale>
<asrwt>0</asrwt>
<pdfrwt beam="1">  1        1 0.11179761E+00 0.14829182E+04</pdfrwt>
<pdfrwt beam="2">  1       -2 0.11638986E+00 0.14829182E+04</pdfrwt>
<totfact> 0.12492765E+01</totfact>
</mgrwt>
</event>
<event>
12    5  0.5041746E-008  0.1726524E+04  0.7818608E-02  0.8746379E-01
          1   -1    0    0  501    0  0.00000000000E+00  0.00000000000E+00  0.25239155531E+04  0.25239155531E+04  0.00000000000E+00 0. -1.
         -2   -1    0    0    0  501 -0.00000000000E+00 -0.00000000000E+00 -0.29526410843E+03  0.29526410843E+03  0.00000000000E+00 0.  1.
        -24    2    1    2    0    0  0.30552893762E+03 -0.37098629315E+03  0.14946506194E+04  0.15720829405E+04  0.80532827812E+02 0.  0.
        254    2    1    2    0    0 -0.30552893762E+03  0.37098629315E+03  0.73400082527E+03  0.12470967210E+04  0.88629242276E+03 0.  0.
         23    2    4    4    0    0  0.23157157546E+02  0.21009331952E+03 -0.15765472513E+03  0.27902331878E+03  0.91233454486E+02 0.  0.
         23    2    4    4    0    0 -0.32868609516E+03  0.16089297364E+03  0.89165555040E+03  0.96807340223E+03  0.90528412357E+02 0.  0.
          1    1    3    3  502    0  0.26239381728E+03 -0.26537834558E+03  0.11375075351E+04  0.11971631359E+04  0.00000000000E+00 0. -1.
         -4    1    3    3    0  502  0.43135120331E+02 -0.10560794757E+03  0.35714308436E+03  0.37491980463E+03  0.00000000000E+00 0.  1.
         13    1    5    5    0    0 -0.16460908781E+02  0.17713130854E+03 -0.13155821262E+03  0.22125556556E+03  0.00000000000E+00 0.  1.
        -13    1    5    5    0    0  0.39618066328E+02  0.32962010974E+02 -0.26096512503E+02  0.57767753218E+02  0.00000000000E+00 0. -1.
          3    1    6    6  503    0 -0.13777158467E+03  0.23504974058E+02  0.28524880389E+03  0.31764819135E+03  0.00000000000E+00 0. -1.
         -3    1    6    6    0  503 -0.19091451049E+03  0.13738799958E+03  0.60640674651E+03  0.65042521089E+03  0.00000000000E+00 0.  1.
<mgrwt>
<rscale>  0 0.17265245E+04</rscale>
<asrwt>0</asrwt>
<pdfrwt beam="1">  1        1 0.38829469E+00 0.17265245E+04</pdfrwt>
<pdfrwt beam="2">  1       -2 0.45425249E-01 0.17265245E+04</pdfrwt>
<totfact> 0.50041631E+00</totfact>
</mgrwt>
</event>
<event>
12    5  0.5041746E-008  0.1440245E+04  0.7818608E-02  0.8925191E-01
         -4   -1    0    0    0  501 -0.00000000000E+00  0.00000000000E+00  0.61522916057E+03  0.61522916057E+03  0.00000000000E+00 0.  1.
          1   -1    0    0  501    0  0.00000000000E+00 -0.00000000000E+00 -0.84289975754E+03  0.84289975754E+03  0.00000000000E+00 0. -1.
        -24    2    1    2    0    0  0.75139754754E+02 -0.15445694920E+03 -0.47971613872E+03  0.51516267437E+03  0.75908335573E+02 0.  0.
        254    2    1    2    0    0 -0.75139754754E+02  0.15445694920E+03  0.25204554175E+03  0.94296624375E+03  0.89227543384E+03 0.  0.
         23    2    4    4    0    0  0.28080715437E+03  0.11759776858E+03  0.42818564403E+03  0.53367503571E+03  0.93724089050E+02 0.  0.
         23    2    4    4    0    0 -0.35594690913E+03  0.36859180621E+02 -0.17614010228E+03  0.40929120804E+03  0.91853993020E+02 0.  0.
          1    1    3    3  502    0  0.90354793677E+02 -0.12587523013E+03 -0.40972830188E+03  0.43804776414E+03  0.00000000000E+00 0. -1.
         -2    1    3    3    0  502 -0.15215038923E+02 -0.28581719073E+02 -0.69987836838E+02  0.77114910231E+02  0.00000000000E+00 0.  1.
         13    1    5    5    0    0  0.18443493594E+03  0.82973242140E+02  0.20424458067E+03  0.28743112782E+03  0.00000000000E+00 0. -1.
        -13    1    5    5    0    0  0.96372218435E+02  0.34624526442E+02  0.22394106335E+03  0.24624390789E+03  0.00000000000E+00 0.  1.
          1    1    6    6  503    0 -0.15718839555E+03 -0.27261225314E+02 -0.60919754182E+02  0.17077055528E+03  0.00000000000E+00 0. -1.
         -1    1    6    6    0  503 -0.19875851357E+03  0.64120405935E+02 -0.11522034809E+03  0.23852065275E+03  0.00000000000E+00 0.  1.
<mgrwt>
<rscale>  0 0.14402451E+04</rscale>
<asrwt>0</asrwt>
<pdfrwt beam="1">  1        1 0.12967689E+00 0.14402451E+04</pdfrwt>
<pdfrwt beam="2">  1       -4 0.94650640E-01 0.14402451E+04</pdfrwt>
<totfact> 0.90009073E+00</totfact>
</mgrwt>
</event>
<event>
12    5  0.5041746E-008  0.1111818E+04  0.7818608E-02  0.9193749E-01
          1   -1    0    0  501    0  0.00000000000E+00  0.00000000000E+00  0.30025288317E+03  0.30025288317E+03  0.00000000000E+00 0. -1.
         -2   -1    0    0    0  501 -0.00000000000E+00 -0.00000000000E+00 -0.10292485032E+04  0.10292485032E+04  0.00000000000E+00 0.  1.
        -24    2    1    2    0    0  0.17101308907E+02 -0.14599950842E+03 -0.26340484140E+02  0.16819634864E+03  0.77381389014E+02 0.  0.
        254    2    1    2    0    0 -0.17101308907E+02  0.14599950842E+03 -0.70265513587E+03  0.11613050377E+04  0.91285094041E+03 0.  0.
         23    2    4    4    0    0 -0.12531687823E+03 -0.18090083520E+03 -0.76359219387E+03  0.80007711737E+03  0.92848925966E+02 0.  0.
         23    2    4    4    0    0  0.10821556932E+03  0.32690034362E+03  0.60937058000E+02  0.36122792034E+03  0.90541931124E+02 0.  0.
          1    1    3    3  502    0 -0.11848941154E+01 -0.14572627639E+03 -0.31699905107E+02  0.14913898078E+03  0.00000000000E+00 0. -1.
         -2    1    3    3    0  502  0.18286203023E+02 -0.27323203381E+00  0.53594209678E+01  0.19057367862E+02  0.00000000000E+00 0.  1.
         13    1    5    5    0    0 -0.10009341480E+03 -0.13723047173E+03 -0.69176810216E+03  0.71231594199E+03  0.00000000000E+00 0. -1.
        -13    1    5    5    0    0 -0.25223463426E+02 -0.43670363466E+02 -0.71824091712E+02  0.87761175372E+02  0.00000000000E+00 0.  1.
          2    1    6    6  503    0  0.34111820699E+01 -0.34226605396E+01 -0.65778601883E+01  0.81620471047E+01  0.00000000000E+00 0.  1.
         -2    1    6    6    0  503  0.10480438725E+03  0.33032300416E+03  0.67514918188E+02  0.35306587323E+03  0.00000000000E+00 0. -1.
<mgrwt>
<rscale>  0 0.11118180E+04</rscale>
<asrwt>0</asrwt>
<pdfrwt beam="1">  1        1 0.46192752E-01 0.11118180E+04</pdfrwt>
<pdfrwt beam="2">  1       -2 0.15834592E+00 0.11118180E+04</pdfrwt>
<totfact> 0.19695111E+01</totfact>
</mgrwt>
</event>
<event>
12    5  0.5041746E-008  0.1377006E+04  0.7818608E-02  0.8970633E-01
         -2   -1    0    0    0  501 -0.00000000000E+00  0.00000000000E+00  0.69590523142E+03  0.69590523142E+03  0.00000000000E+00 0.  1.
          1   -1    0    0  501    0  0.00000000000E+00 -0.00000000000E+00 -0.68117929315E+03  0.68117929315E+03  0.00000000000E+00 0. -1.
        -24    2    1    2    0    0 -0.25985739442E+03  0.28275849778E+03  0.50989701973E+01  0.39242312929E+03  0.80570958834E+02 0.  0.
        254    2    1    2    0    0  0.25985739442E+03 -0.28275849778E+03  0.96269680786E+01  0.98466139527E+03  0.90663507065E+03 0.  0.
         23    2    4    4    0    0  0.16630041885E+03  0.14085357950E+03  0.35254066611E+03  0.42421600374E+03  0.90436366570E+02 0.  0.
         23    2    4    4    0    0  0.93556975567E+02 -0.42361207727E+03 -0.34291369803E+03  0.56044539154E+03  0.91154445333E+02 0.  0.
          3    1    3    3  502    0 -0.14669938992E+03  0.20945508876E+03  0.21411052400E+02  0.25661367534E+03  0.00000000000E+00 0. -1.
         -2    1    3    3    0  502 -0.11315800450E+03  0.73303409023E+02 -0.16312082203E+02  0.13580945395E+03  0.00000000000E+00 0.  1.
         13    1    5    5    0    0  0.26069197279E+02  0.41840841713E+02  0.15428111628E+03  0.16196580479E+03  0.00000000000E+00 0.  1.
        -13    1    5    5    0    0  0.14023122157E+03  0.99012737783E+02  0.19825954983E+03  0.26225019895E+03  0.00000000000E+00 0. -1.
          1    1    6    6  503    0  0.10988178733E+03 -0.33698996199E+03 -0.28683278377E+03  0.45597070905E+03  0.00000000000E+00 0. -1.
         -1    1    6    6    0  503 -0.16324811760E+02 -0.86622115285E+02 -0.56080914267E+02  0.10447468249E+03  0.00000000000E+00 0.  1.
<mgrwt>
<rscale>  0 0.13770058E+04</rscale>
<asrwt>0</asrwt>
<pdfrwt beam="1">  1        1 0.10479681E+00 0.13770058E+04</pdfrwt>
<pdfrwt beam="2">  1       -2 0.10706234E+00 0.13770058E+04</pdfrwt>
<totfact> 0.17032896E+01</totfact>
</mgrwt>
</event>
<event>
12    5  0.5041746E-008  0.2003992E+04  0.7818608E-02  0.8604757E-01
          1   -1    0    0  501    0  0.00000000000E+00  0.00000000000E+00  0.12205832678E+04  0.12205832678E+04  0.00000000000E+00 0. -1.
         -2   -1    0    0    0  501 -0.00000000000E+00 -0.00000000000E+00 -0.82255431360E+03  0.82255431360E+03  0.00000000000E+00 0.  1.
        -24    2    1    2    0    0  0.61481210995E+03  0.11502173030E+03 -0.34508713573E+03  0.71877866475E+03  0.79584600714E+02 0.  0.
        254    2    1    2    0    0 -0.61481210995E+03 -0.11502173030E+03  0.74311608989E+03  0.13243589166E+04  0.90026723141E+03 0.  0.
         23    2    4    4    0    0 -0.70664971575E+03 -0.10189946099E+03  0.17341086781E+03  0.73987568057E+03  0.87220254038E+02 0.  0.
         23    2    4    4    0    0  0.91837605794E+02 -0.13122269311E+02  0.56970522208E+03  0.58448323603E+03  0.91925368337E+02 0.  0.
          3    1    3    3  502    0  0.13272380807E+03 -0.25108378649E+01 -0.52647162793E+02  0.14280629287E+03  0.00000000000E+00 0. -1.
         -4    1    3    3    0  502  0.48208830189E+03  0.11753256816E+03 -0.29243997293E+03  0.57597237188E+03  0.00000000000E+00 0.  1.
         13    1    5    5    0    0 -0.66089926590E+03 -0.11592547343E+03  0.15542521640E+03  0.68875507472E+03  0.00000000000E+00 0.  1.
        -13    1    5    5    0    0 -0.45750449850E+02  0.14026012446E+02  0.17985651407E+02  0.51120605856E+02  0.00000000000E+00 0. -1.
          3    1    6    6  503    0 -0.80481404534E+01 -0.18889743286E+02  0.35679841342E+02  0.41166078807E+02  0.00000000000E+00 0. -1.
         -3    1    6    6    0  503  0.99885746247E+02  0.57674739744E+01  0.53402538074E+03  0.54331715722E+03  0.00000000000E+00 0.  1.
<mgrwt>
<rscale>  0 0.20039920E+04</rscale>
<asrwt>0</asrwt>
<pdfrwt beam="1">  1        1 0.18778204E+00 0.20039920E+04</pdfrwt>
<pdfrwt beam="2">  1       -2 0.12654682E+00 0.20039920E+04</pdfrwt>
<totfact> 0.39035858E+00</totfact>
</mgrwt>
</event>
<event>
12    5  0.5041746E-008  0.2698836E+04  0.7818608E-02  0.8335383E-01
         -2   -1    0    0    0  501 -0.00000000000E+00  0.00000000000E+00  0.14510013883E+04  0.14510013883E+04  0.00000000000E+00 0.  1.
          1   -1    0    0  501    0  0.00000000000E+00 -0.00000000000E+00 -0.12549467960E+04  0.12549467960E+04  0.00000000000E+00 0. -1.
        -24    2    1    2    0    0  0.15597098752E+02  0.41658836765E+03  0.12132135328E+04  0.12853128341E+04  0.79704879304E+02 0.  0.
        254    2    1    2    0    0 -0.15597098752E+02 -0.41658836765E+03 -0.10171589405E+04  0.14206353502E+04  0.89989074367E+03 0.  0.
         23    2    4    4    0    0  0.38052444614E+03 -0.43126329161E+03 -0.55364452103E+03  0.80360164855E+03  0.92013439751E+02 0.  0.
         23    2    4    4    0    0 -0.39612154489E+03  0.14674923958E+02 -0.46351441945E+03  0.61703370167E+03  0.93580661616E+02 0.  0.
          1    1    3    3  502    0  0.20529371822E+02  0.25214042171E+02  0.77454550004E+02  0.84002442502E+02  0.00000000000E+00 0. -1.
         -2    1    3    3    0  502 -0.49322730698E+01  0.39137432548E+03  0.11357589828E+04  0.12013103916E+04  0.00000000000E+00 0.  1.
         13    1    5    5    0    0  0.10633540583E+03 -0.12206128418E+03 -0.10160798389E+03  0.19112916580E+03  0.00000000000E+00 0.  1.
        -13    1    5    5    0    0  0.27418904031E+03 -0.30920200742E+03 -0.45203653714E+03  0.61247248275E+03  0.00000000000E+00 0. -1.
          4    1    6    6  503    0 -0.20408659586E+03  0.32163822668E+02 -0.17918181109E+03  0.27348120872E+03  0.00000000000E+00 0. -1.
         -4    1    6    6    0  503 -0.19203494903E+03 -0.17488898710E+02 -0.28433260837E+03  0.34355249294E+03  0.00000000000E+00 0.  1.
<mgrwt>
<rscale>  0 0.26988364E+04</rscale>
<asrwt>0</asrwt>
<pdfrwt beam="1">  1        1 0.19306874E+00 0.26988364E+04</pdfrwt>
<pdfrwt beam="2">  1       -2 0.22323098E+00 0.26988364E+04</pdfrwt>
<totfact> 0.70434690E-01</totfact>
</mgrwt>
</event>
<event>
12    5  0.5041746E-008  0.2021774E+04  0.7818608E-02  0.8596508E-01
         -2   -1    0    0    0  501 -0.00000000000E+00  0.00000000000E+00  0.80692993490E+03  0.80692993490E+03  0.00000000000E+00 0.  1.
          1   -1    0    0  501    0  0.00000000000E+00 -0.00000000000E+00 -0.12663952895E+04  0.12663952895E+04  0.00000000000E+00 0. -1.
        -24    2    1    2    0    0  0.52691993040E+03 -0.89852197521E+02 -0.80554336114E+03  0.97006740925E+03  0.80078969576E+02 0.  0.
        254    2    1    2    0    0 -0.52691993040E+03  0.89852197521E+02  0.34607800657E+03  0.11032578151E+04  0.90093828286E+03 0.  0.
         23    2    4    4    0    0  0.24010308319E+03  0.67627369272E+02  0.28215081684E+02  0.26712129457E+03  0.91294816638E+02 0.  0.
         23    2    4    4    0    0 -0.76702301359E+03  0.22224828249E+02  0.31786292489E+03  0.83613652055E+03  0.96276661825E+02 0.  0.
          3    1    3    3  502    0  0.32271560769E+03 -0.70686626869E+02 -0.55942704725E+03  0.64969268417E+03  0.00000000000E+00 0. -1.
         -4    1    3    3    0  502  0.20420432271E+03 -0.19165570652E+02 -0.24611631389E+03  0.32037472509E+03  0.00000000000E+00 0.  1.
         13    1    5    5    0    0  0.21926225013E+03  0.37988407078E+02  0.22404962201E+01  0.22254004859E+03  0.00000000000E+00 0. -1.
        -13    1    5    5    0    0  0.20840833059E+02  0.29638962194E+02  0.25974585464E+02  0.44581245974E+02  0.00000000000E+00 0.  1.
          4    1    6    6  503    0 -0.73262405531E+03  0.27465928682E+02  0.28019792886E+03  0.78485875353E+03  0.00000000000E+00 0. -1.
         -4    1    6    6    0  503 -0.34398958278E+02 -0.52411004332E+01  0.37664996031E+02  0.51277767018E+02  0.00000000000E+00 0.  1.
<mgrwt>
<rscale>  0 0.20217737E+04</rscale>
<asrwt>0</asrwt>
<pdfrwt beam="1">  1        1 0.19483004E+00 0.20217737E+04</pdfrwt>
<pdfrwt beam="2">  1       -2 0.12414307E+00 0.20217737E+04</pdfrwt>
<totfact> 0.37896305E+00</totfact>
</mgrwt>
</event>
<event>
12    5  0.5041746E-008  0.1353699E+04  0.7818608E-02  0.8988033E-01
         -2   -1    0    0    0  501 -0.00000000000E+00  0.00000000000E+00  0.39111673899E+03  0.39111673899E+03  0.00000000000E+00 0.  1.
          1   -1    0    0  501    0  0.00000000000E+00 -0.00000000000E+00 -0.11713260649E+04  0.11713260649E+04  0.00000000000E+00 0. -1.
        -24    2    1    2    0    0  0.37696817683E+03  0.26709652019E+02 -0.14229115402E+03  0.41128181432E+03  0.78022730181E+02 0.  0.
        254    2    1    2    0    0 -0.37696817683E+03 -0.26709652019E+02 -0.63791817188E+03  0.11511609896E+04  0.88057573101E+03 0.  0.
         23    2    4    4    0    0 -0.65672907441E+03  0.18698159914E+01 -0.43366660369E+03  0.79217401004E+03  0.90423258371E+02 0.  0.
         23    2    4    4    0    0  0.27976089758E+03 -0.28579468010E+02 -0.20425156820E+03  0.35898697953E+03  0.89833192938E+02 0.  0.
          3    1    3    3  502    0  0.68990753196E+02  0.16998800483E+02 -0.58295837844E+02  0.91908040749E+02  0.00000000000E+00 0. -1.
         -4    1    3    3    0  502  0.30797742363E+03  0.97108515361E+01 -0.83995316177E+02  0.31937377357E+03  0.00000000000E+00 0.  1.
         13    1    5    5    0    0 -0.39070295184E+03 -0.94079078287E+01 -0.30876521026E+03  0.49806953367E+03  0.00000000000E+00 0.  1.
        -13    1    5    5    0    0 -0.26602612257E+03  0.11277723820E+02 -0.12490139343E+03  0.29410447637E+03  0.00000000000E+00 0. -1.
          4    1    6    6  503    0  0.16193740024E+02 -0.14165602190E+02 -0.47113320204E+02  0.51793498067E+02  0.00000000000E+00 0. -1.
         -4    1    6    6    0  503  0.26356715755E+03 -0.14413865820E+02 -0.15713824799E+03  0.30719348146E+03  0.00000000000E+00 0.  1.
<mgrwt>
<rscale>  0 0.13536990E+04</rscale>
<asrwt>0</asrwt>
<pdfrwt beam="1">  1        1 0.18020401E+00 0.13536990E+04</pdfrwt>
<pdfrwt beam="2">  1       -2 0.60171807E-01 0.13536990E+04</pdfrwt>
<totfact> 0.24780916E+01</totfact>
</mgrwt>
</event>
<event>
12    5  0.5041746E-008  0.1133025E+04  0.7818608E-02  0.9173588E-01
         -2   -1    0    0    0  501 -0.00000000000E+00  0.00000000000E+00  0.19852189141E+03  0.19852189141E+03  0.00000000000E+00 0.  1.
          1   -1    0    0  501    0  0.00000000000E+00 -0.00000000000E+00 -0.16166286740E+04  0.16166286740E+04  0.00000000000E+00 0. -1.
        -24    2    1    2    0    0 -0.12666041318E+02 -0.65576133894E+02  0.29771535591E+02  0.10790531435E+03  0.79350832346E+02 0.  0.
        254    2    1    2    0    0  0.12666041318E+02  0.65576133894E+02 -0.14478783182E+04  0.17072452511E+04  0.90214969104E+03 0.  0.
         23    2    4    4    0    0  0.21789234943E+03  0.38436522252E+03 -0.46424452657E+03  0.64909698551E+03  0.10290877481E+03 0.  0.
         23    2    4    4    0    0 -0.20522630811E+03 -0.31878908862E+03 -0.98363379161E+03  0.10581482655E+04  0.91640576689E+02 0.  0.
          1    1    3    3  502    0 -0.33908765934E+02 -0.41058963327E+02 -0.12424296299E+02  0.54680947460E+02  0.00000000000E+00 0. -1.
         -2    1    3    3    0  502  0.21242724616E+02 -0.24517170567E+02  0.42195831890E+02  0.53224366888E+02  0.00000000000E+00 0.  1.
         13    1    5    5    0    0  0.12007182121E+03  0.14178326936E+03 -0.14075415128E+03  0.23309111700E+03  0.00000000000E+00 0.  1.
        -13    1    5    5    0    0  0.97820528220E+02  0.24258195315E+03 -0.32349037529E+03  0.41600586851E+03  0.00000000000E+00 0. -1.
          3    1    6    6  503    0 -0.14247050554E+03 -0.13775577589E+03 -0.48026934445E+03  0.51955090410E+03  0.00000000000E+00 0.  1.
         -3    1    6    6    0  503 -0.62755802575E+02 -0.18103331273E+03 -0.50336444717E+03  0.53859736144E+03  0.00000000000E+00 0. -1.
<mgrwt>
<rscale>  0 0.11330246E+04</rscale>
<asrwt>0</asrwt>
<pdfrwt beam="1">  1        1 0.24871210E+00 0.11330246E+04</pdfrwt>
<pdfrwt beam="2">  1       -2 0.30541830E-01 0.11330246E+04</pdfrwt>
<totfact> 0.47045248E+01</totfact>
</mgrwt>
</event>
<event>
12    5  0.5041746E-008  0.1398814E+04  0.7818608E-02  0.8954677E-01
         -4   -1    0    0    0  501 -0.00000000000E+00  0.00000000000E+00  0.32326457307E+03  0.32326457307E+03  0.00000000000E+00 0.  1.
          1   -1    0    0  501    0  0.00000000000E+00 -0.00000000000E+00 -0.15132198969E+04  0.15132198969E+04  0.00000000000E+00 0. -1.
        -24    2    1    2    0    0  0.39617420117E+03  0.72996489073E+01 -0.29189152780E+03  0.49803445873E+03  0.76356895781E+02 0.  0.
        254    2    1    2    0    0 -0.39617420117E+03 -0.72996489073E+01 -0.89806379603E+03  0.13384500112E+04  0.90990250484E+03 0.  0.
         23    2    4    4    0    0  0.95251614746E+02  0.33747898322E+03 -0.48002502740E+03  0.60118234494E+03  0.89617245676E+02 0.  0.
         23    2    4    4    0    0 -0.49142581592E+03 -0.34477863212E+03 -0.41803876863E+03  0.73726766630E+03  0.91845315448E+02 0.  0.
          1    1    3    3  502    0  0.25766436976E+03  0.35271827115E+02 -0.21324842861E+03  0.33631818496E+03  0.00000000000E+00 0. -1.
         -2    1    3    3    0  502  0.13850983141E+03 -0.27972178208E+02 -0.78643099197E+02  0.16171627377E+03  0.00000000000E+00 0.  1.
         13    1    5    5    0    0  0.63181198329E+01  0.70095906475E+01 -0.53541020374E+02  0.54366293436E+02  0.00000000000E+00 0. -1.
        -13    1    5    5    0    0  0.88933494913E+02  0.33046939257E+03 -0.42648400702E+03  0.54681605151E+03  0.00000000000E+00 0.  1.
          3    1    6    6  503    0 -0.97429705889E+02 -0.29923584608E+02 -0.54705594126E+02  0.11567484832E+03  0.00000000000E+00 0. -1.
         -3    1    6    6    0  503 -0.39399611003E+03 -0.31485504752E+03 -0.36333317451E+03  0.62159281798E+03  0.00000000000E+00 0.  1.
<mgrwt>
<rscale>  0 0.13988143E+04</rscale>
<asrwt>0</asrwt>
<pdfrwt beam="1">  1        1 0.23280307E+00 0.13988143E+04</pdfrwt>
<pdfrwt beam="2">  1       -4 0.49733010E-01 0.13988143E+04</pdfrwt>
<totfact> 0.11983891E+01</totfact>
</mgrwt>
</event>
<event>
12    5  0.5041746E-008  0.1579063E+04  0.7818608E-02  0.8833515E-01
         -2   -1    0    0    0  501 -0.00000000000E+00  0.00000000000E+00  0.43358070165E+03  0.43358070165E+03  0.00000000000E+00 0.  1.
          1   -1    0    0  501    0  0.00000000000E+00 -0.00000000000E+00 -0.14377019332E+04  0.14377019332E+04  0.00000000000E+00 0. -1.
        -24    2    1    2    0    0  0.33896326761E+02  0.55647812399E+02 -0.95366795290E+03  0.95915510999E+03  0.79058969447E+02 0.  0.
        254    2    1    2    0    0 -0.33896326761E+02 -0.55647812399E+02 -0.50453278697E+02  0.91212752490E+03  0.90839718645E+03 0.  0.
         23    2    4    4    0    0 -0.30751691205E+03  0.25204400590E+03 -0.20873726388E+03  0.46049198728E+03  0.10192542817E+03 0.  0.
         23    2    4    4    0    0  0.27362058529E+03 -0.30769181830E+03  0.15828398518E+03  0.45163553763E+03  0.96841928638E+02 0.  0.
          3    1    3    3  502    0  0.18999098251E+02  0.73974462074E+02 -0.80598674430E+03  0.80959731889E+03  0.00000000000E+00 0. -1.
         -4    1    3    3    0  502  0.14897228511E+02 -0.18326649675E+02 -0.14768120860E+03  0.14955779110E+03  0.00000000000E+00 0.  1.
         13    1    5    5    0    0 -0.29075779985E+03  0.21104497017E+03 -0.15616672973E+03  0.39175007988E+03  0.00000000000E+00 0. -1.
        -13    1    5    5    0    0 -0.16759112200E+02  0.40999035726E+02 -0.52570534149E+02  0.68741907400E+02  0.00000000000E+00 0.  1.
          1    1    6    6  503    0  0.22978963576E+03 -0.19276923388E+03  0.11552813631E+03  0.32141873703E+03  0.00000000000E+00 0. -1.
         -1    1    6    6    0  503  0.43830949529E+02 -0.11492258442E+03  0.42755848873E+02  0.13021680060E+03  0.00000000000E+00 0.  1.
<mgrwt>
<rscale>  0 0.15790628E+04</rscale>
<asrwt>0</asrwt>
<pdfrwt beam="1">  1        1 0.22118491E+00 0.15790628E+04</pdfrwt>
<pdfrwt beam="2">  1       -2 0.66704724E-01 0.15790628E+04</pdfrwt>
<totfact> 0.12586210E+01</totfact>
</mgrwt>
</event>
<event>
12    5  0.5041746E-008  0.1481862E+04  0.7818608E-02  0.8896605E-01
         -2   -1    0    0    0  501 -0.00000000000E+00  0.00000000000E+00  0.27814972372E+03  0.27814972372E+03  0.00000000000E+00 0.  1.
          1   -1    0    0  501    0  0.00000000000E+00 -0.00000000000E+00 -0.19736817602E+04  0.19736817602E+04  0.00000000000E+00 0. -1.
        -24    2    1    2    0    0  0.18299073461E+03 -0.40821494843E+03 -0.32902959069E+03  0.56115101422E+03  0.80653184311E+02 0.  0.
        254    2    1    2    0    0 -0.18299073461E+03  0.40821494843E+03 -0.13665024458E+04  0.16906804697E+04  0.88935170952E+03 0.  0.
         23    2    4    4    0    0 -0.27167752953E+03 -0.43868412635E+02 -0.53506923460E+02  0.29573984643E+03  0.94159164369E+02 0.  0.
         23    2    4    4    0    0  0.88686794913E+02  0.45208336106E+03 -0.13129955224E+04  0.13949406233E+04  0.98272009510E+02 0.  0.
          1    1    3    3  502    0  0.57670511661E+02 -0.76495339789E+02 -0.40557496360E+02  0.10403045437E+03  0.00000000000E+00 0. -1.
         -2    1    3    3    0  502  0.12532022295E+03 -0.33171960864E+03 -0.28847209433E+03  0.45712055986E+03  0.00000000000E+00 0.  1.
         13    1    5    5    0    0 -0.64777258148E+02  0.26025113768E+02 -0.30373538411E+02  0.76131147078E+02  0.00000000000E+00 0.  1.
        -13    1    5    5    0    0 -0.20690027138E+03 -0.69893526403E+02 -0.23133385049E+02  0.21960869936E+03  0.00000000000E+00 0. -1.
          1    1    6    6  503    0  0.93795233226E+02  0.32255116600E+03 -0.10363213324E+04  0.10894029119E+04  0.00000000000E+00 0. -1.
         -1    1    6    6    0  503 -0.51084383129E+01  0.12953219507E+03 -0.27667419000E+03  0.30553771144E+03  0.00000000000E+00 0.  1.
<mgrwt>
<rscale>  0 0.14818624E+04</rscale>
<asrwt>0</asrwt>
<pdfrwt beam="1">  1        1 0.30364335E+00 0.14818624E+04</pdfrwt>
<pdfrwt beam="2">  1       -2 0.42792264E-01 0.14818624E+04</pdfrwt>
<totfact> 0.13680207E+01</totfact>
</mgrwt>
</event>
<event>
12    5  0.5041746E-008  0.2098265E+04  0.7818608E-02  0.8562008E-01
          1   -1    0    0  501    0  0.00000000000E+00  0.00000000000E+00  0.12235185057E+04  0.12235185057E+04  0.00000000000E+00 0. -1.
         -2   -1    0    0    0  501 -0.00000000000E+00 -0.00000000000E+00 -0.89960174088E+03  0.89960174088E+03  0.00000000000E+00 0.  1.
        -24    2    1    2    0    0  0.73150595238E+02 -0.83983983426E+03 -0.14718714310E+00  0.84671570906E+03  0.79028561341E+02 0.  0.
        254    2    1    2    0    0 -0.73150595238E+02  0.83983983426E+03  0.32406395195E+03  0.12764045375E+04  0.90194741621E+03 0.  0.
         23    2    4    4    0    0  0.36717325229E+03  0.44967084625E+03  0.34534223188E+03  0.68071474591E+03  0.84209506677E+02 0.  0.
         23    2    4    4    0    0 -0.44032384753E+03  0.39016898801E+03 -0.21278279936E+02  0.59568979159E+03  0.90976000694E+02 0.  0.
          1    1    3    3  502    0  0.73665720414E+02 -0.77955274748E+03 -0.19883931591E+02  0.78327804463E+03  0.00000000000E+00 0. -1.
         -2    1    3    3    0  502 -0.51512517636E+00 -0.60287086784E+02  0.19736744448E+02  0.63437664429E+02  0.00000000000E+00 0.  1.
         13    1    5    5    0    0  0.11304533073E+03  0.15104413442E+03  0.15825799489E+03  0.24625021886E+03  0.00000000000E+00 0.  1.
        -13    1    5    5    0    0  0.25412792156E+03  0.29862671183E+03  0.18708423700E+03  0.43446452705E+03  0.00000000000E+00 0. -1.
          1    1    6    6  503    0 -0.78970396667E+02  0.30038888579E+02  0.67053966059E+01  0.84756242959E+02  0.00000000000E+00 0. -1.
         -1    1    6    6    0  503 -0.36135345086E+03  0.36013009943E+03 -0.27983676541E+02  0.51093354863E+03  0.00000000000E+00 0.  1.
<mgrwt>
<rscale>  0 0.20982654E+04</rscale>
<asrwt>0</asrwt>
<pdfrwt beam="1">  1        1 0.18823362E+00 0.20982654E+04</pdfrwt>
<pdfrwt beam="2">  1       -2 0.13840027E+00 0.20982654E+04</pdfrwt>
<totfact> 0.30671055E+00</totfact>
</mgrwt>
</event>
<event>
12    5  0.5041746E-008  0.1338644E+04  0.7818608E-02  0.8999469E-01
          1   -1    0    0  501    0  0.00000000000E+00  0.00000000000E+00  0.10202796937E+04  0.10202796937E+04  0.00000000000E+00 0. -1.
         -4   -1    0    0    0  501 -0.00000000000E+00 -0.00000000000E+00 -0.43908766012E+03  0.43908766012E+03  0.00000000000E+00 0.  1.
        -24    2    1    2    0    0 -0.20869075112E+03 -0.41356907521E+02  0.47138553057E+03  0.52372243714E+03  0.82575113295E+02 0.  0.
        254    2    1    2    0    0  0.20869075112E+03  0.41356907521E+02  0.10980650298E+03  0.93564491664E+03  0.90449528386E+03 0.  0.
         23    2    4    4    0    0  0.30098406993E+03 -0.15511667153E+03 -0.30043738188E+03  0.46233760056E+03  0.94025764121E+02 0.  0.
         23    2    4    4    0    0 -0.92293318814E+02  0.19647357905E+03  0.41024388485E+03  0.47330731608E+03  0.92735356968E+02 0.  0.
          3    1    3    3  502    0 -0.96583145093E+02 -0.29583857936E+02  0.13270710803E+03  0.16677735184E+03  0.00000000000E+00 0. -1.
         -4    1    3    3    0  502 -0.11210760602E+03 -0.11773049585E+02  0.33867842255E+03  0.35694508530E+03  0.00000000000E+00 0.  1.
         13    1    5    5    0    0  0.21273006541E+03 -0.15216727806E+03 -0.24288901599E+03  0.35693701871E+03  0.00000000000E+00 0. -1.
        -13    1    5    5    0    0  0.88254004523E+02 -0.29493934744E+01 -0.57548365891E+02  0.10540058184E+03  0.00000000000E+00 0.  1.
          4    1    6    6  503    0 -0.25597144553E+02  0.12496624161E+02  0.11943850273E+03  0.12278817272E+03  0.00000000000E+00 0.  1.
         -4    1    6    6    0  503 -0.66696174262E+02  0.18397695489E+03  0.29080538212E+03  0.35051914336E+03  0.00000000000E+00 0. -1.
<mgrwt>
<rscale>  0 0.13386444E+04</rscale>
<asrwt>0</asrwt>
<pdfrwt beam="1">  1        1 0.15696611E+00 0.13386444E+04</pdfrwt>
<pdfrwt beam="2">  1       -4 0.67551948E-01 0.13386444E+04</pdfrwt>
<totfact> 0.14107351E+01</totfact>
</mgrwt>
</event>
<event>
12    5  0.5041746E-008  0.1061584E+04  0.7818608E-02  0.9243465E-01
          3   -1    0    0  501    0  0.00000000000E+00  0.00000000000E+00  0.25732694182E+03  0.25732694182E+03  0.00000000000E+00 0. -1.
         -4   -1    0    0    0  501 -0.00000000000E+00 -0.00000000000E+00 -0.10948722781E+04  0.10948722781E+04  0.00000000000E+00 0.  1.
        -24    2    1    2    0    0  0.57198651929E+02  0.11467479477E+03 -0.23527540149E+03  0.27931998406E+03  0.79013572331E+02 0.  0.
        254    2    1    2    0    0 -0.57198651929E+02 -0.11467479477E+03 -0.60226993476E+03  0.10728792358E+04  0.87858908827E+03 0.  0.
         23    2    4    4    0    0 -0.31585251700E+03 -0.76016357857E+02 -0.70191463395E+03  0.77888107051E+03  0.91816498972E+02 0.  0.
         23    2    4    4    0    0  0.25865386507E+03 -0.38658436909E+02  0.99644699190E+02  0.29399816533E+03  0.90053086988E+02 0.  0.
          1    1    3    3  502    0  0.22115072928E+02  0.12923122902E+02 -0.64014674879E+01  0.26401938228E+02  0.00000000000E+00 0. -1.
         -2    1    3    3    0  502  0.35083579000E+02  0.10175167186E+03 -0.22887393401E+03  0.25291804584E+03  0.00000000000E+00 0.  1.
         13    1    5    5    0    0 -0.25915501577E+03 -0.77507191538E+02 -0.64053827723E+03  0.69531142054E+03  0.00000000000E+00 0. -1.
        -13    1    5    5    0    0 -0.56697501237E+02  0.14908336810E+01 -0.61376356722E+02  0.83569649970E+02  0.00000000000E+00 0.  1.
          3    1    6    6  503    0  0.26522026352E+03 -0.38008009616E+02  0.10242184323E+03  0.28683903317E+03  0.00000000000E+00 0. -1.
         -3    1    6    6    0  503 -0.65663984462E+01 -0.65042729269E+00 -0.27771440445E+01  0.71591321584E+01  0.00000000000E+00 0.  1.
<mgrwt>
<rscale>  0 0.10615840E+04</rscale>
<asrwt>0</asrwt>
<pdfrwt beam="1">  1        3 0.39588760E-01 0.10615840E+04</pdfrwt>
<pdfrwt beam="2">  1       -4 0.16844189E+00 0.10615840E+04</pdfrwt>
<totfact> 0.31293373E+00</totfact>
</mgrwt>
</event>
<event>
12    5  0.5041746E-008  0.1905866E+04  0.7818608E-02  0.8651942E-01
         -2   -1    0    0    0  501 -0.00000000000E+00  0.00000000000E+00  0.15696175868E+04  0.15696175868E+04  0.00000000000E+00 0.  1.
          1   -1    0    0  501    0  0.00000000000E+00 -0.00000000000E+00 -0.57853637277E+03  0.57853637277E+03  0.00000000000E+00 0. -1.
        -24    2    1    2    0    0 -0.33269384517E+03 -0.52511732325E+03  0.83176074443E+03  0.10415129183E+04  0.80559451227E+02 0.  0.
        254    2    1    2    0    0  0.33269384517E+03  0.52511732325E+03  0.15932046958E+03  0.11066410413E+04  0.90157527938E+03 0.  0.
         23    2    4    4    0    0  0.24937878938E+03  0.69986975736E+03 -0.11640601312E+03  0.75728705303E+03  0.89027315732E+02 0.  0.
         23    2    4    4    0    0  0.83315055789E+02 -0.17475243411E+03  0.27572648270E+03  0.34935398822E+03  0.92429995560E+02 0.  0.
          1    1    3    3  502    0 -0.20982387600E+03 -0.26731982354E+03  0.48672407297E+03  0.59362131886E+03  0.00000000000E+00 0. -1.
         -4    1    3    3    0  502 -0.12286996917E+03 -0.25779749971E+03  0.34503667147E+03  0.44789159943E+03  0.00000000000E+00 0.  1.
         13    1    5    5    0    0  0.32500378708E+02  0.17826392286E+03 -0.53283100246E+02  0.18887400452E+03  0.00000000000E+00 0.  1.
        -13    1    5    5    0    0  0.21687841067E+03  0.52160583449E+03 -0.63122912878E+02  0.56841304851E+03  0.00000000000E+00 0. -1.
          4    1    6    6  503    0  0.39659219373E+02 -0.82197985559E+02  0.20660041641E+03  0.22586078582E+03  0.00000000000E+00 0. -1.
         -4    1    6    6    0  503  0.43655836416E+02 -0.92554448547E+02  0.69126066290E+02  0.12349320240E+03  0.00000000000E+00 0.  1.
<mgrwt>
<rscale>  0 0.19058655E+04</rscale>
<asrwt>0</asrwt>
<pdfrwt beam="1">  1        1 0.89005596E-01 0.19058655E+04</pdfrwt>
<pdfrwt beam="2">  1       -2 0.24147963E+00 0.19058655E+04</pdfrwt>
<totfact> 0.21426508E+00</totfact>
</mgrwt>
</event>
<event>
12    5  0.5041746E-008  0.1459923E+04  0.7818608E-02  0.8911550E-01
          1   -1    0    0  501    0  0.00000000000E+00  0.00000000000E+00  0.61002379473E+03  0.61002379473E+03  0.00000000000E+00 0. -1.
         -2   -1    0    0    0  501 -0.00000000000E+00 -0.00000000000E+00 -0.87348080487E+03  0.87348080487E+03  0.00000000000E+00 0.  1.
        -24    2    1    2    0    0  0.26443285289E+03 -0.35996929228E+03 -0.89970861056E+02  0.46268359773E+03  0.80490562792E+02 0.  0.
        254    2    1    2    0    0 -0.26443285289E+03  0.35996929228E+03 -0.17348614909E+03  0.10208210019E+04  0.90137420023E+03 0.  0.
         23    2    4    4    0    0  0.64299507156E+02 -0.24414593082E+03 -0.18606999251E+03  0.32680233418E+03  0.91848034035E+02 0.  0.
         23    2    4    4    0    0 -0.32873236004E+03  0.60411522310E+03  0.12583843415E+02  0.69401866769E+03  0.92105323708E+02 0.  0.
          3    1    3    3  502    0  0.20389266810E+03 -0.31021125730E+03 -0.49557044392E+02  0.37451187553E+03  0.00000000000E+00 0. -1.
         -4    1    3    3    0  502  0.60540184792E+02 -0.49758034982E+02 -0.40413816664E+02  0.88171722209E+02  0.00000000000E+00 0.  1.
         13    1    5    5    0    0  0.23295314651E+02 -0.19117488361E+03 -0.17230118248E+03  0.25841479309E+03  0.00000000000E+00 0. -1.
        -13    1    5    5    0    0  0.41004192506E+02 -0.52971047216E+02 -0.13768810030E+02  0.68387541086E+02  0.00000000000E+00 0.  1.
          2    1    6    6  503    0 -0.29395213234E+03  0.46701526966E+03  0.21992194564E+02  0.55226332019E+03  0.00000000000E+00 0. -1.
         -2    1    6    6    0  503 -0.34780227709E+02  0.13709995344E+03 -0.94083511487E+01  0.14175534750E+03  0.00000000000E+00 0.  1.
<mgrwt>
<rscale>  0 0.14599234E+04</rscale>
<asrwt>0</asrwt>
<pdfrwt beam="1">  1        1 0.93849816E-01 0.14599234E+04</pdfrwt>
<pdfrwt beam="2">  1       -2 0.13438166E+00 0.14599234E+04</pdfrwt>
<totfact> 0.11329420E+01</totfact>
</mgrwt>
</event>
<event>
12    5  0.5041746E-008  0.1718699E+04  0.7818608E-02  0.8750771E-01
         -2   -1    0    0    0  501 -0.00000000000E+00  0.00000000000E+00  0.23297475385E+04  0.23297475385E+04  0.00000000000E+00 0.  1.
          1   -1    0    0  501    0  0.00000000000E+00 -0.00000000000E+00 -0.31697921454E+03  0.31697921454E+03  0.00000000000E+00 0. -1.
        -24    2    1    2    0    0 -0.53327486812E+03  0.12012013375E+03  0.11710869781E+04  0.12948392099E+04  0.79705318104E+02 0.  0.
        254    2    1    2    0    0  0.53327486812E+03 -0.12012013375E+03  0.84168134584E+03  0.13518875431E+04  0.90573810219E+03 0.  0.
         23    2    4    4    0    0  0.59513925311E+03 -0.35187774298E+03  0.84440262609E+03  0.10955395620E+04  0.95825155071E+02 0.  0.
         23    2    4    4    0    0 -0.61864384984E+02  0.23175760924E+03 -0.27212802465E+01  0.25634798112E+03  0.90377488827E+02 0.  0.
          3    1    3    3  502    0 -0.69195366167E+01  0.10901683583E+02  0.48331302125E+02  0.50026407596E+02  0.00000000000E+00 0. -1.
         -2    1    3    3    0  502 -0.52635533151E+03  0.10921845016E+03  0.11227556759E+04  0.12448128023E+04  0.00000000000E+00 0.  1.
         13    1    5    5    0    0  0.51398424398E+03 -0.27218530338E+03  0.73948264136E+03  0.94079711910E+03  0.00000000000E+00 0.  1.
        -13    1    5    5    0    0  0.81155009122E+02 -0.79692439599E+02  0.10491998473E+03  0.15474244289E+03  0.00000000000E+00 0. -1.
          2    1    6    6  503    0 -0.76734636594E+01  0.36230841730E+01 -0.19499607799E+02  0.21266017205E+02  0.00000000000E+00 0.  1.
         -2    1    6    6    0  503 -0.54190921324E+02  0.22813452506E+03  0.16778327552E+02  0.23508196391E+03  0.00000000000E+00 0. -1.
<mgrwt>
<rscale>  0 0.17186990E+04</rscale>
<asrwt>0</asrwt>
<pdfrwt beam="1">  1        1 0.48766035E-01 0.17186990E+04</pdfrwt>
<pdfrwt beam="2">  1       -2 0.35842269E+00 0.17186990E+04</pdfrwt>
<totfact> 0.93665049E-01</totfact>
</mgrwt>
</event>
<event>
12    5  0.5041746E-008  0.2039914E+04  0.7818608E-02  0.8588184E-01
         -2   -1    0    0    0  501 -0.00000000000E+00  0.00000000000E+00  0.15594313835E+04  0.15594313835E+04  0.00000000000E+00 0.  1.
          1   -1    0    0  501    0  0.00000000000E+00 -0.00000000000E+00 -0.66711016458E+03  0.66711016458E+03  0.00000000000E+00 0. -1.
        -24    2    1    2    0    0 -0.11049563345E+03  0.77559526377E+03  0.59901829571E+03  0.98932829229E+03  0.78678161743E+02 0.  0.
        254    2    1    2    0    0  0.11049563345E+03 -0.77559526377E+03  0.29330292324E+03  0.12372132558E+04  0.91154415000E+03 0.  0.
         23    2    4    4    0    0  0.27282693330E+03 -0.55392376529E+03 -0.20846277539E+03  0.65826523487E+03  0.92683965327E+02 0.  0.
         23    2    4    4    0    0 -0.16233129985E+03 -0.22167149849E+03  0.50176569863E+03  0.57894802095E+03  0.89007249628E+02 0.  0.
          3    1    3    3  502    0  0.69577347769E+01  0.19701476257E+02  0.27023184825E+02  0.34158611769E+02  0.00000000000E+00 0. -1.
         -4    1    3    3    0  502 -0.11745336822E+03  0.75589378752E+03  0.57199511089E+03  0.95516968052E+03  0.00000000000E+00 0.  1.
         13    1    5    5    0    0  0.25214441119E+03 -0.53931014951E+03 -0.21345816145E+03  0.63245286634E+03  0.00000000000E+00 0. -1.
        -13    1    5    5    0    0  0.20682522111E+02 -0.14613615781E+02  0.49953860587E+01  0.25812368526E+02  0.00000000000E+00 0.  1.
          1    1    6    6  503    0 -0.57590662708E+02 -0.12171256360E+03  0.31548562823E+03  0.34301867906E+03  0.00000000000E+00 0. -1.
         -1    1    6    6    0  503 -0.10474063715E+03 -0.99958934881E+02  0.18628007040E+03  0.23592934188E+03  0.00000000000E+00 0.  1.
<mgrwt>
<rscale>  0 0.20399142E+04</rscale>
<asrwt>0</asrwt>
<pdfrwt beam="1">  1        1 0.10263233E+00 0.20399142E+04</pdfrwt>
<pdfrwt beam="2">  1       -2 0.23991252E+00 0.20399142E+04</pdfrwt>
<totfact> 0.17590574E+00</totfact>
</mgrwt>
</event>
<event>
12    5  0.5041746E-008  0.1026961E+04  0.7818608E-02  0.9279459E-01
         -2   -1    0    0    0  501 -0.00000000000E+00  0.00000000000E+00  0.18144060916E+03  0.18144060916E+03  0.00000000000E+00 0.  1.
          1   -1    0    0  501    0  0.00000000000E+00 -0.00000000000E+00 -0.14531610191E+04  0.14531610191E+04  0.00000000000E+00 0. -1.
        -24    2    1    2    0    0  0.55290499824E+02 -0.42479949901E+02 -0.73510133416E+02  0.13289684394E+03  0.86001429645E+02 0.  0.
        254    2    1    2    0    0 -0.55290499824E+02  0.42479949901E+02 -0.11982102765E+04  0.15017047843E+04  0.90252302296E+03 0.  0.
         23    2    4    4    0    0 -0.43825330470E+03  0.16757580875E+03 -0.50949066856E+03  0.69859057842E+03  0.91106773318E+02 0.  0.
         23    2    4    4    0    0  0.38296280487E+03 -0.12509585885E+03 -0.68871960798E+03  0.80311420592E+03  0.91368733782E+02 0.  0.
          1    1    3    3  502    0  0.66797577942E+02 -0.58207809640E+01 -0.65325449480E+02  0.93612030529E+02  0.00000000000E+00 0. -1.
         -2    1    3    3    0  502 -0.11507078118E+02 -0.36659168937E+02 -0.81846839364E+01  0.39284813415E+02  0.00000000000E+00 0.  1.
         13    1    5    5    0    0 -0.34077296414E+03  0.13202163615E+03 -0.33600500537E+03  0.49644263428E+03  0.00000000000E+00 0. -1.
        -13    1    5    5    0    0 -0.97480340561E+02  0.35554172598E+02 -0.17348566319E+03  0.20214794414E+03  0.00000000000E+00 0.  1.
          3    1    6    6  503    0  0.26707659275E+03 -0.55488066643E+02 -0.51718862663E+03  0.58471609132E+03  0.00000000000E+00 0. -1.
         -3    1    6    6    0  503  0.11588621213E+03 -0.69607792207E+02 -0.17153098135E+03  0.21839811460E+03  0.00000000000E+00 0.  1.
<mgrwt>
<rscale>  0 0.10269614E+04</rscale>
<asrwt>0</asrwt>
<pdfrwt beam="1">  1        1 0.22356323E+00 0.10269614E+04</pdfrwt>
<pdfrwt beam="2">  1       -2 0.27913941E-01 0.10269614E+04</pdfrwt>
<totfact> 0.72601521E+01</totfact>
</mgrwt>
</event>
<event>
12    5  0.5041746E-008  0.2380121E+04  0.7818608E-02  0.8446984E-01
         -2   -1    0    0    0  501 -0.00000000000E+00  0.00000000000E+00  0.41079573849E+03  0.41079573849E+03  0.00000000000E+00 0.  1.
          1   -1    0    0  501    0  0.00000000000E+00 -0.00000000000E+00 -0.34475632044E+04  0.34475632044E+04  0.00000000000E+00 0. -1.
        -24    2    1    2    0    0  0.89521576029E+03  0.47780454660E+03 -0.14422799503E+04  0.17661311496E+04  0.96640261793E+02 0.  0.
        254    2    1    2    0    0 -0.89521576029E+03 -0.47780454660E+03 -0.15944875156E+04  0.20922277933E+04  0.89739526382E+03 0.  0.
         23    2    4    4    0    0 -0.63260768470E+03 -0.54549077138E+03 -0.15995416265E+04  0.18069046735E+04  0.92835444612E+02 0.  0.
         23    2    4    4    0    0 -0.26260807559E+03  0.67686224784E+02  0.50541108755E+01  0.28532311985E+03  0.88539890968E+02 0.  0.
          3    1    3    3  502    0  0.66243209131E+03  0.38828292095E+03 -0.11358458608E+04  0.13710308975E+04  0.00000000000E+00 0. -1.
         -4    1    3    3    0  502  0.23278366898E+03  0.89521625643E+02 -0.30643408949E+03  0.39510025209E+03  0.00000000000E+00 0.  1.
         13    1    5    5    0    0 -0.28147399250E+03 -0.30388810053E+03 -0.79429482870E+03  0.89581240279E+03  0.00000000000E+00 0. -1.
        -13    1    5    5    0    0 -0.35113369220E+03 -0.24160267085E+03 -0.80524679780E+03  0.91109227070E+03  0.00000000000E+00 0.  1.
          1    1    6    6  503    0 -0.19289216103E+03  0.88903360193E+02  0.26511905536E+01  0.21241050363E+03  0.00000000000E+00 0. -1.
         -1    1    6    6    0  503 -0.69715914559E+02 -0.21217135409E+02  0.24029203219E+01  0.72912616219E+02  0.00000000000E+00 0.  1.
<mgrwt>
<rscale>  0 0.23801212E+04</rscale>
<asrwt>0</asrwt>
<pdfrwt beam="1">  1        1 0.53039433E+00 0.23801212E+04</pdfrwt>
<pdfrwt beam="2">  1       -2 0.63199346E-01 0.23801212E+04</pdfrwt>
<totfact> 0.50347400E-01</totfact>
</mgrwt>
</event>
<event>
12    5  0.5041746E-008  0.1483350E+04  0.7818608E-02  0.8895601E-01
          1   -1    0    0  501    0  0.00000000000E+00  0.00000000000E+00  0.19736013316E+04  0.19736013316E+04  0.00000000000E+00 0. -1.
         -2   -1    0    0    0  501 -0.00000000000E+00 -0.00000000000E+00 -0.27871986273E+03  0.27871986273E+03  0.00000000000E+00 0.  1.
        -24    2    1    2    0    0 -0.13603219977E+03 -0.15760753614E+03 -0.42987978551E+02  0.22320853381E+03  0.68038139613E+02 0.  0.
        254    2    1    2    0    0  0.13603219977E+03  0.15760753614E+03  0.17378694474E+04  0.20291126605E+04  0.10265296284E+04 0.  0.
         23    2    4    4    0    0  0.14415110656E+03  0.16306770877E+03  0.18587089333E+04  0.18736360598E+04  0.91337652168E+02 0.  0.
         23    2    4    4    0    0 -0.81189067890E+01 -0.54601726309E+01 -0.12083948592E+03  0.15547660068E+03  0.97339929466E+02 0.  0.
          1    1    3    3  502    0 -0.65638839576E+02 -0.30858599213E+02 -0.26797436720E+02  0.77322784618E+02  0.00000000000E+00 0. -1.
         -2    1    3    3    0  502 -0.70393360190E+02 -0.12674893693E+03 -0.16190541831E+02  0.14588574919E+03  0.00000000000E+00 0.  1.
         13    1    5    5    0    0  0.11150465057E+03  0.57661463371E+02  0.95480732019E+03  0.96302396136E+03  0.00000000000E+00 0.  1.
        -13    1    5    5    0    0  0.32646455989E+02  0.10540624540E+03  0.90390161315E+03  0.91061209849E+03  0.00000000000E+00 0. -1.
          2    1    6    6  503    0 -0.73063930447E+01  0.21165963575E+02 -0.12631234681E+03  0.12828168361E+03  0.00000000000E+00 0. -1.
         -2    1    6    6    0  503 -0.81251374435E+00 -0.26626136206E+02  0.54728608920E+01  0.27194917065E+02  0.00000000000E+00 0.  1.
<mgrwt>
<rscale>  0 0.14833501E+04</rscale>
<asrwt>0</asrwt>
<pdfrwt beam="1">  1        1 0.30363097E+00 0.14833501E+04</pdfrwt>
<pdfrwt beam="2">  1       -2 0.42879980E-01 0.14833501E+04</pdfrwt>
<totfact> 0.13624757E+01</totfact>
</mgrwt>
</event>
<event>
12    5  0.5041746E-008  0.2148753E+04  0.7818608E-02  0.8540066E-01
          1   -1    0    0  501    0  0.00000000000E+00  0.00000000000E+00  0.13748661318E+04  0.13748661318E+04  0.00000000000E+00 0. -1.
         -2   -1    0    0    0  501 -0.00000000000E+00 -0.00000000000E+00 -0.83956139311E+03  0.83956139311E+03  0.00000000000E+00 0.  1.
        -24    2    1    2    0    0  0.43467225899E+03  0.15516637979E+03 -0.55725159752E+03  0.72724767881E+03  0.73097641823E+02 0.  0.
        254    2    1    2    0    0 -0.43467225899E+03 -0.15516637979E+03  0.10925563362E+04  0.14871798461E+04  0.89722236301E+03 0.  0.
         23    2    4    4    0    0 -0.25691430490E+02  0.23336893890E+03  0.81099567795E+03  0.84985982376E+03  0.97090777922E+02 0.  0.
         23    2    4    4    0    0 -0.40898082850E+03 -0.38853531869E+03  0.28156065830E+03  0.63732002236E+03  0.93141798596E+02 0.  0.
          3    1    3    3  502    0  0.45437877733E+02  0.24023465645E+02 -0.10117983597E+03  0.11348606453E+03  0.00000000000E+00 0. -1.
         -4    1    3    3    0  502  0.38923438126E+03  0.13114291415E+03 -0.45607176155E+03  0.61376161429E+03  0.00000000000E+00 0.  1.
         13    1    5    5    0    0 -0.39606779579E+02  0.28960245123E+02  0.14680107601E+03  0.15478355438E+03  0.00000000000E+00 0.  1.
        -13    1    5    5    0    0  0.13915349089E+02  0.20440869377E+03  0.66419460193E+03  0.69507626939E+03  0.00000000000E+00 0. -1.
          1    1    6    6  503    0 -0.40037598644E+03 -0.39381784967E+03  0.27773877874E+03  0.62652394882E+03  0.00000000000E+00 0. -1.
         -1    1    6    6    0  503 -0.86048420609E+01  0.52825309759E+01  0.38218795612E+01  0.10796073536E+02  0.00000000000E+00 0.  1.
<mgrwt>
<rscale>  0 0.21487527E+04</rscale>
<asrwt>0</asrwt>
<pdfrwt beam="1">  1        1 0.21151787E+00 0.21487527E+04</pdfrwt>
<pdfrwt beam="2">  1       -2 0.12916329E+00 0.21487527E+04</pdfrwt>
<totfact> 0.28395756E+00</totfact>
</mgrwt>
</event>
<event>
12    5  0.5041746E-008  0.2331885E+04  0.7818608E-02  0.8465454E-01
         -4   -1    0    0    0  501 -0.00000000000E+00  0.00000000000E+00  0.16753239125E+04  0.16753239125E+04  0.00000000000E+00 0.  1.
          1   -1    0    0  501    0  0.00000000000E+00 -0.00000000000E+00 -0.81143835773E+03  0.81143835773E+03  0.00000000000E+00 0. -1.
        -24    2    1    2    0    0 -0.53267200680E+03 -0.42201636485E+03  0.11218921412E+04  0.13139229987E+04  0.76905078525E+02 0.  0.
        254    2    1    2    0    0  0.53267200680E+03  0.42201636485E+03 -0.25800658647E+03  0.11728392714E+04  0.92040604026E+03 0.  0.
         23    2    4    4    0    0 -0.21497167836E+03  0.64864527714E+02 -0.23933146061E+03  0.33910081433E+03  0.85379065257E+02 0.  0.
         23    2    4    4    0    0  0.74764368516E+03  0.35715183713E+03 -0.18675125859E+02  0.83373845711E+03  0.90788434370E+02 0.  0.
          1    1    3    3  502    0 -0.32126529787E+02 -0.27155280393E+02  0.39383714782E+02  0.57624648887E+02  0.00000000000E+00 0. -1.
         -2    1    3    3    0  502 -0.50054547701E+03 -0.39486108445E+03  0.10825084264E+04  0.12562983499E+04  0.00000000000E+00 0.  1.
         13    1    5    5    0    0 -0.95234247792E+02  0.70637633399E+02 -0.98416202632E+02  0.15409408212E+03  0.00000000000E+00 0.  1.
        -13    1    5    5    0    0 -0.11973743057E+03 -0.57731056850E+01 -0.14091525798E+03  0.18500673220E+03  0.00000000000E+00 0. -1.
          3    1    6    6  503    0  0.48548971311E+03  0.21017428662E+03  0.27117125214E+02  0.52972524083E+03  0.00000000000E+00 0. -1.
         -3    1    6    6    0  503  0.26215397205E+03  0.14697755052E+03 -0.45792251073E+02  0.30401321629E+03  0.00000000000E+00 0.  1.
<mgrwt>
<rscale>  0 0.23318851E+04</rscale>
<asrwt>0</asrwt>
<pdfrwt beam="1">  1        1 0.12483667E+00 0.23318851E+04</pdfrwt>
<pdfrwt beam="2">  1       -4 0.25774214E+00 0.23318851E+04</pdfrwt>
<totfact> 0.52853702E-01</totfact>
</mgrwt>
</event>
<event>
12    5  0.5041746E-008  0.2454716E+04  0.7818608E-02  0.8419298E-01
         -2   -1    0    0    0  501 -0.00000000000E+00  0.00000000000E+00  0.64129979863E+03  0.64129979863E+03  0.00000000000E+00 0.  1.
          1   -1    0    0  501    0  0.00000000000E+00 -0.00000000000E+00 -0.23489918888E+04  0.23489918888E+04  0.00000000000E+00 0. -1.
        -24    2    1    2    0    0 -0.65921504928E+03 -0.61749831633E+02 -0.17436937168E+04  0.18668363960E+04  0.78948264876E+02 0.  0.
        254    2    1    2    0    0  0.65921504928E+03  0.61749831633E+02  0.36001626638E+02  0.11234552914E+04  0.90690581196E+03 0.  0.
         23    2    4    4    0    0  0.69173434597E+03  0.17251895894E+03 -0.28245687592E+03  0.77178296666E+03  0.87223071978E+02 0.  0.
         23    2    4    4    0    0 -0.32519296689E+02 -0.11076912731E+03  0.31845850256E+03  0.35167232475E+03  0.94500274705E+02 0.  0.
          3    1    3    3  502    0 -0.22860985325E+03 -0.42168344959E+02 -0.52526920790E+03  0.57441132918E+03  0.00000000000E+00 0. -1.
         -4    1    3    3    0  502 -0.43060519603E+03 -0.19581486674E+02 -0.12184245089E+04  0.12924250668E+04  0.00000000000E+00 0.  1.
         13    1    5    5    0    0  0.44567737794E+03  0.87503543037E+02 -0.21693114278E+03  0.50333320570E+03  0.00000000000E+00 0.  1.
        -13    1    5    5    0    0  0.24605696803E+03  0.85015415902E+02 -0.65525733143E+02  0.26844976096E+03  0.00000000000E+00 0. -1.
          4    1    6    6  503    0  0.17449841280E+02 -0.30526736661E+00  0.97086540095E+01  0.19971182027E+02  0.00000000000E+00 0. -1.
         -4    1    6    6    0  503 -0.49969137969E+02 -0.11046385994E+03  0.30874984855E+03  0.33170114272E+03  0.00000000000E+00 0.  1.
<mgrwt>
<rscale>  0 0.24547163E+04</rscale>
<asrwt>0</asrwt>
<pdfrwt beam="1">  1        1 0.36138336E+00 0.24547163E+04</pdfrwt>
<pdfrwt beam="2">  1       -2 0.98661509E-01 0.24547163E+04</pdfrwt>
<totfact> 0.11513388E+00</totfact>
</mgrwt>
</event>
<event>
12    5  0.5041746E-008  0.1576063E+04  0.7818608E-02  0.8835390E-01
          1   -1    0    0  501    0  0.00000000000E+00  0.00000000000E+00  0.13615653385E+04  0.13615653385E+04  0.00000000000E+00 0. -1.
         -2   -1    0    0    0  501 -0.00000000000E+00 -0.00000000000E+00 -0.45608800298E+03  0.45608800298E+03  0.00000000000E+00 0.  1.
        -24    2    1    2    0    0  0.40305026852E+03 -0.19470530695E+03  0.63039228458E+03  0.77728129005E+03  0.80075563639E+02 0.  0.
        254    2    1    2    0    0 -0.40305026852E+03  0.19470530695E+03  0.27508505097E+03  0.10403720515E+04  0.89796578147E+03 0.  0.
         23    2    4    4    0    0 -0.24518550357E+03  0.28170281568E+03 -0.26342294586E+03  0.46549391285E+03  0.88433743429E+02 0.  0.
         23    2    4    4    0    0 -0.15786476495E+03 -0.86997508727E+02  0.53850799683E+03  0.57487813861E+03  0.89465977164E+02 0.  0.
          1    1    3    3  502    0  0.27197776387E+03 -0.16891778807E+03  0.46741347286E+03  0.56655139023E+03  0.00000000000E+00 0. -1.
         -4    1    3    3    0  502  0.13107250466E+03 -0.25787518882E+02  0.16297881172E+03  0.21072989982E+03  0.00000000000E+00 0.  1.
         13    1    5    5    0    0 -0.15712638242E+03  0.22658754005E+03 -0.22062911552E+03  0.35313994389E+03  0.00000000000E+00 0. -1.
        -13    1    5    5    0    0 -0.88059121156E+02  0.55115275632E+02 -0.42793830332E+02  0.11235396896E+03  0.00000000000E+00 0.  1.
          1    1    6    6  503    0 -0.80822009800E+02  0.14301050552E+01  0.17169697842E+03  0.18977379921E+03  0.00000000000E+00 0. -1.
         -1    1    6    6    0  503 -0.77042755151E+02 -0.88427613783E+02  0.36681101841E+03  0.38510433940E+03  0.00000000000E+00 0.  1.
<mgrwt>
<rscale>  0 0.15760630E+04</rscale>
<asrwt>0</asrwt>
<pdfrwt beam="1">  1        1 0.20947159E+00 0.15760630E+04</pdfrwt>
<pdfrwt beam="2">  1       -2 0.70167386E-01 0.15760630E+04</pdfrwt>
<totfact> 0.12754972E+01</totfact>
</mgrwt>
</event>
<event>
12    5  0.5041746E-008  0.1273678E+04  0.7818608E-02  0.9050703E-01
          1   -1    0    0  501    0  0.00000000000E+00  0.00000000000E+00  0.75912174599E+03  0.75912174599E+03  0.00000000000E+00 0. -1.
         -2   -1    0    0    0  501 -0.00000000000E+00 -0.00000000000E+00 -0.53425382122E+03  0.53425382122E+03  0.00000000000E+00 0.  1.
        -24    2    1    2    0    0 -0.23548785273E+03 -0.17367682127E+03  0.17637968431E+03  0.35047530975E+03  0.78134388587E+02 0.  0.
        254    2    1    2    0    0  0.23548785273E+03  0.17367682127E+03  0.48488240458E+02  0.94290025746E+03  0.89503721656E+03 0.  0.
         23    2    4    4    0    0  0.53680323090E+03  0.17832120921E+03  0.18144722312E+03  0.60100869811E+03  0.91280874555E+02 0.  0.
         23    2    4    4    0    0 -0.30131537817E+03 -0.46443879438E+01 -0.13295898266E+03  0.34189155936E+03  0.91647257614E+02 0.  0.
          1    1    3    3  502    0 -0.23879725092E+03 -0.16212362178E+03  0.17675223770E+03  0.33845169421E+03  0.00000000000E+00 0. -1.
         -2    1    3    3    0  502  0.33093981861E+01 -0.11553199484E+02 -0.37255338098E+00  0.12023615542E+02  0.00000000000E+00 0.  1.
         13    1    5    5    0    0  0.50218029621E+03  0.14344743678E+03  0.15295116146E+03  0.54420242080E+03  0.00000000000E+00 0. -1.
        -13    1    5    5    0    0  0.34622934694E+02  0.34873772434E+02  0.28496061664E+02  0.56806277302E+02  0.00000000000E+00 0.  1.
          3    1    6    6  503    0 -0.28538542126E+03  0.97177299177E+01 -0.99973221665E+02  0.30254572876E+03  0.00000000000E+00 0. -1.
         -3    1    6    6    0  503 -0.15929956910E+02 -0.14362117862E+02 -0.32985760998E+02  0.39345830595E+02  0.00000000000E+00 0.  1.
<mgrwt>
<rscale>  0 0.12736777E+04</rscale>
<asrwt>0</asrwt>
<pdfrwt beam="1">  1        1 0.11678796E+00 0.12736777E+04</pdfrwt>
<pdfrwt beam="2">  1       -2 0.82192896E-01 0.12736777E+04</pdfrwt>
<totfact> 0.26955354E+01</totfact>
</mgrwt>
</event>
<event>
12    5  0.5041746E-008  0.2195901E+04  0.7818608E-02  0.8520136E-01
          1   -1    0    0  501    0  0.00000000000E+00  0.00000000000E+00  0.80679696133E+03  0.80679696133E+03  0.00000000000E+00 0. -1.
         -2   -1    0    0    0  501 -0.00000000000E+00 -0.00000000000E+00 -0.14941747872E+04  0.14941747872E+04  0.00000000000E+00 0.  1.
        -24    2    1    2    0    0 -0.97046506865E+02 -0.57827943014E+03  0.43657144940E+03  0.73540233049E+03  0.79980206529E+02 0.  0.
        254    2    1    2    0    0  0.97046506865E+02  0.57827943014E+03 -0.11239492752E+04  0.15655694180E+04  0.91865146028E+03 0.  0.
         23    2    4    4    0    0  0.16802546749E+03  0.77778451535E+03 -0.10550929155E+04  0.13247147139E+04  0.92014688900E+02 0.  0.
         23    2    4    4    0    0 -0.70978960626E+02 -0.19950508521E+03 -0.68856359752E+02  0.24085470406E+03  0.91812299361E+02 0.  0.
          1    1    3    3  502    0 -0.96944841363E+02 -0.57867438380E+03  0.42662018105E+03  0.72544270870E+03  0.00000000000E+00 0. -1.
         -2    1    3    3    0  502 -0.10166550195E+00  0.39495365775E+00  0.99512683556E+01  0.99596217875E+01  0.00000000000E+00 0.  1.
         13    1    5    5    0    0  0.16369907981E+03  0.72606430275E+03 -0.94423405865E+03  0.12023080795E+04  0.00000000000E+00 0. -1.
        -13    1    5    5    0    0  0.43263876782E+01  0.51720212601E+02 -0.11085885683E+03  0.12240663445E+03  0.00000000000E+00 0.  1.
          1    1    6    6  503    0 -0.81465392378E+02 -0.11944506904E+03 -0.18661658138E+02  0.14578063026E+03  0.00000000000E+00 0. -1.
         -1    1    6    6    0  503  0.10486431751E+02 -0.80060016170E+02 -0.50194701614E+02  0.95074073806E+02  0.00000000000E+00 0.  1.
<mgrwt>
<rscale>  0 0.21959013E+04</rscale>
<asrwt>0</asrwt>
<pdfrwt beam="1">  1        1 0.12412261E+00 0.21959013E+04</pdfrwt>
<pdfrwt beam="2">  1       -2 0.22987304E+00 0.21959013E+04</pdfrwt>
<totfact> 0.14928309E+00</totfact>
</mgrwt>
</event>
<event>
12    5  0.5041746E-008  0.3232645E+04  0.7818608E-02  0.8180249E-01
         -2   -1    0    0    0  501 -0.00000000000E+00  0.00000000000E+00  0.24499080908E+04  0.24499080908E+04  0.00000000000E+00 0.  1.
          1   -1    0    0  501    0  0.00000000000E+00 -0.00000000000E+00 -0.10663659723E+04  0.10663659723E+04  0.00000000000E+00 0. -1.
        -24    2    1    2    0    0 -0.12051187311E+04  0.87865115926E+03  0.65132631398E+03  0.16294620257E+04  0.81126507074E+02 0.  0.
        254    2    1    2    0    0  0.12051187311E+04 -0.87865115926E+03  0.73221580457E+03  0.18868120375E+04  0.89419274465E+03 0.  0.
         23    2    4    4    0    0 -0.22099714395E+02 -0.69134846008E+02  0.34427065537E+03  0.36358233860E+03  0.91661379437E+02 0.  0.
         23    2    4    4    0    0  0.12272184455E+04 -0.80951631325E+03  0.38794514919E+03  0.15232296989E+04  0.91353721190E+02 0.  0.
          1    1    3    3  502    0 -0.91246138915E+03  0.64628479581E+03  0.45327463579E+03  0.12065354199E+04  0.00000000000E+00 0. -1.
         -2    1    3    3    0  502 -0.29265734194E+03  0.23236636345E+03  0.19805167819E+03  0.42292660579E+03  0.00000000000E+00 0.  1.
         13    1    5    5    0    0  0.24574122368E+02 -0.18782407325E+02  0.34675370195E+02  0.46465552975E+02  0.00000000000E+00 0.  1.
        -13    1    5    5    0    0 -0.46673836763E+02 -0.50352438683E+02  0.30959528518E+03  0.31711678562E+03  0.00000000000E+00 0. -1.
          3    1    6    6  503    0  0.12159012043E+04 -0.79070370750E+03  0.38754148005E+03  0.15012716244E+04  0.00000000000E+00 0. -1.
         -3    1    6    6    0  503  0.11317241222E+02 -0.18812605748E+02  0.40366914638E+00  0.21958074430E+02  0.00000000000E+00 0.  1.
<mgrwt>
<rscale>  0 0.32326451E+04</rscale>
<asrwt>0</asrwt>
<pdfrwt beam="1">  1        1 0.16405630E+00 0.32326451E+04</pdfrwt>
<pdfrwt beam="2">  1       -2 0.37690894E+00 0.32326451E+04</pdfrwt>
<totfact> 0.10313759E-01</totfact>
</mgrwt>
</event>
<event>
12    5  0.5041746E-008  0.1616551E+04  0.7818608E-02  0.8810444E-01
         -2   -1    0    0    0  501 -0.00000000000E+00  0.00000000000E+00  0.35822093622E+03  0.35822093622E+03  0.00000000000E+00 0.  1.
          1   -1    0    0  501    0  0.00000000000E+00 -0.00000000000E+00 -0.18237603023E+04  0.18237603023E+04  0.00000000000E+00 0. -1.
        -24    2    1    2    0    0 -0.37648926260E+03 -0.10118828030E+03  0.24737515394E+02  0.39876712994E+03  0.80125191576E+02 0.  0.
        254    2    1    2    0    0  0.37648926260E+03  0.10118828030E+03 -0.14902768815E+04  0.17832141086E+04  0.89830069612E+03 0.  0.
         23    2    4    4    0    0  0.44786324277E+03  0.31389475760E+03 -0.14301269656E+04  0.15337449601E+04  0.89437474288E+02 0.  0.
         23    2    4    4    0    0 -0.71373980164E+02 -0.21270647730E+03 -0.60149915837E+02  0.24946914845E+03  0.90986554631E+02 0.  0.
          3    1    3    3  502    0 -0.25975669120E+03 -0.74110454621E+02 -0.19988264986E+02  0.27086053394E+03  0.00000000000E+00 0. -1.
         -4    1    3    3    0  502 -0.11673257140E+03 -0.27077825681E+02  0.44725780380E+02  0.12790659600E+03  0.00000000000E+00 0.  1.
         13    1    5    5    0    0  0.16906233544E+03  0.16684941710E+03 -0.56034659593E+03  0.60861244550E+03  0.00000000000E+00 0. -1.
        -13    1    5    5    0    0  0.27880090733E+03  0.14704534050E+03 -0.86978036968E+03  0.92513251460E+03  0.00000000000E+00 0.  1.
          1    1    6    6  503    0 -0.52734024458E+02 -0.52001610625E+02 -0.45738475252E+02  0.87046269084E+02  0.00000000000E+00 0. -1.
         -1    1    6    6    0  503 -0.18639955706E+02 -0.16070486668E+03 -0.14411440585E+02  0.16242287937E+03  0.00000000000E+00 0.  1.
<mgrwt>
<rscale>  0 0.16165508E+04</rscale>
<asrwt>0</asrwt>
<pdfrwt beam="1">  1        1 0.28057851E+00 0.16165508E+04</pdfrwt>
<pdfrwt beam="2">  1       -2 0.55110913E-01 0.16165508E+04</pdfrwt>
<totfact> 0.10223572E+01</totfact>
</mgrwt>
</event>
<event>
12    5  0.5041746E-008  0.2118184E+04  0.7818608E-02  0.8553275E-01
         -2   -1    0    0    0  501 -0.00000000000E+00  0.00000000000E+00  0.58590446514E+03  0.58590446514E+03  0.00000000000E+00 0.  1.
          1   -1    0    0  501    0  0.00000000000E+00 -0.00000000000E+00 -0.19144338416E+04  0.19144338416E+04  0.00000000000E+00 0. -1.
        -24    2    1    2    0    0  0.20747006659E+03 -0.70900052966E+03 -0.11017789074E+02  0.74310016114E+03  0.79692397482E+02 0.  0.
        254    2    1    2    0    0 -0.20747006659E+03  0.70900052966E+03 -0.13175115874E+04  0.17572381456E+04  0.89795519815E+03 0.  0.
         23    2    4    4    0    0 -0.70609874692E+02  0.86793792978E+03 -0.12351284011E+04  0.15140701318E+04  0.92542922555E+02 0.  0.
         23    2    4    4    0    0 -0.13686019190E+03 -0.15893740012E+03 -0.82383186335E+02  0.24316801382E+03  0.91388644104E+02 0.  0.
          3    1    3    3  502    0  0.70812899473E+02 -0.18669513199E+03  0.28831531232E+02  0.20174438340E+03  0.00000000000E+00 0. -1.
         -4    1    3    3    0  502  0.13665716712E+03 -0.52230539767E+03 -0.39849320305E+02  0.54135577774E+03  0.00000000000E+00 0.  1.
         13    1    5    5    0    0  0.21927928528E+02  0.23704684585E+03 -0.33873739607E+03  0.41402302433E+03  0.00000000000E+00 0. -1.
        -13    1    5    5    0    0 -0.92537803220E+02  0.63089108393E+03 -0.89639100503E+03  0.11000471075E+04  0.00000000000E+00 0.  1.
          3    1    6    6  503    0 -0.11064354091E+03 -0.10911359892E+03 -0.99261011562E+02  0.18439229656E+03  0.00000000000E+00 0. -1.
         -3    1    6    6    0  503 -0.26216650995E+02 -0.49823801202E+02  0.16877825227E+02  0.58775717265E+02  0.00000000000E+00 0.  1.
<mgrwt>
<rscale>  0 0.21181835E+04</rscale>
<asrwt>0</asrwt>
<pdfrwt beam="1">  1        1 0.29452829E+00 0.21181835E+04</pdfrwt>
<pdfrwt beam="2">  1       -2 0.90139148E-01 0.21181835E+04</pdfrwt>
<totfact> 0.28926963E+00</totfact>
</mgrwt>
</event>
<event>
12    5  0.5041746E-008  0.1655277E+04  0.7818608E-02  0.8787291E-01
         -2   -1    0    0    0  501 -0.00000000000E+00  0.00000000000E+00  0.77316625792E+03  0.77316625792E+03  0.00000000000E+00 0.  1.
          1   -1    0    0  501    0  0.00000000000E+00 -0.00000000000E+00 -0.88594828594E+03  0.88594828594E+03  0.00000000000E+00 0. -1.
        -24    2    1    2    0    0 -0.33621673008E+03  0.14047495215E+03  0.41174746392E+03  0.55565394287E+03  0.80252279842E+02 0.  0.
        254    2    1    2    0    0  0.33621673008E+03 -0.14047495215E+03 -0.52452949195E+03  0.11034606010E+04  0.89984399106E+03 0.  0.
         23    2    4    4    0    0  0.30688839484E+03  0.28678155213E+03 -0.50302035462E+03  0.66338418035E+03  0.10307738862E+03 0.  0.
         23    2    4    4    0    0  0.29328335238E+02 -0.42725650428E+03 -0.21509137327E+02  0.44007642064E+03  0.98976468498E+02 0.  0.
          1    1    3    3  502    0  0.21780031053E+01  0.19505520085E+00  0.16936110391E+02  0.17076696965E+02  0.00000000000E+00 0. -1.
         -2    1    3    3    0  502 -0.33839473318E+03  0.14027989695E+03  0.39481135353E+03  0.53857724591E+03  0.00000000000E+00 0.  1.
         13    1    5    5    0    0  0.28959864596E+03  0.24850072690E+03 -0.48636174880E+03  0.61819716734E+03  0.00000000000E+00 0. -1.
        -13    1    5    5    0    0  0.17289748883E+02  0.38280825232E+02 -0.16658605818E+02  0.45187013008E+02  0.00000000000E+00 0.  1.
          3    1    6    6  503    0  0.22691363659E+02 -0.31982796167E+03  0.27502800983E+02  0.32180930240E+03  0.00000000000E+00 0. -1.
         -3    1    6    6    0  503  0.66369715795E+01 -0.10742854261E+03 -0.49011938310E+02  0.11826711824E+03  0.00000000000E+00 0.  1.
<mgrwt>
<rscale>  0 0.16552768E+04</rscale>
<asrwt>0</asrwt>
<pdfrwt beam="1">  1        1 0.13629974E+00 0.16552768E+04</pdfrwt>
<pdfrwt beam="2">  1       -2 0.11894866E+00 0.16552768E+04</pdfrwt>
<totfact> 0.84889944E+00</totfact>
</mgrwt>
</event>
<event>
12    5  0.5041746E-008  0.2196815E+04  0.7818608E-02  0.8519755E-01
         -2   -1    0    0    0  501 -0.00000000000E+00  0.00000000000E+00  0.10868293924E+04  0.10868293924E+04  0.00000000000E+00 0.  1.
          1   -1    0    0  501    0  0.00000000000E+00 -0.00000000000E+00 -0.11101092720E+04  0.11101092720E+04  0.00000000000E+00 0. -1.
        -24    2    1    2    0    0  0.70322245862E+03 -0.30961082764E+02  0.50645139753E+03  0.87060009179E+03  0.77272807722E+02 0.  0.
        254    2    1    2    0    0 -0.70322245862E+03  0.30961082764E+02 -0.52973127713E+03  0.13263385726E+04  0.99150308537E+03 0.  0.
         23    2    4    4    0    0 -0.13252468420E+03 -0.35256694395E+03 -0.49851549209E+03  0.63129053941E+03  0.90243046280E+02 0.  0.
         23    2    4    4    0    0 -0.57069777442E+03  0.38352802671E+03 -0.31215785040E+02  0.69504803322E+03  0.96579740338E+02 0.  0.
          3    1    3    3  502    0  0.46478776348E+03 -0.43345105205E+02  0.29938799587E+03  0.55456256211E+03  0.00000000000E+00 0. -1.
         -4    1    3    3    0  502  0.23843469514E+03  0.12384022441E+02  0.20706340166E+03  0.31603752968E+03  0.00000000000E+00 0.  1.
         13    1    5    5    0    0 -0.38387709267E+01 -0.30468610546E+02 -0.10267859883E+02  0.32380570369E+02  0.00000000000E+00 0.  1.
        -13    1    5    5    0    0 -0.12868591328E+03 -0.32209833340E+03 -0.48824763221E+03  0.59890996904E+03  0.00000000000E+00 0. -1.
          1    1    6    6  503    0 -0.43934056425E+03  0.34123230219E+03 -0.21454177087E+02  0.55670449717E+03  0.00000000000E+00 0. -1.
         -1    1    6    6    0  503 -0.13135721017E+03  0.42295724516E+02 -0.97616079526E+01  0.13834353605E+03  0.00000000000E+00 0.  1.
<mgrwt>
<rscale>  0 0.21968153E+04</rscale>
<asrwt>0</asrwt>
<pdfrwt beam="1">  1        1 0.17078604E+00 0.21968153E+04</pdfrwt>
<pdfrwt beam="2">  1       -2 0.16720452E+00 0.21968153E+04</pdfrwt>
<totfact> 0.22238950E+00</totfact>
</mgrwt>
</event>
<event>
12    5  0.5041746E-008  0.2004280E+04  0.7818608E-02  0.8604622E-01
         -2   -1    0    0    0  501 -0.00000000000E+00  0.00000000000E+00  0.50561495698E+03  0.50561495698E+03  0.00000000000E+00 0.  1.
          1   -1    0    0  501    0  0.00000000000E+00 -0.00000000000E+00 -0.19862644648E+04  0.19862644648E+04  0.00000000000E+00 0. -1.
        -24    2    1    2    0    0  0.71350510231E+03 -0.31887296204E+03 -0.75138347790E+03  0.10858882881E+04  0.61698835962E+02 0.  0.
        254    2    1    2    0    0 -0.71350510231E+03  0.31887296204E+03 -0.72926602993E+03  0.14059911337E+04  0.91335241214E+03 0.  0.
         23    2    4    4    0    0 -0.64110813890E+03 -0.17982747657E+03 -0.53641707479E+03  0.86010413453E+03  0.93157270370E+02 0.  0.
         23    2    4    4    0    0 -0.72396963415E+02  0.49870043862E+03 -0.19284895514E+03  0.54588699920E+03  0.82815750955E+02 0.  0.
          1    1    3    3  502    0  0.58417271824E+03 -0.25026101357E+03 -0.57903218519E+03  0.85974799281E+03  0.00000000000E+00 0. -1.
         -2    1    3    3    0  502  0.12933238407E+03 -0.68611948470E+02 -0.17235129271E+03  0.22614029526E+03  0.00000000000E+00 0.  1.
         13    1    5    5    0    0 -0.27932294852E+03 -0.33756630605E+02 -0.24581390947E+03  0.37361115852E+03  0.00000000000E+00 0. -1.
        -13    1    5    5    0    0 -0.36178519038E+03 -0.14607084597E+03 -0.29060316532E+03  0.48649297601E+03  0.00000000000E+00 0.  1.
          4    1    6    6  503    0 -0.31715171044E+02  0.42472944883E+03 -0.15328252301E+03  0.45265493330E+03  0.00000000000E+00 0. -1.
         -4    1    6    6    0  503 -0.40681792370E+02  0.73970989782E+02 -0.39566432130E+02  0.93232065897E+02  0.00000000000E+00 0.  1.
<mgrwt>
<rscale>  0 0.20042804E+04</rscale>
<asrwt>0</asrwt>
<pdfrwt beam="1">  1        1 0.30557915E+00 0.20042804E+04</pdfrwt>
<pdfrwt beam="2">  1       -2 0.77786916E-01 0.20042804E+04</pdfrwt>
<totfact> 0.36500698E+00</totfact>
</mgrwt>
</event>
<event>
12    5  0.5041746E-008  0.1074356E+04  0.7818608E-02  0.9230553E-01
         -2   -1    0    0    0  501 -0.00000000000E+00  0.00000000000E+00  0.35941573385E+03  0.35941573385E+03  0.00000000000E+00 0.  1.
          1   -1    0    0  501    0  0.00000000000E+00 -0.00000000000E+00 -0.80285872350E+03  0.80285872350E+03  0.00000000000E+00 0. -1.
        -24    2    1    2    0    0 -0.12257885459E+03  0.17460937766E+02 -0.15917677006E+03  0.21671676853E+03  0.79362797918E+02 0.  0.
        254    2    1    2    0    0  0.12257885459E+03 -0.17460937766E+02 -0.28426621959E+03  0.94555768882E+03  0.89327576893E+03 0.  0.
         23    2    4    4    0    0  0.25654088851E+03 -0.40004261515E+03 -0.18153637790E+03  0.51746825163E+03  0.94713322816E+02 0.  0.
         23    2    4    4    0    0 -0.13396203392E+03  0.38258167739E+03 -0.10272984169E+03  0.42808943720E+03  0.91611022600E+02 0.  0.
          3    1    3    3  502    0 -0.42890706621E+02 -0.10259784057E+02 -0.11127401540E+03  0.11969453783E+03  0.00000000000E+00 0. -1.
         -4    1    3    3    0  502 -0.79688147969E+02  0.27720721823E+02 -0.47902754664E+02  0.97022230698E+02  0.00000000000E+00 0.  1.
         13    1    5    5    0    0  0.15316797415E+03 -0.17497697210E+03 -0.53329537570E+02  0.23858207948E+03  0.00000000000E+00 0. -1.
        -13    1    5    5    0    0  0.10337291437E+03 -0.22506564305E+03 -0.12820684033E+03  0.27888617215E+03  0.00000000000E+00 0.  1.
          2    1    6    6  503    0 -0.75653071899E+02  0.14935075835E+03 -0.83022878206E+02  0.18687384679E+03  0.00000000000E+00 0. -1.
         -2    1    6    6    0  503 -0.58308962026E+02  0.23323091904E+03 -0.19706963482E+02  0.24121559041E+03  0.00000000000E+00 0.  1.
<mgrwt>
<rscale>  0 0.10743557E+04</rscale>
<asrwt>0</asrwt>
<pdfrwt beam="1">  1        1 0.12351673E+00 0.10743557E+04</pdfrwt>
<pdfrwt beam="2">  1       -2 0.55294728E-01 0.10743557E+04</pdfrwt>
<totfact> 0.59114876E+01</totfact>
</mgrwt>
</event>
<event>
12    5  0.5041746E-008  0.2668169E+04  0.7818608E-02  0.8345408E-01
          3   -1    0    0  501    0  0.00000000000E+00  0.00000000000E+00  0.24102208120E+04  0.24102208120E+04  0.00000000000E+00 0. -1.
         -4   -1    0    0    0  501 -0.00000000000E+00 -0.00000000000E+00 -0.73843077843E+03  0.73843077843E+03  0.00000000000E+00 0.  1.
        -24    2    1    2    0    0 -0.26355566625E+03  0.17801769851E+03 -0.60052299992E+03  0.68417660052E+03  0.79484948730E+02 0.  0.
        254    2    1    2    0    0  0.26355566625E+03 -0.17801769851E+03  0.22723130335E+04  0.24644749899E+04  0.89948794518E+03 0.  0.
         23    2    4    4    0    0  0.15044659705E+03 -0.52412298696E+03  0.16193656160E+04  0.17112183688E+04  0.92651083400E+02 0.  0.
         23    2    4    4    0    0  0.11310906919E+03  0.34610528845E+03  0.65294741752E+03  0.75325662119E+03  0.92047135134E+02 0.  0.
          3    1    3    3  502    0 -0.45023275820E+02  0.61093970154E+02 -0.98877036720E+02  0.12464444209E+03  0.00000000000E+00 0. -1.
         -4    1    3    3    0  502 -0.21853239043E+03  0.11692372836E+03 -0.50164596320E+03  0.55953215843E+03  0.00000000000E+00 0.  1.
         13    1    5    5    0    0  0.35879535804E+01 -0.16597474804E+02  0.12610893519E+03  0.12724705543E+03  0.00000000000E+00 0.  1.
        -13    1    5    5    0    0  0.14685864347E+03 -0.50752551216E+03  0.14932566808E+04  0.15839713133E+04  0.00000000000E+00 0. -1.
          3    1    6    6  503    0  0.11531734285E+03  0.23816987119E+03  0.41841321897E+03  0.49506827702E+03  0.00000000000E+00 0. -1.
         -3    1    6    6    0  503 -0.22082736576E+01  0.10793541725E+03  0.23453419856E+03  0.25818834417E+03  0.00000000000E+00 0.  1.
<mgrwt>
<rscale>  0 0.26681688E+04</rscale>
<asrwt>0</asrwt>
<pdfrwt beam="1">  1        3 0.37080320E+00 0.26681688E+04</pdfrwt>
<pdfrwt beam="2">  1       -4 0.11360474E+00 0.26681688E+04</pdfrwt>
<totfact> 0.19412279E-02</totfact>
</mgrwt>
</event>
<event>
12    5  0.5041746E-008  0.1166391E+04  0.7818608E-02  0.9142794E-01
          1   -1    0    0  501    0  0.00000000000E+00  0.00000000000E+00  0.61336394857E+03  0.61336394857E+03  0.00000000000E+00 0. -1.
         -2   -1    0    0    0  501 -0.00000000000E+00 -0.00000000000E+00 -0.55451114322E+03  0.55451114322E+03  0.00000000000E+00 0.  1.
        -24    2    1    2    0    0  0.38563312317E+02  0.65497690874E+02 -0.20262427318E+03  0.23102349803E+03  0.80859037815E+02 0.  0.
        254    2    1    2    0    0 -0.38563312317E+02 -0.65497690874E+02  0.26147707852E+03  0.93685159375E+03  0.89640591785E+03 0.  0.
         23    2    4    4    0    0 -0.22777678696E+03 -0.41126296042E+03  0.22719092448E+03  0.53018699992E+03  0.91994844562E+02 0.  0.
         23    2    4    4    0    0  0.18921347464E+03  0.34576526954E+03  0.34286154039E+02  0.40666459384E+03  0.94048875135E+02 0.  0.
          3    1    3    3  502    0  0.17989497062E+02  0.71368510990E+02 -0.89417255363E+02  0.11581248604E+03  0.00000000000E+00 0. -1.
         -4    1    3    3    0  502  0.20573815255E+02 -0.58708201152E+01 -0.11320701781E+03  0.11521101200E+03  0.00000000000E+00 0.  1.
         13    1    5    5    0    0 -0.19910594466E+03 -0.28181519420E+03  0.18200459298E+03  0.39011364081E+03  0.00000000000E+00 0. -1.
        -13    1    5    5    0    0 -0.28670842299E+02 -0.12944776622E+03  0.45186331504E+02  0.14007335911E+03  0.00000000000E+00 0.  1.
          4    1    6    6  503    0  0.15289425119E+03  0.20139862524E+03 -0.42389696356E+01  0.25289528892E+03  0.00000000000E+00 0. -1.
         -4    1    6    6    0  503  0.36319223446E+02  0.14436664430E+03  0.38525123675E+02  0.15376930491E+03  0.00000000000E+00 0.  1.
<mgrwt>
<rscale>  0 0.11663913E+04</rscale>
<asrwt>0</asrwt>
<pdfrwt beam="1">  1        1 0.94363684E-01 0.11663913E+04</pdfrwt>
<pdfrwt beam="2">  1       -2 0.85309407E-01 0.11663913E+04</pdfrwt>
<totfact> 0.34427558E+01</totfact>
</mgrwt>
</event>
<event>
12    5  0.5041746E-008  0.1878434E+04  0.7818608E-02  0.8665666E-01
         -2   -1    0    0    0  501 -0.00000000000E+00  0.00000000000E+00  0.14271668190E+04  0.14271668190E+04  0.00000000000E+00 0.  1.
          1   -1    0    0  501    0  0.00000000000E+00 -0.00000000000E+00 -0.61809775780E+03  0.61809775780E+03  0.00000000000E+00 0. -1.
        -24    2    1    2    0    0  0.40667278551E+03 -0.40170760647E+03 -0.14027334890E+03  0.59397321684E+03  0.79848696613E+02 0.  0.
        254    2    1    2    0    0 -0.40667278551E+03  0.40170760647E+03  0.94934241009E+03  0.14512913599E+04  0.93714665037E+03 0.  0.
         23    2    4    4    0    0  0.58732244180E+02 -0.77692542131E+02  0.72926507215E+03  0.74127327012E+03  0.90404136701E+02 0.  0.
         23    2    4    4    0    0 -0.46540502969E+03  0.47940014860E+03  0.22007733794E+03  0.71001808983E+03  0.96256475476E+02 0.  0.
          1    1    3    3  502    0  0.20636197401E+03 -0.24005385875E+03 -0.10838750174E+03  0.33460270464E+03  0.00000000000E+00 0. -1.
         -2    1    3    3    0  502  0.20031081149E+03 -0.16165374772E+03 -0.31885847166E+02  0.25937051221E+03  0.00000000000E+00 0.  1.
         13    1    5    5    0    0  0.30123528960E+02 -0.94455798040E+02  0.57503011675E+03  0.58351431854E+03  0.00000000000E+00 0. -1.
        -13    1    5    5    0    0  0.28608715220E+02  0.16763255909E+02  0.15423495540E+03  0.15775895158E+03  0.00000000000E+00 0.  1.
          3    1    6    6  503    0 -0.32735264182E+03  0.38259408009E+03  0.13579652987E+03  0.52151575216E+03  0.00000000000E+00 0. -1.
         -3    1    6    6    0  503 -0.13805238787E+03  0.96806068505E+02  0.84280808076E+02  0.18850233766E+03  0.00000000000E+00 0.  1.
<mgrwt>
<rscale>  0 0.18784340E+04</rscale>
<asrwt>0</asrwt>
<pdfrwt beam="1">  1        1 0.95091963E-01 0.18784340E+04</pdfrwt>
<pdfrwt beam="2">  1       -2 0.21956413E+00 0.18784340E+04</pdfrwt>
<totfact> 0.26758751E+00</totfact>
</mgrwt>
</event>
<event>
12    5  0.5041746E-008  0.1435665E+04  0.7818608E-02  0.8928399E-01
         -2   -1    0    0    0  501 -0.00000000000E+00  0.00000000000E+00  0.35413848683E+03  0.35413848683E+03  0.00000000000E+00 0.  1.
          1   -1    0    0  501    0  0.00000000000E+00 -0.00000000000E+00 -0.14550346817E+04  0.14550346817E+04  0.00000000000E+00 0. -1.
        -24    2    1    2    0    0 -0.21460285268E+03  0.30993051436E+03 -0.30737073948E+02  0.38615659929E+03  0.77851418429E+02 0.  0.
        254    2    1    2    0    0  0.21460285268E+03 -0.30993051436E+03 -0.10701591210E+04  0.14230165693E+04  0.85885057150E+03 0.  0.
         23    2    4    4    0    0  0.48293101387E+01  0.57760999466E+02  0.11725702526E+03  0.15887343584E+03  0.90177066622E+02 0.  0.
         23    2    4    4    0    0  0.20977354254E+03 -0.36769151383E+03 -0.11874161462E+04  0.12641431334E+04  0.94333287022E+02 0.  0.
          1    1    3    3  502    0 -0.79485613502E+02  0.85407472814E+02  0.22337744805E+02  0.11879130443E+03  0.00000000000E+00 0. -1.
         -2    1    3    3    0  502 -0.13511723917E+03  0.22452304155E+03 -0.53074818753E+02  0.26736529486E+03  0.00000000000E+00 0.  1.
         13    1    5    5    0    0  0.19287775859E+02  0.72282427395E+02  0.53685929458E+02  0.92081195852E+02  0.00000000000E+00 0. -1.
        -13    1    5    5    0    0 -0.14458465720E+02 -0.14521427929E+02  0.63571095806E+02  0.66792239983E+02  0.00000000000E+00 0.  1.
          4    1    6    6  503    0  0.18094808402E+03 -0.23468932012E+03 -0.76754232210E+03  0.82276515623E+03  0.00000000000E+00 0. -1.
         -4    1    6    6    0  503  0.28825458516E+02 -0.13300219370E+03 -0.41987382411E+03  0.44137797721E+03  0.00000000000E+00 0.  1.
<mgrwt>
<rscale>  0 0.14356654E+04</rscale>
<asrwt>0</asrwt>
<pdfrwt beam="1">  1        1 0.22385149E+00 0.14356654E+04</pdfrwt>
<pdfrwt beam="2">  1       -2 0.54482844E-01 0.14356654E+04</pdfrwt>
<totfact> 0.19016386E+01</totfact>
</mgrwt>
</event>
<event>
12    5  0.5041746E-008  0.1836119E+04  0.7818608E-02  0.8687324E-01
         -2   -1    0    0    0  501 -0.00000000000E+00  0.00000000000E+00  0.76645620490E+03  0.76645620490E+03  0.00000000000E+00 0.  1.
          1   -1    0    0  501    0  0.00000000000E+00 -0.00000000000E+00 -0.10996494965E+04  0.10996494965E+04  0.00000000000E+00 0. -1.
        -24    2    1    2    0    0 -0.47303038230E+03  0.38607942529E+03  0.21391675657E+03  0.65157987434E+03  0.77336205596E+02 0.  0.
        254    2    1    2    0    0  0.47303038230E+03 -0.38607942529E+03 -0.54711004814E+03  0.12145258270E+04  0.89606278493E+03 0.  0.
         23    2    4    4    0    0 -0.23821915195E+01 -0.54625021104E+03 -0.16644703969E+03  0.57818126061E+03  0.90520634124E+02 0.  0.
         23    2    4    4    0    0  0.47541257382E+03  0.16017078575E+03 -0.38066300845E+03  0.63634456642E+03  0.91423658102E+02 0.  0.
          3    1    3    3  502    0 -0.10549449111E+03  0.77527705933E+02  0.79746812978E+02  0.15329444550E+03  0.00000000000E+00 0. -1.
         -4    1    3    3    0  502 -0.36753589119E+03  0.30855171936E+03  0.13416994359E+03  0.49828542884E+03  0.00000000000E+00 0.  1.
         13    1    5    5    0    0  0.24899717161E+01 -0.32198315310E+03 -0.14404978391E+03  0.35274592993E+03  0.00000000000E+00 0. -1.
        -13    1    5    5    0    0 -0.48721632355E+01 -0.22426705795E+03 -0.22397255783E+02  0.22543533069E+03  0.00000000000E+00 0.  1.
          3    1    6    6  503    0  0.40704649106E+03  0.16470909812E+03 -0.34879367082E+03  0.56077888485E+03  0.00000000000E+00 0. -1.
         -3    1    6    6    0  503  0.68366082751E+02 -0.45383123726E+01 -0.31869337632E+02  0.75565681570E+02  0.00000000000E+00 0.  1.
<mgrwt>
<rscale>  0 0.18361189E+04</rscale>
<asrwt>0</asrwt>
<pdfrwt beam="1">  1        1 0.16917685E+00 0.18361189E+04</pdfrwt>
<pdfrwt beam="2">  1       -2 0.11791634E+00 0.18361189E+04</pdfrwt>
<totfact> 0.58035846E+00</totfact>
</mgrwt>
</event>
<event>
12    5  0.5041746E-008  0.2338781E+04  0.7818608E-02  0.8462785E-01
         -2   -1    0    0    0  501 -0.00000000000E+00  0.00000000000E+00  0.13277066506E+04  0.13277066506E+04  0.00000000000E+00 0.  1.
          1   -1    0    0  501    0  0.00000000000E+00 -0.00000000000E+00 -0.10299522872E+04  0.10299522872E+04  0.00000000000E+00 0. -1.
        -24    2    1    2    0    0 -0.76522370962E+03 -0.63394463298E+03  0.18502045689E+03  0.10138990299E+04  0.79407493412E+02 0.  0.
        254    2    1    2    0    0  0.76522370962E+03  0.63394463298E+03  0.11273390650E+03  0.13437599078E+04  0.89751246933E+03 0.  0.
         23    2    4    4    0    0  0.13703616322E+03  0.15948704906E+03 -0.35574019683E+03  0.42317923135E+03  0.91184128900E+02 0.  0.
         23    2    4    4    0    0  0.62818754639E+03  0.47445758392E+03  0.46847410332E+03  0.92058067641E+03  0.90946159456E+02 0.  0.
          1    1    3    3  502    0 -0.33317704941E+03 -0.30871949153E+03  0.11551536090E+03  0.46867736163E+03  0.00000000000E+00 0. -1.
         -2    1    3    3    0  502 -0.43204666021E+03 -0.32522514146E+03  0.69505095997E+02  0.54522166832E+03  0.00000000000E+00 0.  1.
         13    1    5    5    0    0  0.52983126941E+02  0.25810187237E+02 -0.43395824152E+02  0.73188626572E+02  0.00000000000E+00 0. -1.
        -13    1    5    5    0    0  0.84053036283E+02  0.13367686182E+03 -0.31234437267E+03  0.34999060478E+03  0.00000000000E+00 0.  1.
          1    1    6    6  503    0  0.20326791773E+03  0.18328306473E+03  0.20527425183E+03  0.34212285317E+03  0.00000000000E+00 0. -1.
         -1    1    6    6    0  503  0.42491962866E+03  0.29117451919E+03  0.26319985149E+03  0.57845782324E+03  0.00000000000E+00 0.  1.
<mgrwt>
<rscale>  0 0.23387813E+04</rscale>
<asrwt>0</asrwt>
<pdfrwt beam="1">  1        1 0.15845420E+00 0.23387813E+04</pdfrwt>
<pdfrwt beam="2">  1       -2 0.20426256E+00 0.23387813E+04</pdfrwt>
<totfact> 0.14129289E+00</totfact>
</mgrwt>
</event>
<event>
12    5  0.5041746E-008  0.2639697E+04  0.7818608E-02  0.8354841E-01
          1   -1    0    0  501    0  0.00000000000E+00  0.00000000000E+00  0.29159655498E+04  0.29159655498E+04  0.00000000000E+00 0. -1.
         -2   -1    0    0    0  501 -0.00000000000E+00 -0.00000000000E+00 -0.59740078769E+03  0.59740078769E+03  0.00000000000E+00 0.  1.
        -24    2    1    2    0    0  0.13602846391E+03  0.65505395497E+03  0.22975413194E+04  0.23942359507E+04  0.77911785227E+02 0.  0.
        254    2    1    2    0    0 -0.13602846391E+03 -0.65505395497E+03  0.21023442674E+02  0.11191303868E+04  0.89688985418E+03 0.  0.
         23    2    4    4    0    0 -0.39324562247E+03 -0.61456975553E+03 -0.20475071569E+03  0.76298567481E+03  0.88804168735E+02 0.  0.
         23    2    4    4    0    0  0.25721715855E+03 -0.40484199442E+02  0.22577415836E+03  0.35614471197E+03  0.89807840519E+02 0.  0.
          1    1    3    3  502    0  0.10575850872E+03  0.33409311459E+03  0.12523141509E+04  0.13004206258E+04  0.00000000000E+00 0. -1.
         -2    1    3    3    0  502  0.30269955197E+02  0.32096084039E+03  0.10452271685E+04  0.10938153249E+04  0.00000000000E+00 0.  1.
         13    1    5    5    0    0 -0.18721680829E+03 -0.22584651054E+03 -0.56609508686E+02  0.29876649093E+03  0.00000000000E+00 0. -1.
        -13    1    5    5    0    0 -0.20602881417E+03 -0.38872324499E+03 -0.14814120700E+03  0.46421918388E+03  0.00000000000E+00 0.  1.
          1    1    6    6  503    0  0.66728904563E+02 -0.51908273849E+02  0.72888523737E+02  0.11162415729E+03  0.00000000000E+00 0. -1.
         -1    1    6    6    0  503  0.19048825399E+03  0.11424074407E+02  0.15288563462E+03  0.24452055467E+03  0.00000000000E+00 0.  1.
<mgrwt>
<rscale>  0 0.26396970E+04</rscale>
<asrwt>0</asrwt>
<pdfrwt beam="1">  1        1 0.44861008E+00 0.26396970E+04</pdfrwt>
<pdfrwt beam="2">  1       -2 0.91907815E-01 0.26396970E+04</pdfrwt>
<totfact> 0.53447737E-01</totfact>
</mgrwt>
</event>
<event>
12    5  0.5041746E-008  0.1495091E+04  0.7818608E-02  0.8887724E-01
          1   -1    0    0  501    0  0.00000000000E+00  0.00000000000E+00  0.22689300912E+04  0.22689300912E+04  0.00000000000E+00 0. -1.
         -2   -1    0    0    0  501 -0.00000000000E+00 -0.00000000000E+00 -0.24629416779E+03  0.24629416779E+03  0.00000000000E+00 0.  1.
        -24    2    1    2    0    0 -0.18185751700E+03  0.32007311147E+02 -0.78045772894E+02  0.21595578259E+03  0.80306493575E+02 0.  0.
        254    2    1    2    0    0  0.18185751700E+03 -0.32007311147E+02  0.21006816963E+04  0.22992684764E+04  0.91633799054E+03 0.  0.
         23    2    4    4    0    0  0.54106547347E+03  0.21588073988E+02  0.14205684074E+04  0.15230144955E+04  0.91327224029E+02 0.  0.
         23    2    4    4    0    0 -0.35920795647E+03 -0.53595385135E+02  0.68011328889E+03  0.77625398090E+03  0.90074057499E+02 0.  0.
          1    1    3    3  502    0 -0.24521514985E+02 -0.23147505559E+02 -0.56433318303E+01  0.34190041019E+02  0.00000000000E+00 0. -1.
         -4    1    3    3    0  502 -0.15733600202E+03  0.55154816706E+02 -0.72402441064E+02  0.18176574157E+03  0.00000000000E+00 0.  1.
         13    1    5    5    0    0  0.36871156080E+03 -0.21155216297E+02  0.89273809726E+03  0.96611441793E+03  0.00000000000E+00 0. -1.
        -13    1    5    5    0    0  0.17235391267E+03  0.42743290285E+02  0.52783031014E+03  0.55690007756E+03  0.00000000000E+00 0.  1.
          1    1    6    6  503    0 -0.36451101761E+03 -0.51027928302E+02  0.66557241594E+03  0.76056477192E+03  0.00000000000E+00 0. -1.
         -1    1    6    6    0  503  0.53030611444E+01 -0.25674568327E+01  0.14540872957E+02  0.15689208980E+02  0.00000000000E+00 0.  1.
<mgrwt>
<rscale>  0 0.14950910E+04</rscale>
<asrwt>0</asrwt>
<pdfrwt beam="1">  1        1 0.34906615E+00 0.14950910E+04</pdfrwt>
<pdfrwt beam="2">  1       -2 0.37891412E-01 0.14950910E+04</pdfrwt>
<totfact> 0.10934113E+01</totfact>
</mgrwt>
</event>
<event>
12    5  0.5041746E-008  0.1250149E+04  0.7818608E-02  0.9070059E-01
          1   -1    0    0  501    0  0.00000000000E+00  0.00000000000E+00  0.94487403760E+03  0.94487403760E+03  0.00000000000E+00 0. -1.
         -2   -1    0    0    0  501 -0.00000000000E+00 -0.00000000000E+00 -0.41351340512E+03  0.41351340512E+03  0.00000000000E+00 0.  1.
        -24    2    1    2    0    0 -0.25863301099E+03 -0.14191140681E+03  0.17761980327E+03  0.35370127402E+03  0.80783135445E+02 0.  0.
        254    2    1    2    0    0  0.25863301099E+03  0.14191140681E+03  0.35374082921E+03  0.10046861687E+04  0.89287840245E+03 0.  0.
         23    2    4    4    0    0  0.22676084401E+03  0.36056917316E+03 -0.13954321831E+03  0.45666152112E+03  0.87388935729E+02 0.  0.
         23    2    4    4    0    0  0.31872166987E+02 -0.21865776635E+03  0.49328404752E+03  0.54802464757E+03  0.90414650330E+02 0.  0.
          3    1    3    3  502    0 -0.21461972014E+03 -0.12683074335E+03  0.17941096096E+03  0.30714158730E+03  0.00000000000E+00 0. -1.
         -4    1    3    3    0  502 -0.44013290851E+02 -0.15080663458E+02 -0.17911576967E+01  0.46559686723E+02  0.00000000000E+00 0.  1.
         13    1    5    5    0    0  0.20628722230E+03  0.26331626201E+03 -0.12000535119E+03  0.35537467023E+03  0.00000000000E+00 0. -1.
        -13    1    5    5    0    0  0.20473621705E+02  0.97252911147E+02 -0.19537867126E+02  0.10128685089E+03  0.00000000000E+00 0.  1.
          4    1    6    6  503    0  0.54919758939E+02 -0.19858165023E+03  0.40140488748E+03  0.45119478656E+03  0.00000000000E+00 0. -1.
         -4    1    6    6    0  503 -0.23047591952E+02 -0.20076116127E+02  0.91879160039E+02  0.96829861009E+02  0.00000000000E+00 0.  1.
<mgrwt>
<rscale>  0 0.12501489E+04</rscale>
<asrwt>0</asrwt>
<pdfrwt beam="1">  1        1 0.14536524E+00 0.12501489E+04</pdfrwt>
<pdfrwt beam="2">  1       -2 0.63617447E-01 0.12501489E+04</pdfrwt>
<totfact> 0.33071426E+01</totfact>
</mgrwt>
</event>
<event>
12    5  0.5041746E-008  0.1435194E+04  0.7818608E-02  0.8928730E-01
          1   -1    0    0  501    0  0.00000000000E+00  0.00000000000E+00  0.18250730286E+04  0.18250730286E+04  0.00000000000E+00 0. -1.
         -2   -1    0    0    0  501 -0.00000000000E+00 -0.00000000000E+00 -0.28215062804E+03  0.28215062804E+03  0.00000000000E+00 0.  1.
        -24    2    1    2    0    0  0.37822640509E+03 -0.16836000047E+03  0.72528161938E+03  0.83904843514E+03  0.81046565806E+02 0.  0.
        254    2    1    2    0    0 -0.37822640509E+03  0.16836000047E+03  0.81764078116E+03  0.12681752215E+04  0.87654528810E+03 0.  0.
         23    2    4    4    0    0  0.10078885407E+03  0.28649969630E+03  0.67643287065E+03  0.74712932063E+03  0.91653282363E+02 0.  0.
         23    2    4    4    0    0 -0.47901525916E+03 -0.11813969583E+03  0.14120791051E+03  0.52104590085E+03  0.90202830115E+02 0.  0.
          1    1    3    3  502    0  0.23347070968E+03 -0.81578213149E+02  0.49719710472E+03  0.55530940752E+03  0.00000000000E+00 0. -1.
         -2    1    3    3    0  502  0.14475569542E+03 -0.86781787321E+02  0.22808451466E+03  0.28373902762E+03  0.00000000000E+00 0.  1.
         13    1    5    5    0    0 -0.63044629012E+01  0.72595711941E+02  0.10664115081E+03  0.12915966356E+03  0.00000000000E+00 0. -1.
        -13    1    5    5    0    0  0.10709331697E+03  0.21390398436E+03  0.56979171984E+03  0.61796965707E+03  0.00000000000E+00 0.  1.
          1    1    6    6  503    0 -0.34531506319E+03 -0.12229564978E+03  0.85705845044E+02  0.37622361794E+03  0.00000000000E+00 0. -1.
         -1    1    6    6    0  503 -0.13370019597E+03  0.41559539489E+01  0.55502065467E+02  0.14482228290E+03  0.00000000000E+00 0.  1.
<mgrwt>
<rscale>  0 0.14351941E+04</rscale>
<asrwt>0</asrwt>
<pdfrwt beam="1">  1        1 0.28078046E+00 0.14351941E+04</pdfrwt>
<pdfrwt beam="2">  1       -2 0.43407790E-01 0.14351941E+04</pdfrwt>
<totfact> 0.16831231E+01</totfact>
</mgrwt>
</event>
<event>
12    5  0.5041746E-008  0.3633713E+04  0.7818608E-02  0.8082813E-01
         -2   -1    0    0    0  501 -0.00000000000E+00  0.00000000000E+00  0.22526446196E+04  0.22526446196E+04  0.00000000000E+00 0.  1.
          1   -1    0    0  501    0  0.00000000000E+00 -0.00000000000E+00 -0.14653742294E+04  0.14653742294E+04  0.00000000000E+00 0. -1.
        -24    2    1    2    0    0 -0.43949963036E+03 -0.47119266462E+03  0.19817065993E+04  0.20853104026E+04  0.78587386214E+02 0.  0.
        254    2    1    2    0    0  0.43949963036E+03  0.47119266462E+03 -0.11944362091E+04  0.16327084464E+04  0.90767646270E+03 0.  0.
         23    2    4    4    0    0  0.20719451613E+03 -0.22810842615E+03 -0.15876888792E+03  0.35855295816E+03  0.91594991360E+02 0.  0.
         23    2    4    4    0    0  0.23230511423E+03  0.69930109076E+03 -0.10356673212E+04  0.12741554882E+04  0.88756556403E+02 0.  0.
          1    1    3    3  502    0 -0.21557521106E+03 -0.17663676099E+03  0.88846857408E+03  0.93115499466E+03  0.00000000000E+00 0. -1.
         -2    1    3    3    0  502 -0.22392441929E+03 -0.29455590363E+03  0.10932380252E+04  0.11541554080E+04  0.00000000000E+00 0.  1.
         13    1    5    5    0    0  0.12525462872E+03 -0.12414793530E+03 -0.13934896794E+03  0.22476558171E+03  0.00000000000E+00 0.  1.
        -13    1    5    5    0    0  0.81939887406E+02 -0.10396049085E+03 -0.19419919979E+02  0.13378737645E+03  0.00000000000E+00 0. -1.
          1    1    6    6  503    0  0.13823050121E+03  0.33794127751E+03 -0.57543491427E+03  0.68149638229E+03  0.00000000000E+00 0. -1.
         -1    1    6    6    0  503  0.94074613024E+02  0.36135981325E+03 -0.46023240693E+03  0.59265910593E+03  0.00000000000E+00 0.  1.
<mgrwt>
<rscale>  0 0.36337129E+04</rscale>
<asrwt>0</asrwt>
<pdfrwt beam="1">  1        1 0.22544219E+00 0.36337129E+04</pdfrwt>
<pdfrwt beam="2">  1       -2 0.34656071E+00 0.36337129E+04</pdfrwt>
<totfact> 0.80087933E-02</totfact>
</mgrwt>
</event>
<event>
12    5  0.5041746E-008  0.1608639E+04  0.7818608E-02  0.8815258E-01
          1   -1    0    0  501    0  0.00000000000E+00  0.00000000000E+00  0.15029129411E+04  0.15029129411E+04  0.00000000000E+00 0. -1.
         -2   -1    0    0    0  501 -0.00000000000E+00 -0.00000000000E+00 -0.43045054203E+03  0.43045054203E+03  0.00000000000E+00 0.  1.
        -24    2    1    2    0    0  0.17147272895E+03  0.34743765520E+03 -0.93964033293E+02  0.40686590839E+03  0.81208416015E+02 0.  0.
        254    2    1    2    0    0 -0.17147272895E+03 -0.34743765520E+03  0.11664264324E+04  0.15264975747E+04  0.90527808023E+03 0.  0.
         23    2    4    4    0    0  0.30899811491E+03 -0.96016400853E+02  0.14363537099E+03  0.36529303584E+03  0.90049419687E+02 0.  0.
         23    2    4    4    0    0 -0.48047084386E+03 -0.25142125435E+03  0.10227910614E+04  0.11612045389E+04  0.90716850614E+02 0.  0.
          3    1    3    3  502    0  0.10004025849E+03  0.14685878886E+03 -0.99576788820E+01  0.17797390976E+03  0.00000000000E+00 0. -1.
         -4    1    3    3    0  502  0.71432470465E+02  0.20057886634E+03 -0.84006354411E+02  0.22889199864E+03  0.00000000000E+00 0.  1.
         13    1    5    5    0    0  0.64415417827E+02 -0.30488241494E+02 -0.54159930296E+01  0.71471755986E+02  0.00000000000E+00 0.  1.
        -13    1    5    5    0    0  0.24458269708E+03 -0.65528159359E+02  0.14905136402E+03  0.29382127986E+03  0.00000000000E+00 0. -1.
          4    1    6    6  503    0 -0.21576736490E+03 -0.15484362128E+03  0.44153308994E+03  0.51525097993E+03  0.00000000000E+00 0. -1.
         -4    1    6    6    0  503 -0.26470347896E+03 -0.96577633065E+02  0.58125797144E+03  0.64595355897E+03  0.00000000000E+00 0.  1.
<mgrwt>
<rscale>  0 0.16086388E+04</rscale>
<asrwt>0</asrwt>
<pdfrwt beam="1">  1        1 0.23121737E+00 0.16086388E+04</pdfrwt>
<pdfrwt beam="2">  1       -2 0.66223161E-01 0.16086388E+04</pdfrwt>
<totfact> 0.11488840E+01</totfact>
</mgrwt>
</event>
<event>
12    5  0.5041746E-008  0.3667476E+04  0.7818608E-02  0.8075208E-01
         -2   -1    0    0    0  501 -0.00000000000E+00  0.00000000000E+00  0.99082556742E+03  0.99082556742E+03  0.00000000000E+00 0.  1.
          1   -1    0    0  501    0  0.00000000000E+00 -0.00000000000E+00 -0.33937298591E+04  0.33937298591E+04  0.00000000000E+00 0. -1.
        -24    2    1    2    0    0  0.79925093840E+03 -0.10507937943E+04 -0.24501883030E+04  0.27851465988E+04  0.10319494046E+03 0.  0.
        254    2    1    2    0    0 -0.79925093840E+03  0.10507937943E+04  0.47284011338E+02  0.15994088277E+04  0.90161142394E+03 0.  0.
         23    2    4    4    0    0 -0.87222069342E+03  0.81045110910E+03 -0.22841638799E+03  0.12155152100E+04  0.87768110736E+02 0.  0.
         23    2    4    4    0    0  0.72969755023E+02  0.24034268524E+03  0.27570039933E+03  0.38389361770E+03  0.90963773152E+02 0.  0.
          3    1    3    3  502    0  0.68530209508E+03 -0.88463163317E+03 -0.21469531071E+04  0.24210782168E+04  0.00000000000E+00 0. -1.
         -4    1    3    3    0  502  0.11394884332E+03 -0.16616216117E+03 -0.30323519595E+03  0.36406838198E+03  0.00000000000E+00 0.  1.
         13    1    5    5    0    0 -0.73134751902E+03  0.70418673290E+03 -0.22021966464E+03  0.10388670988E+04  0.00000000000E+00 0. -1.
        -13    1    5    5    0    0 -0.14087317440E+03  0.10626437620E+03 -0.81967233539E+01  0.17664811120E+03  0.00000000000E+00 0.  1.
          2    1    6    6  503    0  0.51786766211E+01  0.16162635272E+03  0.18765059169E+03  0.24771483837E+03  0.00000000000E+00 0. -1.
         -2    1    6    6    0  503  0.67791078402E+02  0.78716332518E+02  0.88049807641E+02  0.13617877934E+03  0.00000000000E+00 0.  1.
<mgrwt>
<rscale>  0 0.36674756E+04</rscale>
<asrwt>0</asrwt>
<pdfrwt beam="1">  1        1 0.52211228E+00 0.36674756E+04</pdfrwt>
<pdfrwt beam="2">  1       -2 0.15243470E+00 0.36674756E+04</pdfrwt>
<totfact> 0.61472239E-02</totfact>
</mgrwt>
</event>
<event>
12    5  0.5041746E-008  0.2014271E+04  0.7818608E-02  0.8599977E-01
          1   -1    0    0  501    0  0.00000000000E+00  0.00000000000E+00  0.31671880888E+04  0.31671880888E+04  0.00000000000E+00 0. -1.
         -2   -1    0    0    0  501 -0.00000000000E+00 -0.00000000000E+00 -0.32025953063E+03  0.32025953063E+03  0.00000000000E+00 0.  1.
        -24    2    1    2    0    0 -0.56213056105E+02 -0.42236081646E+02 -0.24725602771E+03  0.26922707716E+03  0.80024256132E+02 0.  0.
        254    2    1    2    0    0  0.56213056105E+02  0.42236081646E+02  0.30941845858E+04  0.32182205422E+04  0.88205522099E+03 0.  0.
         23    2    4    4    0    0 -0.11080025669E+03  0.33904190241E+03  0.25057959408E+04  0.25326720971E+04  0.90490585459E+02 0.  0.
         23    2    4    4    0    0  0.16701331280E+03 -0.29680582076E+03  0.58838864500E+03  0.68554844508E+03  0.88251521786E+02 0.  0.
          3    1    3    3  502    0 -0.41019058283E+02  0.12017644610E+02 -0.59925522187E+02  0.73607439391E+02  0.00000000000E+00 0. -1.
         -4    1    3    3    0  502 -0.15193997822E+02 -0.54253726256E+02 -0.18733050552E+03  0.19561963777E+03  0.00000000000E+00 0.  1.
         13    1    5    5    0    0 -0.24626120364E+02  0.15748807930E+02  0.11890409915E+03  0.12244449988E+03  0.00000000000E+00 0.  1.
        -13    1    5    5    0    0 -0.86174136330E+02  0.32329309447E+03  0.23868918417E+04  0.24102275973E+04  0.00000000000E+00 0. -1.
          1    1    6    6  503    0  0.50180636157E+02 -0.47074218448E+02  0.18096323821E+03  0.19360209676E+03  0.00000000000E+00 0.  1.
         -1    1    6    6    0  503  0.11683267664E+03 -0.24973160231E+03  0.40742540679E+03  0.49194634832E+03  0.00000000000E+00 0. -1.
<mgrwt>
<rscale>  0 0.20142713E+04</rscale>
<asrwt>0</asrwt>
<pdfrwt beam="1">  1        1 0.48725968E+00 0.20142713E+04</pdfrwt>
<pdfrwt beam="2">  1       -2 0.49270699E-01 0.20142713E+04</pdfrwt>
<totfact> 0.14314439E+00</totfact>
</mgrwt>
</event>
<event>
12    5  0.5041746E-008  0.3622934E+04  0.7818608E-02  0.8085259E-01
         -2   -1    0    0    0  501 -0.00000000000E+00  0.00000000000E+00  0.16668675884E+04  0.16668675884E+04  0.00000000000E+00 0.  1.
          1   -1    0    0  501    0  0.00000000000E+00 -0.00000000000E+00 -0.19686099406E+04  0.19686099406E+04  0.00000000000E+00 0. -1.
        -24    2    1    2    0    0  0.15239269051E+04  0.80836645626E+01 -0.89030150097E+03  0.17663693884E+04  0.70749528515E+02 0.  0.
        254    2    1    2    0    0 -0.15239269051E+04 -0.80836645626E+01  0.58855914876E+03  0.18691081406E+04  0.90815461889E+03 0.  0.
         23    2    4    4    0    0 -0.55148591367E+03  0.41019238945E+03  0.10382818858E+03  0.70049621482E+03  0.86718768999E+02 0.  0.
         23    2    4    4    0    0 -0.97244099142E+03 -0.41827605401E+03  0.48473096018E+03  0.11686119257E+04  0.10046586519E+03 0.  0.
          3    1    3    3  502    0  0.11812491109E+04  0.53945333400E+00 -0.72312715121E+03  0.13850135847E+04  0.00000000000E+00 0. -1.
         -4    1    3    3    0  502  0.34267779420E+03  0.75442112286E+01 -0.16717434977E+03  0.38135580365E+03  0.00000000000E+00 0.  1.
         13    1    5    5    0    0 -0.25888829161E+02  0.44094160090E+02  0.18160151995E+02  0.54261566046E+02  0.00000000000E+00 0. -1.
        -13    1    5    5    0    0 -0.52559708451E+03  0.36609822936E+03  0.85668036586E+02  0.64623464877E+03  0.00000000000E+00 0.  1.
          1    1    6    6  503    0 -0.40788371525E+03 -0.21641765129E+03  0.24686053786E+03  0.52358939075E+03  0.00000000000E+00 0. -1.
         -1    1    6    6    0  503 -0.56455727618E+03 -0.20185840272E+03  0.23787042233E+03  0.64502253499E+03  0.00000000000E+00 0.  1.
<mgrwt>
<rscale>  0 0.36229337E+04</rscale>
<asrwt>0</asrwt>
<pdfrwt beam="1">  1        1 0.30286307E+00 0.36229337E+04</pdfrwt>
<pdfrwt beam="2">  1       -2 0.25644117E+00 0.36229337E+04</pdfrwt>
<totfact> 0.13035096E-01</totfact>
</mgrwt>
</event>
<event>
12    5  0.5041746E-008  0.2213260E+04  0.7818608E-02  0.8512929E-01
          1   -1    0    0  501    0  0.00000000000E+00  0.00000000000E+00  0.23175468623E+04  0.23175468623E+04  0.00000000000E+00 0. -1.
         -2   -1    0    0    0  501 -0.00000000000E+00 -0.00000000000E+00 -0.52841647148E+03  0.52841647148E+03  0.00000000000E+00 0.  1.
        -24    2    1    2    0    0  0.29602214008E+03 -0.84812738181E+03  0.10329835928E+04  0.13712434470E+04  0.79399777836E+02 0.  0.
        254    2    1    2    0    0 -0.29602214008E+03  0.84812738181E+03  0.75614679799E+03  0.14747198868E+04  0.89223965453E+03 0.  0.
         23    2    4    4    0    0 -0.85535267039E+00  0.49030848884E+03 -0.88644206538E+02  0.50675039789E+03  0.92385196587E+02 0.  0.
         23    2    4    4    0    0 -0.29516678741E+03  0.35781889296E+03  0.84479100453E+03  0.96796948887E+03  0.90195884053E+02 0.  0.
          1    1    3    3  502    0  0.93063278509E+02 -0.24388774580E+03  0.35538921175E+03  0.44095747889E+03  0.00000000000E+00 0. -1.
         -2    1    3    3    0  502  0.20295886158E+03 -0.60423963601E+03  0.67759438108E+03  0.93028596813E+03  0.00000000000E+00 0.  1.
         13    1    5    5    0    0 -0.20344569750E+02  0.44314294898E+03 -0.58424141082E+02  0.44744044856E+03  0.00000000000E+00 0.  1.
        -13    1    5    5    0    0  0.19489217080E+02  0.47165539865E+02 -0.30220065456E+02  0.59309949328E+02  0.00000000000E+00 0. -1.
          1    1    6    6  503    0 -0.10799200528E+03  0.16264791231E+03  0.27489566801E+03  0.33717094311E+03  0.00000000000E+00 0. -1.
         -1    1    6    6    0  503 -0.18717478213E+03  0.19517098065E+03  0.56989533652E+03  0.63079854577E+03  0.00000000000E+00 0.  1.
<mgrwt>
<rscale>  0 0.22132600E+04</rscale>
<asrwt>0</asrwt>
<pdfrwt beam="1">  1        1 0.35654567E+00 0.22132600E+04</pdfrwt>
<pdfrwt beam="2">  1       -2 0.81294843E-01 0.22132600E+04</pdfrwt>
<totfact> 0.19310067E+00</totfact>
</mgrwt>
</event>
<event>
12    5  0.5041746E-008  0.1563052E+04  0.7818608E-02  0.8843574E-01
         -4   -1    0    0    0  501 -0.00000000000E+00  0.00000000000E+00  0.75002766582E+03  0.75002766582E+03  0.00000000000E+00 0.  1.
          1   -1    0    0  501    0  0.00000000000E+00 -0.00000000000E+00 -0.81434706961E+03  0.81434706961E+03  0.00000000000E+00 0. -1.
        -24    2    1    2    0    0 -0.17217027677E+03  0.11574587908E+03 -0.50211317891E+03  0.54935688000E+03  0.81459342269E+02 0.  0.
        254    2    1    2    0    0  0.17217027677E+03 -0.11574587908E+03  0.43779377511E+03  0.10150178554E+04  0.89194066204E+03 0.  0.
         23    2    4    4    0    0  0.44238609791E+03  0.18081576503E+03  0.14388174198E+03  0.50705097784E+03  0.89436781837E+02 0.  0.
         23    2    4    4    0    0 -0.27021582115E+03 -0.29656164410E+03  0.29391203313E+03  0.50796687759E+03  0.10334731134E+03 0.  0.
          1    1    3    3  502    0 -0.14482818780E+03  0.57994948217E+02 -0.31269933951E+03  0.34945599856E+03  0.00000000000E+00 0. -1.
         -2    1    3    3    0  502 -0.27342088969E+02  0.57750930858E+02 -0.18941383940E+03  0.19990088144E+03  0.00000000000E+00 0.  1.
         13    1    5    5    0    0  0.24024689257E+03  0.10099042509E+03  0.31864037507E+02  0.26255085648E+03  0.00000000000E+00 0. -1.
        -13    1    5    5    0    0  0.20213920534E+03  0.79825339939E+02  0.11201770447E+03  0.24450012137E+03  0.00000000000E+00 0.  1.
          1    1    6    6  503    0 -0.24204712156E+03 -0.29129177723E+03  0.29376778142E+03  0.47930910479E+03  0.00000000000E+00 0.  1.
         -1    1    6    6    0  503 -0.28168699584E+02 -0.52698668740E+01  0.14425170766E+00  0.28657772797E+02  0.00000000000E+00 0. -1.
<mgrwt>
<rscale>  0 0.15630519E+04</rscale>
<asrwt>0</asrwt>
<pdfrwt beam="1">  1        1 0.12528416E+00 0.15630519E+04</pdfrwt>
<pdfrwt beam="2">  1       -4 0.11538887E+00 0.15630519E+04</pdfrwt>
<totfact> 0.58376769E+00</totfact>
</mgrwt>
</event>
<event>
12    5  0.5041746E-008  0.1538522E+04  0.7818608E-02  0.8859233E-01
          1   -1    0    0  501    0  0.00000000000E+00  0.00000000000E+00  0.21706827758E+04  0.21706827758E+04  0.00000000000E+00 0. -1.
         -2   -1    0    0    0  501 -0.00000000000E+00 -0.00000000000E+00 -0.27261566343E+03  0.27261566343E+03  0.00000000000E+00 0.  1.
        -24    2    1    2    0    0  0.34638790238E+03  0.21024578688E+03  0.19626765049E+03  0.45807887871E+03  0.84423922425E+02 0.  0.
        254    2    1    2    0    0 -0.34638790238E+03 -0.21024578688E+03  0.17017994618E+04  0.19852195605E+04  0.93850275717E+03 0.  0.
         23    2    4    4    0    0  0.24958226231E+03 -0.26346518702E+03  0.94469730330E+03  0.10159215286E+04  0.89097401521E+02 0.  0.
         23    2    4    4    0    0 -0.59597016469E+03  0.53219400141E+02  0.75710215854E+03  0.96929803189E+03  0.91226391005E+02 0.  0.
          3    1    3    3  502    0  0.31790556331E+03  0.17874720163E+03  0.14749010096E+03  0.39340543864E+03  0.00000000000E+00 0. -1.
         -4    1    3    3    0  502  0.28482339066E+02  0.31498585255E+02  0.48777549535E+02  0.64673440069E+02  0.00000000000E+00 0.  1.
         13    1    5    5    0    0  0.25583705356E+03 -0.26371747746E+03  0.92808972642E+03  0.99817335477E+03  0.00000000000E+00 0. -1.
        -13    1    5    5    0    0 -0.62547912492E+01  0.25229043631E+00  0.16607576889E+02  0.17748173826E+02  0.00000000000E+00 0.  1.
          4    1    6    6  503    0 -0.39551485875E+03  0.39602554910E+02  0.56885479266E+03  0.69397128253E+03  0.00000000000E+00 0. -1.
         -4    1    6    6    0  503 -0.20045530594E+03  0.13616845232E+02  0.18824736588E+03  0.27532674936E+03  0.00000000000E+00 0.  1.
<mgrwt>
<rscale>  0 0.15385215E+04</rscale>
<asrwt>0</asrwt>
<pdfrwt beam="1">  1        1 0.33395118E+00 0.15385215E+04</pdfrwt>
<pdfrwt beam="2">  1       -2 0.41940873E-01 0.15385215E+04</pdfrwt>
<totfact> 0.10416036E+01</totfact>
</mgrwt>
</event>
<event>
12    5  0.5041746E-008  0.1161568E+04  0.7818608E-02  0.9147178E-01
         -2   -1    0    0    0  501 -0.00000000000E+00  0.00000000000E+00  0.49500279543E+03  0.49500279543E+03  0.00000000000E+00 0.  1.
          1   -1    0    0  501    0  0.00000000000E+00 -0.00000000000E+00 -0.68143010900E+03  0.68143010900E+03  0.00000000000E+00 0. -1.
        -24    2    1    2    0    0 -0.18882790462E+02 -0.19333090813E+03 -0.16079118354E+03  0.26408288878E+03  0.78438304583E+02 0.  0.
        254    2    1    2    0    0  0.18882790462E+02  0.19333090813E+03 -0.25636130027E+02  0.91235001565E+03  0.89106225377E+03 0.  0.
         23    2    4    4    0    0  0.14864417413E+02 -0.29792219887E+03 -0.21270716456E+03  0.37950578377E+03  0.99003608901E+02 0.  0.
         23    2    4    4    0    0  0.40183730493E+01  0.49125310700E+03  0.18707103453E+03  0.53284423188E+03  0.87072619301E+02 0.  0.
          3    1    3    3  502    0 -0.41892500402E+02 -0.16560805443E+03 -0.14746337644E+03  0.22566890941E+03  0.00000000000E+00 0. -1.
         -4    1    3    3    0  502  0.23009709940E+02 -0.27722853697E+02 -0.13327807098E+02  0.38413979365E+02  0.00000000000E+00 0.  1.
         13    1    5    5    0    0  0.54145106804E+02 -0.17822415509E+03 -0.14784385687E+03  0.23780947849E+03  0.00000000000E+00 0. -1.
        -13    1    5    5    0    0 -0.39280689391E+02 -0.11969804378E+03 -0.64863307689E+02  0.14169630528E+03  0.00000000000E+00 0.  1.
          1    1    6    6  503    0  0.17698336292E+02  0.47944358605E+02 -0.95219929707E+00  0.51115548642E+02  0.00000000000E+00 0.  1.
         -1    1    6    6    0  503 -0.13679963242E+02  0.44330874840E+03  0.18802323383E+03  0.48172868324E+03  0.00000000000E+00 0. -1.
<mgrwt>
<rscale>  0 0.11615676E+04</rscale>
<asrwt>0</asrwt>
<pdfrwt beam="1">  1        1 0.10483540E+00 0.11615676E+04</pdfrwt>
<pdfrwt beam="2">  1       -2 0.76154276E-01 0.11615676E+04</pdfrwt>
<totfact> 0.38074550E+01</totfact>
</mgrwt>
</event>
<event>
12    5  0.5041746E-008  0.2586057E+04  0.7818608E-02  0.8372953E-01
         -2   -1    0    0    0  501 -0.00000000000E+00  0.00000000000E+00  0.10445096895E+04  0.10445096895E+04  0.00000000000E+00 0.  1.
          1   -1    0    0  501    0  0.00000000000E+00 -0.00000000000E+00 -0.16006774390E+04  0.16006774390E+04  0.00000000000E+00 0. -1.
        -24    2    1    2    0    0  0.67215734685E+03  0.58730873738E+03  0.47011115723E+03  0.10117704973E+04  0.77123195205E+02 0.  0.
        254    2    1    2    0    0 -0.67215734685E+03 -0.58730873738E+03 -0.10262789067E+04  0.16334166311E+04  0.90447467887E+03 0.  0.
         23    2    4    4    0    0 -0.86349753777E+03 -0.52339064628E+03 -0.67394094853E+03  0.12177330627E+04  0.95454928940E+02 0.  0.
         23    2    4    4    0    0  0.19134019093E+03 -0.63918091093E+02 -0.35233795813E+03  0.41568356847E+03  0.89186329236E+02 0.  0.
          1    1    3    3  502    0  0.11983571924E+03  0.10621910057E+03  0.11893334511E+03  0.19946989124E+03  0.00000000000E+00 0. -1.
         -2    1    3    3    0  502  0.55232162761E+03  0.48108963680E+03  0.35117781212E+03  0.81230060611E+03  0.00000000000E+00 0.  1.
         13    1    5    5    0    0 -0.90709188678E+02 -0.26419572872E+02 -0.78832966853E+02  0.12304790695E+03  0.00000000000E+00 0.  1.
        -13    1    5    5    0    0 -0.77278834910E+03 -0.49697107341E+03 -0.59510798167E+03  0.10946851557E+04  0.00000000000E+00 0. -1.
          4    1    6    6  503    0  0.16969544241E+03 -0.20513616259E+02 -0.29097628898E+03  0.33746785384E+03  0.00000000000E+00 0. -1.
         -4    1    6    6    0  503  0.21644748517E+02 -0.43404474834E+02 -0.61361669150E+02  0.78215714629E+02  0.00000000000E+00 0.  1.
<mgrwt>
<rscale>  0 0.25860573E+04</rscale>
<asrwt>0</asrwt>
<pdfrwt beam="1">  1        1 0.24625807E+00 0.25860573E+04</pdfrwt>
<pdfrwt beam="2">  1       -2 0.16069380E+00 0.25860573E+04</pdfrwt>
<totfact> 0.10747416E+00</totfact>
</mgrwt>
</event>
<event>
12    5  0.5041746E-008  0.1378407E+04  0.7818608E-02  0.8969599E-01
          1   -1    0    0  501    0  0.00000000000E+00  0.00000000000E+00  0.83461529605E+03  0.83461529605E+03  0.00000000000E+00 0. -1.
         -2   -1    0    0    0  501 -0.00000000000E+00 -0.00000000000E+00 -0.56912640807E+03  0.56912640807E+03  0.00000000000E+00 0.  1.
        -24    2    1    2    0    0  0.63313389750E+02  0.32467385025E+03  0.31710601557E+03  0.46493466822E+03  0.78653202331E+02 0.  0.
        254    2    1    2    0    0 -0.63313389750E+02 -0.32467385025E+03 -0.51617127598E+02  0.93880703590E+03  0.87708188240E+03 0.  0.
         23    2    4    4    0    0 -0.42018896390E+03  0.17378154885E+02  0.15540436905E+02  0.43310166803E+03  0.10234639229E+03 0.  0.
         23    2    4    4    0    0  0.35687557415E+03 -0.34205200514E+03 -0.67157564503E+02  0.50570536788E+03  0.82873584369E+02 0.  0.
          1    1    3    3  502    0  0.68803596652E+02  0.29690045906E+03  0.31202957775E+03  0.43617229955E+03  0.00000000000E+00 0. -1.
         -2    1    3    3    0  502 -0.54902069025E+01  0.27773391198E+02  0.50764378184E+01  0.28762368668E+02  0.00000000000E+00 0.  1.
         13    1    5    5    0    0 -0.37719739887E+03  0.47717511296E+02  0.13527769185E+02  0.38044426548E+03  0.00000000000E+00 0.  1.
        -13    1    5    5    0    0 -0.42991565031E+02 -0.30339356411E+02  0.20126677201E+01  0.52657402543E+02  0.00000000000E+00 0. -1.
          4    1    6    6  503    0  0.11768798000E+03 -0.14800386977E+03 -0.57155447954E+02  0.19754075867E+03  0.00000000000E+00 0. -1.
         -4    1    6    6    0  503  0.23918759415E+03 -0.19404813537E+03 -0.10002116549E+02  0.30816460921E+03  0.00000000000E+00 0.  1.
<mgrwt>
<rscale>  0 0.13784072E+04</rscale>
<asrwt>0</asrwt>
<pdfrwt beam="1">  1        1 0.12840235E+00 0.13784072E+04</pdfrwt>
<pdfrwt beam="2">  1       -2 0.87557909E-01 0.13784072E+04</pdfrwt>
<totfact> 0.19888715E+01</totfact>
</mgrwt>
</event>
<event>
12    5  0.5041746E-008  0.3637869E+04  0.7818608E-02  0.8081872E-01
         -2   -1    0    0    0  501 -0.00000000000E+00  0.00000000000E+00  0.19490371469E+04  0.19490371469E+04  0.00000000000E+00 0.  1.
          1   -1    0    0  501    0  0.00000000000E+00 -0.00000000000E+00 -0.16975165005E+04  0.16975165005E+04  0.00000000000E+00 0. -1.
        -24    2    1    2    0    0  0.16082460935E+04 -0.35237893747E+03 -0.33062824283E+03  0.16811487581E+04  0.79496534954E+02 0.  0.
        254    2    1    2    0    0 -0.16082460935E+04  0.35237893747E+03  0.58214888926E+03  0.19654048892E+04  0.90182738719E+03 0.  0.
         23    2    4    4    0    0 -0.37100127509E+03 -0.12732010442E+03 -0.17044566229E+03  0.43715104480E+03  0.90537048028E+02 0.  0.
         23    2    4    4    0    0 -0.12372448185E+04  0.47969904189E+03  0.75259455155E+03  0.15282538444E+04  0.90968908732E+02 0.  0.
          3    1    3    3  502    0  0.66111810608E+03 -0.12318680102E+03 -0.16855353414E+03  0.69329822732E+03  0.00000000000E+00 0. -1.
         -4    1    3    3    0  502  0.94712798746E+03 -0.22919213645E+03 -0.16207470869E+03  0.98785053082E+03  0.00000000000E+00 0.  1.
         13    1    5    5    0    0 -0.37348114090E+03 -0.13273555631E+03 -0.16962905899E+03  0.43113908217E+03  0.00000000000E+00 0. -1.
        -13    1    5    5    0    0  0.24798658138E+01  0.54154518947E+01 -0.81660330174E+00  0.60119626272E+01  0.00000000000E+00 0.  1.
          1    1    6    6  503    0 -0.11237910334E+04  0.43472080146E+03  0.65161645010E+03  0.13698512547E+04  0.00000000000E+00 0. -1.
         -1    1    6    6    0  503 -0.11345378510E+03  0.44978240431E+02  0.10097810145E+03  0.15840258975E+03  0.00000000000E+00 0.  1.
<mgrwt>
<rscale>  0 0.36378690E+04</rscale>
<asrwt>0</asrwt>
<pdfrwt beam="1">  1        1 0.26115638E+00 0.36378690E+04</pdfrwt>
<pdfrwt beam="2">  1       -2 0.29985187E+00 0.36378690E+04</pdfrwt>
<totfact> 0.10797555E-01</totfact>
</mgrwt>
</event>
<event>
12    5  0.5041746E-008  0.2966479E+04  0.7818608E-02  0.8253368E-01
          1   -1    0    0  501    0  0.00000000000E+00  0.00000000000E+00  0.16356012301E+04  0.16356012301E+04  0.00000000000E+00 0. -1.
         -2   -1    0    0    0  501 -0.00000000000E+00 -0.00000000000E+00 -0.13450705902E+04  0.13450705902E+04  0.00000000000E+00 0.  1.
        -24    2    1    2    0    0  0.90709308656E+03  0.31435954575E+03 -0.81401819316E+03  0.12610859061E+04  0.77924657236E+02 0.  0.
        254    2    1    2    0    0 -0.90709308656E+03 -0.31435954575E+03  0.11045488331E+04  0.17195859141E+04  0.90294396266E+03 0.  0.
         23    2    4    4    0    0 -0.10772529778E+04 -0.25952732001E+03  0.98976286961E+03  0.14886438158E+04  0.92744079430E+02 0.  0.
         23    2    4    4    0    0  0.17015989126E+03 -0.54832225744E+02  0.11478596345E+03  0.23094209829E+03  0.90539901604E+02 0.  0.
          3    1    3    3  502    0  0.47362624695E+02  0.35415895045E-01 -0.48506500828E+02  0.67794543253E+02  0.00000000000E+00 0. -1.
         -2    1    3    3    0  502  0.85973046186E+03  0.31432412986E+03 -0.76551169233E+03  0.11932913629E+04  0.00000000000E+00 0.  1.
         13    1    5    5    0    0 -0.14249397502E+03 -0.67005215541E+02  0.14747306092E+03  0.21573719087E+03  0.00000000000E+00 0. -1.
        -13    1    5    5    0    0 -0.93475900280E+03 -0.19252210447E+03  0.84228980870E+03  0.12729066250E+04  0.00000000000E+00 0.  1.
          4    1    6    6  503    0 -0.56477955821E+01  0.57529173009E+01  0.21374904757E+02  0.22844697542E+02  0.00000000000E+00 0. -1.
         -4    1    6    6    0  503  0.17580768684E+03 -0.60585143044E+02  0.93411058690E+02  0.20809740075E+03  0.00000000000E+00 0.  1.
<mgrwt>
<rscale>  0 0.29664788E+04</rscale>
<asrwt>0</asrwt>
<pdfrwt beam="1">  1        1 0.25163096E+00 0.29664788E+04</pdfrwt>
<pdfrwt beam="2">  1       -2 0.20693394E+00 0.29664788E+04</pdfrwt>
<totfact> 0.47403722E-01</totfact>
</mgrwt>
</event>
<event>
12    5  0.5041746E-008  0.1263937E+04  0.7818608E-02  0.9058662E-01
          1   -1    0    0  501    0  0.00000000000E+00  0.00000000000E+00  0.11316424992E+04  0.11316424992E+04  0.00000000000E+00 0. -1.
         -2   -1    0    0    0  501 -0.00000000000E+00 -0.00000000000E+00 -0.35292459625E+03  0.35292459625E+03  0.00000000000E+00 0.  1.
        -24    2    1    2    0    0  0.59787551722E+02 -0.88720399239E+02 -0.13954382826E+03  0.19255623701E+03  0.78482888732E+02 0.  0.
        254    2    1    2    0    0 -0.59787551722E+02  0.88720399239E+02  0.91826173126E+03  0.12920108585E+04  0.90257497791E+03 0.  0.
         23    2    4    4    0    0 -0.38881700734E+03 -0.20571116949E+03  0.55528973949E+03  0.71420872041E+03  0.90838599045E+02 0.  0.
         23    2    4    4    0    0  0.32902945562E+03  0.29443156873E+03  0.36297199177E+03  0.57780213807E+03  0.84594991675E+02 0.  0.
          3    1    3    3  502    0  0.33558065413E+02 -0.11824204670E+02 -0.57732586009E+01  0.36045611178E+02  0.00000000000E+00 0. -1.
         -2    1    3    3    0  502  0.26229486310E+02 -0.76896194569E+02 -0.13377056966E+03  0.15651062583E+03  0.00000000000E+00 0.  1.
         13    1    5    5    0    0 -0.30002746651E+03 -0.14792035296E+03  0.47644630897E+03  0.58214946260E+03  0.00000000000E+00 0. -1.
        -13    1    5    5    0    0 -0.88789540833E+02 -0.57790816531E+02  0.78843430528E+02  0.13205925781E+03  0.00000000000E+00 0.  1.
          2    1    6    6  503    0  0.30225067770E+03  0.23163837245E+03  0.29778798291E+03  0.48341440869E+03  0.00000000000E+00 0. -1.
         -2    1    6    6    0  503  0.26778777915E+02  0.62793196288E+02  0.65184008861E+02  0.94387729382E+02  0.00000000000E+00 0.  1.
<mgrwt>
<rscale>  0 0.12639375E+04</rscale>
<asrwt>0</asrwt>
<pdfrwt beam="1">  1        1 0.17409884E+00 0.12639375E+04</pdfrwt>
<pdfrwt beam="2">  1       -2 0.54296092E-01 0.12639375E+04</pdfrwt>
<totfact> 0.33114755E+01</totfact>
</mgrwt>
</event>
<event>
12    5  0.5041746E-008  0.2921259E+04  0.7818608E-02  0.8266580E-01
         -2   -1    0    0    0  501 -0.00000000000E+00  0.00000000000E+00  0.89731344934E+03  0.89731344934E+03  0.00000000000E+00 0.  1.
          1   -1    0    0  501    0  0.00000000000E+00 -0.00000000000E+00 -0.23775852066E+04  0.23775852066E+04  0.00000000000E+00 0. -1.
        -24    2    1    2    0    0  0.97240700669E+03 -0.56144329760E+03  0.10885673260E+03  0.11305734994E+04  0.74516348522E+02 0.  0.
        254    2    1    2    0    0 -0.97240700669E+03  0.56144329760E+03 -0.15891284898E+04  0.21443251565E+04  0.90111434159E+03 0.  0.
         23    2    4    4    0    0  0.92388535000E+02  0.46897266276E+02 -0.55328190621E+03  0.56959568583E+03  0.87082619352E+02 0.  0.
         23    2    4    4    0    0 -0.10647955417E+04  0.51454603132E+03 -0.10358465836E+04  0.15747294707E+04  0.90816282165E+02 0.  0.
          1    1    3    3  502    0  0.25401328375E+03 -0.14501560623E+03 -0.43779956033E+01  0.29252596674E+03  0.00000000000E+00 0. -1.
         -2    1    3    3    0  502  0.71839372294E+03 -0.41642769137E+03  0.11323472820E+03  0.83804753264E+03  0.00000000000E+00 0.  1.
         13    1    5    5    0    0  0.71456905990E+02 -0.99183701391E+01 -0.35579628873E+03  0.36303644797E+03  0.00000000000E+00 0. -1.
        -13    1    5    5    0    0  0.20931629009E+02  0.56815636415E+02 -0.19748561748E+03  0.20655923786E+03  0.00000000000E+00 0.  1.
          2    1    6    6  503    0 -0.96315567629E+03  0.44002510896E+03 -0.94621761352E+03  0.14200770139E+04  0.00000000000E+00 0. -1.
         -2    1    6    6    0  503 -0.10163986540E+03  0.74520922359E+02 -0.89628970096E+02  0.15465245678E+03  0.00000000000E+00 0.  1.
<mgrwt>
<rscale>  0 0.29212594E+04</rscale>
<asrwt>0</asrwt>
<pdfrwt beam="1">  1        1 0.36578233E+00 0.29212594E+04</pdfrwt>
<pdfrwt beam="2">  1       -2 0.13804822E+00 0.29212594E+04</pdfrwt>
<totfact> 0.46200276E-01</totfact>
</mgrwt>
</event>
<event>
12    5  0.5041746E-008  0.1245426E+04  0.7818608E-02  0.9073999E-01
         -2   -1    0    0    0  501 -0.00000000000E+00  0.00000000000E+00  0.10353083973E+04  0.10353083973E+04  0.00000000000E+00 0.  1.
          1   -1    0    0  501    0  0.00000000000E+00 -0.00000000000E+00 -0.37454661275E+03  0.37454661275E+03  0.00000000000E+00 0. -1.
        -24    2    1    2    0    0 -0.99439173729E+02 -0.26994074671E+03  0.18961206915E+03  0.35338164591E+03  0.78547405381E+02 0.  0.
        254    2    1    2    0    0  0.99439173729E+02  0.26994074671E+03  0.47114971539E+03  0.10564733641E+04  0.90077619796E+03 0.  0.
         23    2    4    4    0    0 -0.23954405477E+03 -0.17458743204E+03  0.36671464305E+03  0.48044022013E+03  0.92092616926E+02 0.  0.
         23    2    4    4    0    0  0.33898322850E+03  0.44452817875E+03  0.10443507235E+03  0.57603314400E+03  0.91610958663E+02 0.  0.
          3    1    3    3  502    0 -0.23370993385E+02 -0.10504169646E+02  0.29882492863E+02  0.39363743362E+02  0.00000000000E+00 0. -1.
         -4    1    3    3    0  502 -0.76068180344E+02 -0.25943657706E+03  0.15972957629E+03  0.31401790255E+03  0.00000000000E+00 0.  1.
         13    1    5    5    0    0 -0.10463718929E+03 -0.40087800042E+02  0.86282169156E+02  0.14142342737E+03  0.00000000000E+00 0.  1.
        -13    1    5    5    0    0 -0.13490686548E+03 -0.13449963200E+03  0.28043247389E+03  0.33901679276E+03  0.00000000000E+00 0. -1.
          3    1    6    6  503    0  0.32253473570E+03  0.38357487452E+03  0.10850429310E+03  0.51276848744E+03  0.00000000000E+00 0. -1.
         -3    1    6    6    0  503  0.16448492801E+02  0.60953304229E+02 -0.40692207517E+01  0.63264656558E+02  0.00000000000E+00 0.  1.
<mgrwt>
<rscale>  0 0.12454256E+04</rscale>
<asrwt>0</asrwt>
<pdfrwt beam="1">  1        1 0.57622556E-01 0.12454256E+04</pdfrwt>
<pdfrwt beam="2">  1       -2 0.15927821E+00 0.12454256E+04</pdfrwt>
<totfact> 0.14372727E+01</totfact>
</mgrwt>
</event>
<event>
12    5  0.5041746E-008  0.2476293E+04  0.7818608E-02  0.8411480E-01
          1   -1    0    0  501    0  0.00000000000E+00  0.00000000000E+00  0.18501828744E+04  0.18501828744E+04  0.00000000000E+00 0. -1.
         -2   -1    0    0    0  501 -0.00000000000E+00 -0.00000000000E+00 -0.82857071375E+03  0.82857071375E+03  0.00000000000E+00 0.  1.
        -24    2    1    2    0    0 -0.67489879330E+02 -0.10644628494E+04  0.33073614704E+03  0.11196446515E+04  0.81127708514E+02 0.  0.
        254    2    1    2    0    0  0.67489879330E+02  0.10644628494E+04  0.69087601358E+03  0.15591089366E+04  0.90325797461E+03 0.  0.
         23    2    4    4    0    0  0.27450497233E+03  0.38416576693E+03 -0.10042581743E+03  0.49128734033E+03  0.91332303398E+02 0.  0.
         23    2    4    4    0    0 -0.20701509300E+03  0.68029708245E+03  0.79130183100E+03  0.10678215963E+04  0.91787824398E+02 0.  0.
          3    1    3    3  502    0 -0.43116652993E+01 -0.23872995034E+03  0.10806331208E+03  0.26208445025E+03  0.00000000000E+00 0. -1.
         -4    1    3    3    0  502 -0.63178214030E+02 -0.82573289904E+03  0.22267283496E+03  0.85756020122E+03  0.00000000000E+00 0.  1.
         13    1    5    5    0    0  0.16236268510E+03  0.22508329214E+03 -0.10464614993E+03  0.29660570900E+03  0.00000000000E+00 0.  1.
        -13    1    5    5    0    0  0.11214228723E+03  0.15908247479E+03  0.42203325075E+01  0.19468163133E+03  0.00000000000E+00 0. -1.
          4    1    6    6  503    0 -0.39941750237E+02  0.60414887723E+02  0.55043062186E+02  0.90967251060E+02  0.00000000000E+00 0. -1.
         -4    1    6    6    0  503 -0.16707334276E+03  0.61988219472E+03  0.73625876882E+03  0.97685434526E+03  0.00000000000E+00 0.  1.
<mgrwt>
<rscale>  0 0.24762935E+04</rscale>
<asrwt>0</asrwt>
<pdfrwt beam="1">  1        1 0.28464352E+00 0.24762935E+04</pdfrwt>
<pdfrwt beam="2">  1       -2 0.12747242E+00 0.24762935E+04</pdfrwt>
<totfact> 0.13444788E+00</totfact>
</mgrwt>
</event>
<event>
12    5  0.5041746E-008  0.2138455E+04  0.7818608E-02  0.8544490E-01
          1   -1    0    0  501    0  0.00000000000E+00  0.00000000000E+00  0.10111586609E+04  0.10111586609E+04  0.00000000000E+00 0. -1.
         -2   -1    0    0    0  501 -0.00000000000E+00 -0.00000000000E+00 -0.11306310733E+04  0.11306310733E+04  0.00000000000E+00 0.  1.
        -24    2    1    2    0    0  0.80882453960E+03 -0.29224040894E+02 -0.39129626611E+03  0.90262757235E+03  0.81071487448E+02 0.  0.
        254    2    1    2    0    0 -0.80882453960E+03  0.29224040894E+02  0.27182385372E+03  0.12391621618E+04  0.89809992507E+03 0.  0.
         23    2    4    4    0    0 -0.62749363567E+02 -0.17520894251E+03 -0.23469720242E+03  0.31027224167E+03  0.80934732718E+02 0.  0.
         23    2    4    4    0    0 -0.74607517603E+03  0.20443298340E+03  0.50652105615E+03  0.92888992015E+03  0.88610893529E+02 0.  0.
          1    1    3    3  502    0  0.53578654551E+02 -0.20020745602E+02 -0.17004410068E+02  0.59671202768E+02  0.00000000000E+00 0. -1.
         -2    1    3    3    0  502  0.75524588505E+03 -0.92032952928E+01 -0.37429185604E+03  0.84295636958E+03  0.00000000000E+00 0.  1.
         13    1    5    5    0    0 -0.73859901487E+02 -0.13141328550E+03 -0.14174899679E+03  0.20692393468E+03  0.00000000000E+00 0.  1.
        -13    1    5    5    0    0  0.11110537920E+02 -0.43795657005E+02 -0.92948205635E+02  0.10334830698E+03  0.00000000000E+00 0. -1.
          1    1    6    6  503    0 -0.49990636348E+03  0.10055965070E+03  0.30442133180E+03  0.59387790231E+03  0.00000000000E+00 0. -1.
         -1    1    6    6    0  503 -0.24616881255E+03  0.10387333270E+03  0.20209972435E+03  0.33501201784E+03  0.00000000000E+00 0.  1.
<mgrwt>
<rscale>  0 0.21384550E+04</rscale>
<asrwt>0</asrwt>
<pdfrwt beam="1">  1        1 0.15556287E+00 0.21384550E+04</pdfrwt>
<pdfrwt beam="2">  1       -2 0.17394324E+00 0.21384550E+04</pdfrwt>
<totfact> 0.23818846E+00</totfact>
</mgrwt>
</event>
<event>
12    5  0.5041746E-008  0.3202842E+04  0.7818608E-02  0.8188067E-01
          1   -1    0    0  501    0  0.00000000000E+00  0.00000000000E+00  0.16523240372E+04  0.16523240372E+04  0.00000000000E+00 0. -1.
         -2   -1    0    0    0  501 -0.00000000000E+00 -0.00000000000E+00 -0.15520866136E+04  0.15520866136E+04  0.00000000000E+00 0.  1.
        -24    2    1    2    0    0  0.10727066388E+04 -0.84507619266E+03 -0.41363222685E+03  0.14288653284E+04  0.75572505003E+02 0.  0.
        254    2    1    2    0    0 -0.10727066388E+04  0.84507619266E+03  0.51386965044E+03  0.17755453224E+04  0.10117538584E+04 0.  0.
         23    2    4    4    0    0 -0.10067324386E+04  0.23723425706E+03  0.12577702360E+03  0.10457265150E+04  0.89071818801E+02 0.  0.
         23    2    4    4    0    0 -0.65974200131E+02  0.60784193560E+03  0.38809262683E+03  0.72981880735E+03  0.90527293123E+02 0.  0.
          3    1    3    3  502    0  0.13830371795E+03 -0.10523629034E+03 -0.26919370282E+02  0.17586144461E+03  0.00000000000E+00 0. -1.
         -4    1    3    3    0  502  0.93440292081E+03 -0.73983990231E+03 -0.38671285657E+03  0.12530038838E+04  0.00000000000E+00 0.  1.
         13    1    5    5    0    0 -0.99698484706E+03  0.22553882222E+03  0.11906755939E+03  0.10290887373E+04  0.00000000000E+00 0. -1.
        -13    1    5    5    0    0 -0.97475915626E+01  0.11695434836E+02  0.67094642189E+01  0.16637777717E+02  0.00000000000E+00 0.  1.
          3    1    6    6  503    0 -0.31131984784E+01  0.37963960143E+03  0.26529088221E+03  0.46315782533E+03  0.00000000000E+00 0. -1.
         -3    1    6    6    0  503 -0.62861001652E+02  0.22820233417E+03  0.12280174462E+03  0.26666098201E+03  0.00000000000E+00 0.  1.
<mgrwt>
<rscale>  0 0.32028425E+04</rscale>
<asrwt>0</asrwt>
<pdfrwt beam="1">  1        1 0.25420370E+00 0.32028425E+04</pdfrwt>
<pdfrwt beam="2">  1       -2 0.23878256E+00 0.32028425E+04</pdfrwt>
<totfact> 0.28459041E-01</totfact>
</mgrwt>
</event>
<event>
12    5  0.5041746E-008  0.1435679E+04  0.7818608E-02  0.8928389E-01
         -2   -1    0    0    0  501 -0.00000000000E+00  0.00000000000E+00  0.40510053707E+03  0.40510053707E+03  0.00000000000E+00 0.  1.
          1   -1    0    0  501    0  0.00000000000E+00 -0.00000000000E+00 -0.12720144298E+04  0.12720144298E+04  0.00000000000E+00 0. -1.
        -24    2    1    2    0    0  0.37019491231E+03  0.81788587917E+02 -0.48904995127E+03  0.62406466975E+03  0.80951905353E+02 0.  0.
        254    2    1    2    0    0 -0.37019491231E+03 -0.81788587917E+02 -0.37786394148E+03  0.10530502971E+04  0.90686279217E+03 0.  0.
         23    2    4    4    0    0 -0.34405869495E+03  0.29437049283E+03  0.62664403471E+02  0.46613182034E+03  0.91223208958E+02 0.  0.
         23    2    4    4    0    0 -0.26136217361E+02 -0.37615908075E+03 -0.44052834495E+03  0.58691847680E+03  0.90715598541E+02 0.  0.
          3    1    3    3  502    0  0.19071377813E+03  0.23053651286E+01 -0.22299551866E+03  0.29343493524E+03  0.00000000000E+00 0. -1.
         -4    1    3    3    0  502  0.17948113419E+03  0.79483222789E+02 -0.26605443261E+03  0.33062973452E+03  0.00000000000E+00 0.  1.
         13    1    5    5    0    0 -0.34105460637E+03  0.27059122930E+03  0.70252144986E+02  0.44099118106E+03  0.00000000000E+00 0. -1.
        -13    1    5    5    0    0 -0.30040885867E+01  0.23779263531E+02 -0.75877415145E+01  0.25140639284E+02  0.00000000000E+00 0.  1.
          4    1    6    6  503    0 -0.80654262089E+00  0.35219124344E+01 -0.17741673139E+02  0.18105837290E+02  0.00000000000E+00 0.  1.
         -4    1    6    6    0  503 -0.25329674740E+02 -0.37968099318E+03 -0.42278667181E+03  0.56881263951E+03  0.00000000000E+00 0. -1.
<mgrwt>
<rscale>  0 0.14356793E+04</rscale>
<asrwt>0</asrwt>
<pdfrwt beam="1">  1        1 0.19569452E+00 0.14356793E+04</pdfrwt>
<pdfrwt beam="2">  1       -2 0.62323161E-01 0.14356793E+04</pdfrwt>
<totfact> 0.19303546E+01</totfact>
</mgrwt>
</event>
<event>
12    5  0.5041746E-008  0.1362945E+04  0.7818608E-02  0.8981086E-01
         -2   -1    0    0    0  501 -0.00000000000E+00  0.00000000000E+00  0.57168119201E+03  0.57168119201E+03  0.00000000000E+00 0.  1.
          1   -1    0    0  501    0  0.00000000000E+00 -0.00000000000E+00 -0.81234935588E+03  0.81234935588E+03  0.00000000000E+00 0. -1.
        -24    2    1    2    0    0  0.27002802336E+03 -0.25154099782E+03  0.38750773911E+02  0.37999896871E+03  0.81912067207E+02 0.  0.
        254    2    1    2    0    0 -0.27002802336E+03  0.25154099782E+03 -0.27941893778E+03  0.10040315792E+04  0.89096378278E+03 0.  0.
         23    2    4    4    0    0 -0.19218366530E+03 -0.10395341112E+03 -0.51080075836E+03  0.56312209790E+03  0.91914142046E+02 0.  0.
         23    2    4    4    0    0 -0.77844358056E+02  0.35549440894E+03  0.23138182058E+03  0.44090948129E+03  0.91801987564E+02 0.  0.
          1    1    3    3  502    0  0.16812065834E+01 -0.84811780217E+01 -0.11585080984E+02  0.14455827116E+02  0.00000000000E+00 0. -1.
         -2    1    3    3    0  502  0.26834681678E+03 -0.24305981980E+03  0.50335854895E+02  0.36554314159E+03  0.00000000000E+00 0.  1.
         13    1    5    5    0    0 -0.16169132038E+03 -0.43221870536E+02 -0.33102415543E+03  0.37093018839E+03  0.00000000000E+00 0.  1.
        -13    1    5    5    0    0 -0.30492344922E+02 -0.60731540581E+02 -0.17977660293E+03  0.19219190951E+03  0.00000000000E+00 0. -1.
          4    1    6    6  503    0 -0.58531965953E+02  0.13376395110E+03  0.51802201226E+02  0.15492660748E+03  0.00000000000E+00 0. -1.
         -4    1    6    6    0  503 -0.19312392103E+02  0.22173045784E+03  0.17957961936E+03  0.28598287381E+03  0.00000000000E+00 0.  1.
<mgrwt>
<rscale>  0 0.13629451E+04</rscale>
<asrwt>0</asrwt>
<pdfrwt beam="1">  1        1 0.12497682E+00 0.13629451E+04</pdfrwt>
<pdfrwt beam="2">  1       -2 0.87950952E-01 0.13629451E+04</pdfrwt>
<totfact> 0.20595134E+01</totfact>
</mgrwt>
</event>
<event>
12    5  0.5041746E-008  0.1205661E+04  0.7818608E-02  0.9107915E-01
          1   -1    0    0  501    0  0.00000000000E+00  0.00000000000E+00  0.10869885291E+04  0.10869885291E+04  0.00000000000E+00 0. -1.
         -2   -1    0    0    0  501 -0.00000000000E+00 -0.00000000000E+00 -0.33432264209E+03  0.33432264209E+03  0.00000000000E+00 0.  1.
        -24    2    1    2    0    0  0.11382431729E+03  0.11455778344E+02 -0.10148673703E+03  0.17203518777E+03  0.78799352632E+02 0.  0.
        254    2    1    2    0    0 -0.11382431729E+03 -0.11455778344E+02  0.85415262405E+03  0.12492759834E+04  0.90444821163E+03 0.  0.
         23    2    4    4    0    0 -0.78688735533E+01 -0.60573194886E+02  0.10204800881E+04  0.10268285106E+04  0.96260838357E+02 0.  0.
         23    2    4    4    0    0 -0.10595544374E+03  0.49117416542E+02 -0.16632746403E+03  0.22244747278E+03  0.90437692299E+02 0.  0.
          3    1    3    3  502    0  0.21219862511E+01  0.90310988610E-01  0.12121396615E+02  0.12306065075E+02  0.00000000000E+00 0. -1.
         -4    1    3    3    0  502  0.11170233104E+03  0.11365467356E+02 -0.11360813364E+03  0.15972912270E+03  0.00000000000E+00 0.  1.
         13    1    5    5    0    0  0.21396297756E+02 -0.24721756419E+02  0.83576068299E+03  0.83639995578E+03  0.00000000000E+00 0.  1.
        -13    1    5    5    0    0 -0.29265171310E+02 -0.35851438467E+02  0.18471940509E+03  0.19042855487E+03  0.00000000000E+00 0. -1.
          3    1    6    6  503    0  0.13415111972E+02  0.11226864963E+02 -0.44125519471E+02  0.47466506030E+02  0.00000000000E+00 0. -1.
         -3    1    6    6    0  503 -0.11937055571E+03  0.37890551579E+02 -0.12220194456E+03  0.17498096675E+03  0.00000000000E+00 0.  1.
<mgrwt>
<rscale>  0 0.12056614E+04</rscale>
<asrwt>0</asrwt>
<pdfrwt beam="1">  1        1 0.16722900E+00 0.12056614E+04</pdfrwt>
<pdfrwt beam="2">  1       -2 0.51434253E-01 0.12056614E+04</pdfrwt>
<totfact> 0.40173955E+01</totfact>
</mgrwt>
</event>
<event>
12    5  0.5041746E-008  0.2260386E+04  0.7818608E-02  0.8493706E-01
          1   -1    0    0  501    0  0.00000000000E+00  0.00000000000E+00  0.11413472564E+04  0.11413472564E+04  0.00000000000E+00 0. -1.
         -2   -1    0    0    0  501 -0.00000000000E+00 -0.00000000000E+00 -0.11191473661E+04  0.11191473661E+04  0.00000000000E+00 0.  1.
        -24    2    1    2    0    0  0.16934300250E+03  0.10162642869E+03  0.94002316273E+03  0.96361882423E+03  0.76894137880E+02 0.  0.
        254    2    1    2    0    0 -0.16934300250E+03 -0.10162642869E+03 -0.91782327250E+03  0.12968757983E+04  0.89469676040E+03 0.  0.
         23    2    4    4    0    0 -0.40479159451E+03  0.19779939710E+03 -0.72980216995E+03  0.86212572193E+03  0.87571209127E+02 0.  0.
         23    2    4    4    0    0  0.23544859201E+03 -0.29942582579E+03 -0.18802110254E+03  0.43475007633E+03  0.92540959763E+02 0.  0.
          1    1    3    3  502    0  0.14590310205E+03  0.97445600253E+02  0.67152874495E+03  0.69407075683E+03  0.00000000000E+00 0. -1.
         -2    1    3    3    0  502  0.23439900453E+02  0.41808284375E+01  0.26849441778E+03  0.26954806740E+03  0.00000000000E+00 0.  1.
         13    1    5    5    0    0 -0.11115577541E+03  0.20979700900E+02 -0.22673684248E+03  0.25338774634E+03  0.00000000000E+00 0.  1.
        -13    1    5    5    0    0 -0.29363581909E+03  0.17681969620E+03 -0.50306532748E+03  0.60873797560E+03  0.00000000000E+00 0. -1.
          1    1    6    6  503    0  0.17203465226E+03 -0.26778775150E+03 -0.13267887083E+03  0.34483312515E+03  0.00000000000E+00 0. -1.
         -1    1    6    6    0  503  0.63413939742E+02 -0.31638074294E+02 -0.55342231710E+02  0.89916951179E+02  0.00000000000E+00 0.  1.
<mgrwt>
<rscale>  0 0.22603856E+04</rscale>
<asrwt>0</asrwt>
<pdfrwt beam="1">  1        1 0.17559189E+00 0.22603856E+04</pdfrwt>
<pdfrwt beam="2">  1       -2 0.17217652E+00 0.22603856E+04</pdfrwt>
<totfact> 0.19318605E+00</totfact>
</mgrwt>
</event>
<event>
12    5  0.5041746E-008  0.1771624E+04  0.7818608E-02  0.8721537E-01
         -2   -1    0    0    0  501 -0.00000000000E+00  0.00000000000E+00  0.97956919701E+03  0.97956919701E+03  0.00000000000E+00 0.  1.
          1   -1    0    0  501    0  0.00000000000E+00 -0.00000000000E+00 -0.80102891099E+03  0.80102891099E+03  0.00000000000E+00 0. -1.
        -24    2    1    2    0    0  0.34006569137E+02 -0.60276862044E+03 -0.18148587889E+03  0.63546899152E+03  0.79982863278E+02 0.  0.
        254    2    1    2    0    0 -0.34006569137E+02  0.60276862044E+03  0.36002616491E+03  0.11451291165E+04  0.90399966673E+03 0.  0.
         23    2    4    4    0    0 -0.32334713805E+03  0.21185586324E+03 -0.15930930688E+03  0.42782826846E+03  0.90671349197E+02 0.  0.
         23    2    4    4    0    0  0.28934056891E+03  0.39091275720E+03  0.51933547179E+03  0.71730084801E+03  0.90996844674E+02 0.  0.
          1    1    3    3  502    0  0.20425572542E+02 -0.58371653115E+03 -0.18286603851E+03  0.61203119267E+03  0.00000000000E+00 0. -1.
         -2    1    3    3    0  502  0.13580996596E+02 -0.19052089286E+02  0.13801596165E+01  0.23437798857E+02  0.00000000000E+00 0.  1.
         13    1    5    5    0    0 -0.87118634338E+01  0.30246599048E+02 -0.26097783423E+02  0.40888233247E+02  0.00000000000E+00 0. -1.
        -13    1    5    5    0    0 -0.31463527461E+03  0.18160926419E+03 -0.13321152346E+03  0.38694003522E+03  0.00000000000E+00 0.  1.
          1    1    6    6  503    0  0.14465385250E+03  0.12138493860E+03  0.19378477645E+03  0.27057638468E+03  0.00000000000E+00 0. -1.
         -1    1    6    6    0  503  0.14468671641E+03  0.26952781860E+03  0.32555069534E+03  0.44672446333E+03  0.00000000000E+00 0.  1.
<mgrwt>
<rscale>  0 0.17716244E+04</rscale>
<asrwt>0</asrwt>
<pdfrwt beam="1">  1        1 0.12323522E+00 0.17716244E+04</pdfrwt>
<pdfrwt beam="2">  1       -2 0.15070295E+00 0.17716244E+04</pdfrwt>
<totfact> 0.54081223E+00</totfact>
</mgrwt>
</event>
<event>
12    5  0.5041746E-008  0.1389244E+04  0.7818608E-02  0.8961641E-01
          1   -1    0    0  501    0  0.00000000000E+00  0.00000000000E+00  0.15236678057E+04  0.15236678057E+04  0.00000000000E+00 0. -1.
         -2   -1    0    0    0  501 -0.00000000000E+00 -0.00000000000E+00 -0.31666996602E+03  0.31666996602E+03  0.00000000000E+00 0.  1.
        -24    2    1    2    0    0 -0.22794299651E+03  0.11257214059E+03 -0.54629251039E+02  0.27339043548E+03  0.84424396065E+02 0.  0.
        254    2    1    2    0    0  0.22794299651E+03 -0.11257214059E+03  0.12616270907E+04  0.15669473362E+04  0.89386270869E+03 0.  0.
         23    2    4    4    0    0  0.47240728524E+02 -0.48090091664E+03  0.52844087174E+03  0.72176336679E+03  0.90527480112E+02 0.  0.
         23    2    4    4    0    0  0.18070226798E+03  0.36832877605E+03  0.73318621893E+03  0.84518396940E+03  0.91948428932E+02 0.  0.
          1    1    3    3  502    0 -0.11876006467E+03  0.17025760572E+02 -0.44463193293E+02  0.12794844681E+03  0.00000000000E+00 0. -1.
         -2    1    3    3    0  502 -0.10918293184E+03  0.95546380018E+02 -0.10166057746E+02  0.14544198867E+03  0.00000000000E+00 0.  1.
         13    1    5    5    0    0 -0.15003959844E+02 -0.25932241539E+03  0.31010230395E+03  0.40452029967E+03  0.00000000000E+00 0.  1.
        -13    1    5    5    0    0  0.62244688368E+02 -0.22157850125E+03  0.21833856779E+03  0.31724306712E+03  0.00000000000E+00 0. -1.
          1    1    6    6  503    0  0.17462010687E+02  0.19786732782E+01  0.49645273456E+02  0.52663935874E+02  0.00000000000E+00 0. -1.
         -1    1    6    6    0  503  0.16324025730E+03  0.36635010277E+03  0.68354094547E+03  0.79252003352E+03  0.00000000000E+00 0.  1.
<mgrwt>
<rscale>  0 0.13892442E+04</rscale>
<asrwt>0</asrwt>
<pdfrwt beam="1">  1        1 0.23441043E+00 0.13892442E+04</pdfrwt>
<pdfrwt beam="2">  1       -2 0.48718457E-01 0.13892442E+04</pdfrwt>
<totfact> 0.21521589E+01</totfact>
</mgrwt>
</event>
<event>
12    5  0.5041746E-008  0.1362067E+04  0.7818608E-02  0.8981744E-01
          1   -1    0    0  501    0  0.00000000000E+00  0.00000000000E+00  0.49658354370E+04  0.49658354370E+04  0.00000000000E+00 0. -1.
         -2   -1    0    0    0  501 -0.00000000000E+00 -0.00000000000E+00 -0.93399479772E+02  0.93399479772E+02  0.00000000000E+00 0.  1.
        -24    2    1    2    0    0 -0.14674455435E+03  0.43990302906E+02  0.26831998652E+04  0.26887286130E+04  0.78936220603E+02 0.  0.
        254    2    1    2    0    0  0.14674455435E+03 -0.43990302906E+02  0.21892360920E+04  0.23705063037E+04  0.89614527755E+03 0.  0.
         23    2    4    4    0    0 -0.32586131272E+02 -0.44367890784E+03  0.94803938123E+03  0.10510938895E+04  0.90038141775E+02 0.  0.
         23    2    4    4    0    0  0.17933068562E+03  0.39968860494E+03  0.12411967108E+04  0.13194124142E+04  0.91484251249E+02 0.  0.
          1    1    3    3  502    0 -0.57301871622E+02  0.50820673514E+02  0.89126481409E+03  0.89454972706E+03  0.00000000000E+00 0. -1.
         -2    1    3    3    0  502 -0.89442682728E+02 -0.68303706086E+01  0.17919350511E+04  0.17941788860E+04  0.00000000000E+00 0.  1.
         13    1    5    5    0    0  0.10011434538E+02 -0.14242907613E+03  0.22283193463E+03  0.26465135866E+03  0.00000000000E+00 0. -1.
        -13    1    5    5    0    0 -0.42597565810E+02 -0.30124983172E+03  0.72520744660E+03  0.78644253085E+03  0.00000000000E+00 0.  1.
          3    1    6    6  503    0  0.94506480891E+02  0.29404524269E+03  0.93173305929E+03  0.98159083811E+03  0.00000000000E+00 0. -1.
         -3    1    6    6    0  503  0.84824204731E+02  0.10564336225E+03  0.30946365148E+03  0.33782157611E+03  0.00000000000E+00 0.  1.
<mgrwt>
<rscale>  0 0.13620667E+04</rscale>
<asrwt>0</asrwt>
<pdfrwt beam="1">  1        1 0.76397448E+00 0.13620667E+04</pdfrwt>
<pdfrwt beam="2">  1       -2 0.14369155E-01 0.13620667E+04</pdfrwt>
<totfact> 0.32683769E-01</totfact>
</mgrwt>
</event>
<event>
12    5  0.5041746E-008  0.1449308E+04  0.7818608E-02  0.8918880E-01
         -2   -1    0    0    0  501 -0.00000000000E+00  0.00000000000E+00  0.11335917482E+04  0.11335917482E+04  0.00000000000E+00 0.  1.
          1   -1    0    0  501    0  0.00000000000E+00 -0.00000000000E+00 -0.46323852524E+03  0.46323852524E+03  0.00000000000E+00 0. -1.
        -24    2    1    2    0    0 -0.21164716033E+03  0.38000982426E+03  0.16689720413E+03  0.47249986847E+03  0.78736661993E+02 0.  0.
        254    2    1    2    0    0  0.21164716033E+03 -0.38000982426E+03  0.50345601879E+03  0.11243304049E+04  0.90633818722E+03 0.  0.
         23    2    4    4    0    0  0.92491453274E+02  0.25206844772E+03  0.36058515426E+03  0.45884435347E+03  0.91778624809E+02 0.  0.
         23    2    4    4    0    0  0.11915570706E+03 -0.63207827198E+03  0.14287086453E+03  0.66548605147E+03  0.93480352699E+02 0.  0.
          1    1    3    3  502    0 -0.75412784429E+02  0.78743211078E+02  0.20679643019E+02  0.11097400138E+03  0.00000000000E+00 0. -1.
         -2    1    3    3    0  502 -0.13623437590E+03  0.30126661319E+03  0.14621756112E+03  0.36152586709E+03  0.00000000000E+00 0.  1.
         13    1    5    5    0    0  0.10281126530E+03  0.24397163109E+03  0.31537092910E+03  0.41176587519E+03  0.00000000000E+00 0. -1.
        -13    1    5    5    0    0 -0.10319812027E+02  0.80968166217E+01  0.45214225159E+02  0.47078478272E+02  0.00000000000E+00 0.  1.
          1    1    6    6  503    0  0.11791481764E+03 -0.63548550352E+03  0.14235000159E+03  0.66182267441E+03  0.00000000000E+00 0. -1.
         -1    1    6    6    0  503  0.12408894158E+01  0.34072315426E+01  0.52086293829E+00  0.36633770660E+01  0.00000000000E+00 0.  1.
<mgrwt>
<rscale>  0 0.14493079E+04</rscale>
<asrwt>0</asrwt>
<pdfrwt beam="1">  1        1 0.71267466E-01 0.14493079E+04</pdfrwt>
<pdfrwt beam="2">  1       -2 0.17439873E+00 0.14493079E+04</pdfrwt>
<totfact> 0.82848294E+00</totfact>
</mgrwt>
</event>
<event>
12    5  0.5041746E-008  0.1912695E+04  0.7818608E-02  0.8648563E-01
          1   -1    0    0  501    0  0.00000000000E+00  0.00000000000E+00  0.10572208835E+04  0.10572208835E+04  0.00000000000E+00 0. -1.
         -2   -1    0    0    0  501 -0.00000000000E+00 -0.00000000000E+00 -0.86509921316E+03  0.86509921316E+03  0.00000000000E+00 0.  1.
        -24    2    1    2    0    0  0.18400354142E+03  0.48354543190E+03 -0.46028076338E+03  0.69626929221E+03  0.72519364140E+02 0.  0.
        254    2    1    2    0    0 -0.18400354142E+03 -0.48354543190E+03  0.65240243370E+03  0.12260508044E+04  0.89994341577E+03 0.  0.
         23    2    4    4    0    0  0.50834029701E+01  0.20492763346E+03  0.40767362161E+03  0.46501904265E+03  0.89575400278E+02 0.  0.
         23    2    4    4    0    0 -0.18908694439E+03 -0.68847306536E+03  0.24472881209E+03  0.76103176178E+03  0.97612072573E+02 0.  0.
          3    1    3    3  502    0 -0.66035424293E+00  0.10285099336E+02  0.63401527777E+00  0.10325759607E+02  0.00000000000E+00 0. -1.
         -4    1    3    3    0  502  0.18466389566E+03  0.47326033256E+03 -0.46091477866E+03  0.68594353261E+03  0.00000000000E+00 0.  1.
         13    1    5    5    0    0 -0.29327110054E+02  0.13608383382E+03  0.31611382490E+03  0.34540822154E+03  0.00000000000E+00 0.  1.
        -13    1    5    5    0    0  0.34410513024E+02  0.68843799640E+02  0.91559796705E+02  0.11961082112E+03  0.00000000000E+00 0. -1.
          4    1    6    6  503    0 -0.18775568583E+02 -0.24071436212E+03  0.88249116726E+02  0.25706775899E+03  0.00000000000E+00 0. -1.
         -4    1    6    6    0  503 -0.17031137581E+03 -0.44775870324E+03  0.15647969537E+03  0.50396400280E+03  0.00000000000E+00 0.  1.
<mgrwt>
<rscale>  0 0.19126954E+04</rscale>
<asrwt>0</asrwt>
<pdfrwt beam="1">  1        1 0.16264937E+00 0.19126954E+04</pdfrwt>
<pdfrwt beam="2">  1       -2 0.13309219E+00 0.19126954E+04</pdfrwt>
<totfact> 0.45807458E+00</totfact>
</mgrwt>
</event>
<event>
12    5  0.5041746E-008  0.1051063E+04  0.7818608E-02  0.9254247E-01
         -2   -1    0    0    0  501 -0.00000000000E+00  0.00000000000E+00  0.49649875959E+03  0.49649875959E+03  0.00000000000E+00 0.  1.
          1   -1    0    0  501    0  0.00000000000E+00 -0.00000000000E+00 -0.55626241400E+03  0.55626241400E+03  0.00000000000E+00 0. -1.
        -24    2    1    2    0    0  0.74864583407E+01  0.27109598532E+00  0.11149592905E+03  0.13854239188E+03  0.81893416117E+02 0.  0.
        254    2    1    2    0    0 -0.74864583407E+01 -0.27109598532E+00 -0.17125958346E+03  0.91421878170E+03  0.89800334929E+03 0.  0.
         23    2    4    4    0    0  0.33439198772E+03  0.21788818204E+03  0.96406873772E+02  0.41982549949E+03  0.87555144832E+02 0.  0.
         23    2    4    4    0    0 -0.34187844607E+03 -0.21815927802E+03 -0.26766645723E+03  0.49439328221E+03  0.91132006987E+02 0.  0.
          1    1    3    3  502    0  0.44436697517E+02  0.48328223961E+01  0.66735961419E+02  0.80322255976E+02  0.00000000000E+00 0. -1.
         -4    1    3    3    0  502 -0.36950239176E+02 -0.45617264108E+01  0.44759967630E+02  0.58220135909E+02  0.00000000000E+00 0.  1.
         13    1    5    5    0    0  0.12106162015E+03  0.10184089449E+03  0.77707190808E+02  0.17625518763E+03  0.00000000000E+00 0.  1.
        -13    1    5    5    0    0  0.21333036757E+03  0.11604728755E+03  0.18699682965E+02  0.24357031186E+03  0.00000000000E+00 0. -1.
          4    1    6    6  503    0 -0.25965710510E+03 -0.15734324912E+03 -0.15047534697E+03  0.33885327255E+03  0.00000000000E+00 0. -1.
         -4    1    6    6    0  503 -0.82221340970E+02 -0.60816028907E+02 -0.11719111026E+03  0.15554000966E+03  0.00000000000E+00 0.  1.
<mgrwt>
<rscale>  0 0.10510635E+04</rscale>
<asrwt>0</asrwt>
<pdfrwt beam="1">  1        1 0.85578832E-01 0.10510635E+04</pdfrwt>
<pdfrwt beam="2">  1       -2 0.76384425E-01 0.10510635E+04</pdfrwt>
<totfact> 0.51214330E+01</totfact>
</mgrwt>
</event>
<event>
12    5  0.5041746E-008  0.2205007E+04  0.7818608E-02  0.8516347E-01
          1   -1    0    0  501    0  0.00000000000E+00  0.00000000000E+00  0.22019113015E+04  0.22019113015E+04  0.00000000000E+00 0. -1.
         -2   -1    0    0    0  501 -0.00000000000E+00 -0.00000000000E+00 -0.55202673065E+03  0.55202673065E+03  0.00000000000E+00 0.  1.
        -24    2    1    2    0    0  0.58515421663E+03  0.61345716626E+03  0.11122170413E+04  0.14006841690E+04  0.78448978563E+02 0.  0.
        254    2    1    2    0    0 -0.58515421663E+03 -0.61345716626E+03  0.53766752957E+03  0.13532538632E+04  0.90745495413E+03 0.  0.
         23    2    4    4    0    0 -0.43238388395E+03 -0.84087334874E+03  0.36748911948E+03  0.10184946388E+04  0.90880496165E+02 0.  0.
         23    2    4    4    0    0 -0.15277033268E+03  0.22741618248E+03  0.17017841009E+03  0.33475922439E+03  0.89700348092E+02 0.  0.
          1    1    3    3  502    0  0.35646675948E+03  0.40793752169E+03  0.75707572567E+03  0.93093782102E+03  0.00000000000E+00 0. -1.
         -2    1    3    3    0  502  0.22868745715E+03  0.20551964457E+03  0.35514131561E+03  0.46974634796E+03  0.00000000000E+00 0.  1.
         13    1    5    5    0    0 -0.10969533038E+03 -0.16200267836E+03  0.10688108826E+03  0.22293833302E+03  0.00000000000E+00 0. -1.
        -13    1    5    5    0    0 -0.32268855357E+03 -0.67887067038E+03  0.26060803121E+03  0.79555630576E+03  0.00000000000E+00 0.  1.
          4    1    6    6  503    0  0.18799906497E+00  0.63430947588E+02  0.46649326952E+02  0.78738047732E+02  0.00000000000E+00 0. -1.
         -4    1    6    6    0  503 -0.15295833175E+03  0.16398523490E+03  0.12352908314E+03  0.25602117666E+03  0.00000000000E+00 0.  1.
<mgrwt>
<rscale>  0 0.22050069E+04</rscale>
<asrwt>0</asrwt>
<pdfrwt beam="1">  1        1 0.33875558E+00 0.22050069E+04</pdfrwt>
<pdfrwt beam="2">  1       -2 0.84927190E-01 0.22050069E+04</pdfrwt>
<totfact> 0.20993651E+00</totfact>
</mgrwt>
</event>
<event>
12    5  0.5041746E-008  0.2592543E+04  0.7818608E-02  0.8370738E-01
         -2   -1    0    0    0  501 -0.00000000000E+00  0.00000000000E+00  0.54365659403E+03  0.54365659403E+03  0.00000000000E+00 0.  1.
          1   -1    0    0  501    0  0.00000000000E+00 -0.00000000000E+00 -0.30907750748E+04  0.30907750748E+04  0.00000000000E+00 0. -1.
        -24    2    1    2    0    0 -0.68070510832E+03 -0.14015285630E+03  0.14144806974E+03  0.71400810942E+03  0.82448506680E+02 0.  0.
        254    2    1    2    0    0  0.68070510832E+03  0.14015285630E+03 -0.26885665505E+04  0.29204235594E+04  0.90414678133E+03 0.  0.
         23    2    4    4    0    0  0.78009344163E+03  0.20270072366E+03 -0.13613210711E+04  0.15848344525E+04  0.94190350536E+02 0.  0.
         23    2    4    4    0    0 -0.99388333308E+02 -0.62547867362E+02 -0.13272454793E+04  0.13355891069E+04  0.91800998955E+02 0.  0.
          3    1    3    3  502    0 -0.12880095380E+03  0.22749745811E+01  0.11031758071E+02  0.12929253998E+03  0.00000000000E+00 0. -1.
         -4    1    3    3    0  502 -0.55190415452E+03 -0.14242783088E+03  0.13041631167E+03  0.58471556943E+03  0.00000000000E+00 0.  1.
         13    1    5    5    0    0  0.75795875161E+03  0.20957112127E+03 -0.13377883133E+04  0.15518051087E+04  0.00000000000E+00 0.  1.
        -13    1    5    5    0    0  0.22134690019E+02 -0.68703976093E+01 -0.23532757834E+02  0.33029343875E+02  0.00000000000E+00 0. -1.
          3    1    6    6  503    0 -0.63072119911E+01 -0.45887050568E+02 -0.25422132809E+03  0.25840643566E+03  0.00000000000E+00 0. -1.
         -3    1    6    6    0  503 -0.93081121317E+02 -0.16660816794E+02 -0.10730241513E+04  0.10771826712E+04  0.00000000000E+00 0.  1.
<mgrwt>
<rscale>  0 0.25925433E+04</rscale>
<asrwt>0</asrwt>
<pdfrwt beam="1">  1        1 0.47550384E+00 0.25925433E+04</pdfrwt>
<pdfrwt beam="2">  1       -2 0.83639479E-01 0.25925433E+04</pdfrwt>
<totfact> 0.49661096E-01</totfact>
</mgrwt>
</event>
<event>
12    5  0.5041746E-008  0.2319318E+04  0.7818608E-02  0.8470343E-01
          1   -1    0    0  501    0  0.00000000000E+00  0.00000000000E+00  0.91691164055E+03  0.91691164055E+03  0.00000000000E+00 0. -1.
         -2   -1    0    0    0  501 -0.00000000000E+00 -0.00000000000E+00 -0.14666719065E+04  0.14666719065E+04  0.00000000000E+00 0.  1.
        -24    2    1    2    0    0  0.43704637859E+03  0.74062854923E+03  0.25991655218E+03  0.90195916104E+03  0.80209283243E+02 0.  0.
        254    2    1    2    0    0 -0.43704637859E+03 -0.74062854923E+03 -0.80967681815E+03  0.14816243860E+04  0.89447978537E+03 0.  0.
         23    2    4    4    0    0  0.69907653872E+02 -0.51478669794E+02 -0.57717854176E+03  0.59040323364E+03  0.88903181679E+02 0.  0.
         23    2    4    4    0    0 -0.50695403246E+03 -0.68914987944E+03 -0.23249827639E+03  0.89122115238E+03  0.91048045416E+02 0.  0.
          1    1    3    3  502    0  0.32647416142E+03  0.51913020085E+03  0.21813186882E+03  0.65089404338E+03  0.00000000000E+00 0. -1.
         -2    1    3    3    0  502  0.11057221717E+03  0.22149834838E+03  0.41784683361E+02  0.25106511766E+03  0.00000000000E+00 0.  1.
         13    1    5    5    0    0  0.21561945080E+02 -0.30885188129E+02 -0.46503809384E+03  0.46656107965E+03  0.00000000000E+00 0.  1.
        -13    1    5    5    0    0  0.48345708792E+02 -0.20593481665E+02 -0.11214044792E+03  0.12384215399E+03  0.00000000000E+00 0. -1.
          1    1    6    6  503    0 -0.86006310456E+02 -0.71687996661E+02 -0.15355314153E+02  0.11301345042E+03  0.00000000000E+00 0. -1.
         -1    1    6    6    0  503 -0.42094772201E+03 -0.61746188278E+03 -0.21714296224E+03  0.77820770196E+03  0.00000000000E+00 0.  1.
<mgrwt>
<rscale>  0 0.23193176E+04</rscale>
<asrwt>0</asrwt>
<pdfrwt beam="1">  1        1 0.14106333E+00 0.23193176E+04</pdfrwt>
<pdfrwt beam="2">  1       -2 0.22564183E+00 0.23193176E+04</pdfrwt>
<totfact> 0.12695065E+00</totfact>
</mgrwt>
</event>
<event>
12    5  0.5041746E-008  0.1740302E+04  0.7818608E-02  0.8738707E-01
         -2   -1    0    0    0  501 -0.00000000000E+00  0.00000000000E+00  0.40035883818E+03  0.40035883818E+03  0.00000000000E+00 0.  1.
          1   -1    0    0  501    0  0.00000000000E+00 -0.00000000000E+00 -0.18912097978E+04  0.18912097978E+04  0.00000000000E+00 0. -1.
        -24    2    1    2    0    0  0.23824396824E+03  0.33559855061E+03 -0.11896820340E+04  0.12613640144E+04  0.79430845874E+02 0.  0.
        254    2    1    2    0    0 -0.23824396824E+03 -0.33559855061E+03 -0.30116892557E+03  0.10302046215E+04  0.89511578296E+03 0.  0.
         23    2    4    4    0    0  0.17233651596E+03 -0.16972029555E+03  0.21944374614E+03  0.33916641589E+03  0.91506537975E+02 0.  0.
         23    2    4    4    0    0 -0.41058048420E+03 -0.16587825506E+03 -0.52061267172E+03  0.69103820563E+03  0.10200155974E+03 0.  0.
          1    1    3    3  502    0  0.23293654490E+03  0.29733502522E+03 -0.11157231817E+04  0.11779243479E+04  0.00000000000E+00 0. -1.
         -2    1    3    3    0  502  0.53074233439E+01  0.38263525382E+02 -0.73958852359E+02  0.83439666583E+02  0.00000000000E+00 0.  1.
         13    1    5    5    0    0  0.86551693718E+02 -0.13646808752E+03  0.10670530754E+03  0.19365112252E+03  0.00000000000E+00 0. -1.
        -13    1    5    5    0    0  0.85784822237E+02 -0.33252208029E+02  0.11273843860E+03  0.14551529336E+03  0.00000000000E+00 0.  1.
          1    1    6    6  503    0 -0.30477112062E+02 -0.35350843174E+02 -0.93922892755E+02  0.10488110533E+03  0.00000000000E+00 0. -1.
         -1    1    6    6    0  503 -0.38010337213E+03 -0.13052741188E+03 -0.42668977896E+03  0.58615710030E+03  0.00000000000E+00 0.  1.
<mgrwt>
<rscale>  0 0.17403018E+04</rscale>
<asrwt>0</asrwt>
<pdfrwt beam="1">  1        1 0.29095535E+00 0.17403018E+04</pdfrwt>
<pdfrwt beam="2">  1       -2 0.61593668E-01 0.17403018E+04</pdfrwt>
<totfact> 0.72056839E+00</totfact>
</mgrwt>
</event>
<event>
12    5  0.5041746E-008  0.2579324E+04  0.7818608E-02  0.8375259E-01
          1   -1    0    0  501    0  0.00000000000E+00  0.00000000000E+00  0.12544432666E+04  0.12544432666E+04  0.00000000000E+00 0. -1.
         -2   -1    0    0    0  501 -0.00000000000E+00 -0.00000000000E+00 -0.13258690281E+04  0.13258690281E+04  0.00000000000E+00 0.  1.
        -24    2    1    2    0    0 -0.12903196624E+02  0.45512712812E+03 -0.10682149757E+04  0.11633062879E+04  0.69936327330E+02 0.  0.
        254    2    1    2    0    0  0.12903196624E+02 -0.45512712812E+03  0.99678921417E+03  0.14170060068E+04  0.89833740359E+03 0.  0.
         23    2    4    4    0    0 -0.11520253557E+03 -0.53659783933E+03  0.18416276221E+03  0.58610203322E+03  0.91601337294E+02 0.  0.
         23    2    4    4    0    0  0.12810573219E+03  0.81470711206E+02  0.81262645196E+03  0.83090397361E+03  0.83612843128E+02 0.  0.
          3    1    3    3  502    0  0.27537265229E+00 -0.23225737903E+01 -0.22011665399E+01  0.32117461365E+01  0.00000000000E+00 0. -1.
         -4    1    3    3    0  502 -0.13178569276E+02  0.45744970191E+03 -0.10660138091E+04  0.11600945417E+04  0.00000000000E+00 0.  1.
         13    1    5    5    0    0 -0.12968522665E+03 -0.45583832556E+03  0.16517199489E+03  0.50188507146E+03  0.00000000000E+00 0.  1.
        -13    1    5    5    0    0  0.14482691087E+02 -0.80759513766E+02  0.18990767320E+02  0.84216961761E+02  0.00000000000E+00 0. -1.
          4    1    6    6  503    0  0.45180574334E+02  0.78364260440E+01  0.43269699452E+03  0.43511996384E+03  0.00000000000E+00 0. -1.
         -4    1    6    6    0  503  0.82925157856E+02  0.73634285162E+02  0.37992945744E+03  0.39578400977E+03  0.00000000000E+00 0.  1.
<mgrwt>
<rscale>  0 0.25793235E+04</rscale>
<asrwt>0</asrwt>
<pdfrwt beam="1">  1        1 0.19299127E+00 0.25793235E+04</pdfrwt>
<pdfrwt beam="2">  1       -2 0.20397985E+00 0.25793235E+04</pdfrwt>
<totfact> 0.94610230E-01</totfact>
</mgrwt>
</event>
<event>
12    5  0.5041746E-008  0.1242950E+04  0.7818608E-02  0.9076071E-01
          1   -1    0    0  501    0  0.00000000000E+00  0.00000000000E+00  0.13126038037E+04  0.13126038037E+04  0.00000000000E+00 0. -1.
         -2   -1    0    0    0  501 -0.00000000000E+00 -0.00000000000E+00 -0.29424815086E+03  0.29424815086E+03  0.00000000000E+00 0.  1.
        -24    2    1    2    0    0  0.59579129540E+02  0.25076241238E+03  0.40713550906E+03  0.48775402520E+03  0.75585754070E+02 0.  0.
        254    2    1    2    0    0 -0.59579129540E+02 -0.25076241238E+03  0.61122014375E+03  0.11190979293E+04  0.90130940924E+03 0.  0.
         23    2    4    4    0    0 -0.89510759389E+02  0.14136459528E+03 -0.16038911733E+03  0.24849876071E+03  0.89614955629E+02 0.  0.
         23    2    4    4    0    0  0.29931629849E+02 -0.39212700766E+03  0.77160926108E+03  0.87059916863E+03  0.88896389244E+02 0.  0.
          1    1    3    3  502    0  0.40938718994E+02  0.21707751622E+03  0.29063995967E+03  0.36506193025E+03  0.00000000000E+00 0. -1.
         -2    1    3    3    0  502  0.18640410546E+02  0.33684896162E+02  0.11649554939E+03  0.12269209495E+03  0.00000000000E+00 0.  1.
         13    1    5    5    0    0  0.70812784655E+01  0.47048907468E+02 -0.74807381018E+02  0.88656011942E+02  0.00000000000E+00 0. -1.
        -13    1    5    5    0    0 -0.96592037855E+02  0.94315687808E+02 -0.85581736316E+02  0.15984274877E+03  0.00000000000E+00 0.  1.
          2    1    6    6  503    0  0.10255862788E+01 -0.40556201531E+02  0.15494461266E+03  0.16016769431E+03  0.00000000000E+00 0. -1.
         -2    1    6    6    0  503  0.28906043570E+02 -0.35157080613E+03  0.61666464843E+03  0.71043147431E+03  0.00000000000E+00 0.  1.
<mgrwt>
<rscale>  0 0.12429501E+04</rscale>
<asrwt>0</asrwt>
<pdfrwt beam="1">  1        1 0.20193904E+00 0.12429501E+04</pdfrwt>
<pdfrwt beam="2">  1       -2 0.45268947E-01 0.12429501E+04</pdfrwt>
<totfact> 0.35479782E+01</totfact>
</mgrwt>
</event>
<event>
12    5  0.5041746E-008  0.2842710E+04  0.7818608E-02  0.8290130E-01
         -4   -1    0    0    0  501 -0.00000000000E+00  0.00000000000E+00  0.12937388046E+04  0.12937388046E+04  0.00000000000E+00 0.  1.
          3   -1    0    0  501    0  0.00000000000E+00 -0.00000000000E+00 -0.15615593571E+04  0.15615593571E+04  0.00000000000E+00 0. -1.
        -24    2    1    2    0    0 -0.10725530872E+04  0.19677046255E+02 -0.80737863906E+03  0.13450672325E+04  0.81168232356E+02 0.  0.
        254    2    1    2    0    0  0.10725530872E+04 -0.19677046255E+02  0.53955808657E+03  0.15102309292E+04  0.91592424341E+03 0.  0.
         23    2    4    4    0    0  0.10257610433E+04  0.28120049258E+03  0.53485829574E+03  0.11946457371E+04  0.99225024658E+02 0.  0.
         23    2    4    4    0    0  0.46792043907E+02 -0.30087753883E+03  0.46997908300E+01  0.31558519215E+03  0.82795753057E+02 0.  0.
          1    1    3    3  502    0 -0.82861307917E+03  0.18457215416E+01 -0.58311505624E+03  0.10132256464E+04  0.00000000000E+00 0. -1.
         -2    1    3    3    0  502 -0.24394000806E+03  0.17831324714E+02 -0.22426358283E+03  0.33184158608E+03  0.00000000000E+00 0.  1.
         13    1    5    5    0    0  0.64839502047E+03  0.12783392722E+03  0.32863913515E+03  0.73807946501E+03  0.00000000000E+00 0. -1.
        -13    1    5    5    0    0  0.37736602285E+03  0.15336656536E+03  0.20621916060E+03  0.45656627204E+03  0.00000000000E+00 0.  1.
          2    1    6    6  503    0  0.12251412791E+01 -0.20371801005E+03 -0.22266281761E+02  0.20493490648E+03  0.00000000000E+00 0. -1.
         -2    1    6    6    0  503  0.45566902628E+02 -0.97159528779E+02  0.26966072591E+02  0.11065028567E+03  0.00000000000E+00 0.  1.
<mgrwt>
<rscale>  0 0.28427099E+04</rscale>
<asrwt>0</asrwt>
<pdfrwt beam="1">  1        3 0.24023990E+00 0.28427099E+04</pdfrwt>
<pdfrwt beam="2">  1       -4 0.19903674E+00 0.28427099E+04</pdfrwt>
<totfact> 0.22163613E-02</totfact>
</mgrwt>
</event>
<event>
12    5  0.5041746E-008  0.2022713E+04  0.7818608E-02  0.8596075E-01
         -2   -1    0    0    0  501 -0.00000000000E+00  0.00000000000E+00  0.40457137883E+03  0.40457137883E+03  0.00000000000E+00 0.  1.
          1   -1    0    0  501    0  0.00000000000E+00 -0.00000000000E+00 -0.25282104178E+04  0.25282104178E+04  0.00000000000E+00 0. -1.
        -24    2    1    2    0    0  0.48709835324E+02 -0.71230890518E+03 -0.27608304857E+03  0.76938256312E+03  0.77272597228E+02 0.  0.
        254    2    1    2    0    0 -0.48709835324E+02  0.71230890518E+03 -0.18475559904E+04  0.21633992335E+04  0.87010142019E+03 0.  0.
         23    2    4    4    0    0 -0.28091574354E+03  0.46169389303E+03 -0.41211152068E+03  0.68526743739E+03  0.87639314447E+02 0.  0.
         23    2    4    4    0    0  0.23220590822E+03  0.25061501214E+03 -0.14354444697E+04  0.14781317961E+04  0.87437480086E+02 0.  0.
          3    1    3    3  502    0  0.49092993705E+02 -0.35176604603E+03 -0.16858970661E+03  0.39315640952E+03  0.00000000000E+00 0. -1.
         -4    1    3    3    0  502 -0.38315838075E+00 -0.36054285915E+03 -0.10749334196E+03  0.37622615360E+03  0.00000000000E+00 0.  1.
         13    1    5    5    0    0 -0.27658191225E+03  0.46549761037E+03 -0.40978134712E+03  0.67904810720E+03  0.00000000000E+00 0. -1.
        -13    1    5    5    0    0 -0.43338312987E+01 -0.38037173333E+01 -0.23301735638E+01  0.62193301983E+01  0.00000000000E+00 0.  1.
          2    1    6    6  503    0  0.22785842024E+03  0.22533734851E+03 -0.12287307189E+04  0.12698328865E+04  0.00000000000E+00 0. -1.
         -2    1    6    6    0  503  0.43474879760E+01  0.25277663634E+02 -0.20671375085E+03  0.20829890955E+03  0.00000000000E+00 0.  1.
<mgrwt>
<rscale>  0 0.20227126E+04</rscale>
<asrwt>0</asrwt>
<pdfrwt beam="1">  1        1 0.38895546E+00 0.20227126E+04</pdfrwt>
<pdfrwt beam="2">  1       -2 0.62241749E-01 0.20227126E+04</pdfrwt>
<totfact> 0.25245038E+00</totfact>
</mgrwt>
</event>
<event>
12    5  0.5041746E-008  0.1085008E+04  0.7818608E-02  0.9219929E-01
         -2   -1    0    0    0  501 -0.00000000000E+00  0.00000000000E+00  0.56543174231E+03  0.56543174231E+03  0.00000000000E+00 0.  1.
          1   -1    0    0  501    0  0.00000000000E+00 -0.00000000000E+00 -0.52050573591E+03  0.52050573591E+03  0.00000000000E+00 0. -1.
        -24    2    1    2    0    0 -0.19040708904E+02  0.45647646837E+02  0.14694245247E+03  0.17423897549E+03  0.79503962064E+02 0.  0.
        254    2    1    2    0    0  0.19040708904E+02 -0.45647646837E+02 -0.10201644608E+03  0.91169850272E+03  0.90462177087E+03 0.  0.
         23    2    4    4    0    0 -0.13919255154E+03 -0.32672847605E+03 -0.33993881740E+03  0.50010443117E+03  0.91760443736E+02 0.  0.
         23    2    4    4    0    0  0.15823326044E+03  0.28108082921E+03  0.23792237133E+03  0.41159407155E+03  0.93586471772E+02 0.  0.
          3    1    3    3  502    0 -0.33460214496E+02  0.58935984062E+02  0.81897219954E+02  0.10630235561E+03  0.00000000000E+00 0. -1.
         -4    1    3    3    0  502  0.14419505592E+02 -0.13288337225E+02  0.65045232521E+02  0.67936619885E+02  0.00000000000E+00 0.  1.
         13    1    5    5    0    0 -0.14518494059E+03 -0.32911199872E+03 -0.32939217638E+03  0.48774233006E+03  0.00000000000E+00 0.  1.
        -13    1    5    5    0    0  0.59923890526E+01  0.23835226720E+01 -0.10546641026E+02  0.12362101109E+02  0.00000000000E+00 0. -1.
          4    1    6    6  503    0  0.52222031692E+02  0.10668307462E+03  0.35087441438E+02  0.12385292710E+03  0.00000000000E+00 0. -1.
         -4    1    6    6    0  503  0.10601122875E+03  0.17439775459E+03  0.20283492989E+03  0.28774114445E+03  0.00000000000E+00 0.  1.
<mgrwt>
<rscale>  0 0.10850078E+04</rscale>
<asrwt>0</asrwt>
<pdfrwt beam="1">  1        1 0.80077806E-01 0.10850078E+04</pdfrwt>
<pdfrwt beam="2">  1       -2 0.86989498E-01 0.10850078E+04</pdfrwt>
<totfact> 0.41809482E+01</totfact>
</mgrwt>
</event>
<event>
12    5  0.5041746E-008  0.2107296E+04  0.7818608E-02  0.8558036E-01
         -2   -1    0    0    0  501 -0.00000000000E+00  0.00000000000E+00  0.10166808562E+04  0.10166808562E+04  0.00000000000E+00 0.  1.
          1   -1    0    0  501    0  0.00000000000E+00 -0.00000000000E+00 -0.10919594624E+04  0.10919594624E+04  0.00000000000E+00 0. -1.
        -24    2    1    2    0    0 -0.32207285981E+03  0.28957578526E+03 -0.77408419115E+03  0.89078652192E+03  0.81909890769E+02 0.  0.
        254    2    1    2    0    0  0.32207285981E+03 -0.28957578526E+03  0.69880558494E+03  0.12178537967E+04  0.89847290560E+03 0.  0.
         23    2    4    4    0    0  0.51237641912E+03 -0.21532815153E+03  0.91027477380E+02  0.57042177444E+03  0.90549386575E+02 0.  0.
         23    2    4    4    0    0 -0.19030355931E+03 -0.74247633733E+02  0.60777810757E+03  0.64743202223E+03  0.89698604103E+02 0.  0.
          3    1    3    3  502    0 -0.22671496216E+03  0.17141673795E+03 -0.43999402359E+03  0.52381114240E+03  0.00000000000E+00 0. -1.
         -4    1    3    3    0  502 -0.95357897656E+02  0.11815904731E+03 -0.33409016756E+03  0.36697537952E+03  0.00000000000E+00 0.  1.
         13    1    5    5    0    0  0.37450139699E+03 -0.15364468008E+03  0.10654997716E+03  0.41858198921E+03  0.00000000000E+00 0. -1.
        -13    1    5    5    0    0  0.13787502214E+03 -0.61683471447E+02 -0.15522499785E+02  0.15183978523E+03  0.00000000000E+00 0.  1.
          3    1    6    6  503    0 -0.17881928710E+03 -0.63950351727E+02  0.44374745155E+03  0.48267772446E+03  0.00000000000E+00 0. -1.
         -3    1    6    6    0  503 -0.11484272208E+02 -0.10297282006E+02  0.16403065601E+03  0.16475429778E+03  0.00000000000E+00 0.  1.
<mgrwt>
<rscale>  0 0.21072962E+04</rscale>
<asrwt>0</asrwt>
<pdfrwt beam="1">  1        1 0.16799376E+00 0.21072962E+04</pdfrwt>
<pdfrwt beam="2">  1       -2 0.15641244E+00 0.21072962E+04</pdfrwt>
<totfact> 0.27759865E+00</totfact>
</mgrwt>
</event>
<event>
12    5  0.5041746E-008  0.1701741E+04  0.7818608E-02  0.8760372E-01
          1   -1    0    0  501    0  0.00000000000E+00  0.00000000000E+00  0.73997183138E+03  0.73997183138E+03  0.00000000000E+00 0. -1.
         -2   -1    0    0    0  501 -0.00000000000E+00 -0.00000000000E+00 -0.97838907579E+03  0.97838907579E+03  0.00000000000E+00 0.  1.
        -24    2    1    2    0    0  0.18603679844E+03  0.44576173345E+03 -0.46495306607E+03  0.67528395622E+03  0.80708453681E+02 0.  0.
        254    2    1    2    0    0 -0.18603679844E+03 -0.44576173345E+03  0.22653582166E+03  0.10430769510E+04  0.89631346846E+03 0.  0.
         23    2    4    4    0    0 -0.40553320938E+03 -0.35164415296E+03 -0.17054121311E+03  0.57082303470E+03  0.92972239671E+02 0.  0.
         23    2    4    4    0    0  0.21949641095E+03 -0.94117580488E+02  0.39707703477E+03  0.47225391626E+03  0.91196471994E+02 0.  0.
          1    1    3    3  502    0 -0.41816159463E+01  0.33559045496E+02 -0.49180128631E+02  0.59685680851E+02  0.00000000000E+00 0. -1.
         -2    1    3    3    0  502  0.19021841438E+03  0.41220268795E+03 -0.41577293744E+03  0.61559827537E+03  0.00000000000E+00 0.  1.
         13    1    5    5    0    0 -0.87945620078E+02 -0.79001775174E+02 -0.79524668357E+02  0.14247766649E+03  0.00000000000E+00 0. -1.
        -13    1    5    5    0    0 -0.31758758931E+03 -0.27264237778E+03 -0.91016544754E+02  0.42834536821E+03  0.00000000000E+00 0.  1.
          1    1    6    6  503    0  0.72663938721E+02 -0.73480623883E+02  0.12309780529E+03  0.16072498170E+03  0.00000000000E+00 0. -1.
         -1    1    6    6    0  503  0.14683247223E+03 -0.20636956606E+02  0.27397922948E+03  0.31152893455E+03  0.00000000000E+00 0.  1.
<mgrwt>
<rscale>  0 0.17017407E+04</rscale>
<asrwt>0</asrwt>
<pdfrwt beam="1">  1        1 0.11384182E+00 0.17017407E+04</pdfrwt>
<pdfrwt beam="2">  1       -2 0.15052140E+00 0.17017407E+04</pdfrwt>
<totfact> 0.61845436E+00</totfact>
</mgrwt>
</event>
<event>
12    5  0.5041746E-008  0.1498574E+04  0.7818608E-02  0.8885402E-01
          1   -1    0    0  501    0  0.00000000000E+00  0.00000000000E+00  0.14840895452E+04  0.14840895452E+04  0.00000000000E+00 0. -1.
         -4   -1    0    0    0  501 -0.00000000000E+00 -0.00000000000E+00 -0.37829973223E+03  0.37829973223E+03  0.00000000000E+00 0.  1.
        -24    2    1    2    0    0  0.27209349781E+03  0.22390055142E+03 -0.26766455693E+02  0.36247932880E+03  0.80675226518E+02 0.  0.
        254    2    1    2    0    0 -0.27209349781E+03 -0.22390055142E+03  0.11325562687E+04  0.14999099487E+04  0.91808486747E+03 0.  0.
         23    2    4    4    0    0 -0.76198159083E+02  0.61973485239E+00  0.11792402592E+04  0.11849308061E+04  0.87446457682E+02 0.  0.
         23    2    4    4    0    0 -0.19589533873E+03 -0.22452028628E+03 -0.46683990465E+02  0.31497914255E+03  0.90819175217E+02 0.  0.
          3    1    3    3  502    0  0.94201337840E+02  0.70185857124E+02  0.28684828919E+02  0.12092462942E+03  0.00000000000E+00 0. -1.
         -4    1    3    3    0  502  0.17789215997E+03  0.15371469430E+03 -0.55451284612E+02  0.24155469937E+03  0.00000000000E+00 0.  1.
         13    1    5    5    0    0 -0.92574123386E+02  0.10282862945E+02  0.83785659778E+03  0.84301802118E+03  0.00000000000E+00 0.  1.
        -13    1    5    5    0    0  0.16375964303E+02 -0.96631280925E+01  0.34138366139E+03  0.34191278495E+03  0.00000000000E+00 0. -1.
          2    1    6    6  503    0 -0.11809362892E+03 -0.15420334126E+03 -0.71919246878E+02  0.20711628067E+03  0.00000000000E+00 0.  1.
         -2    1    6    6    0  503 -0.77801709807E+02 -0.70316945020E+02  0.25235256413E+02  0.10786286188E+03  0.00000000000E+00 0. -1.
<mgrwt>
<rscale>  0 0.14985736E+04</rscale>
<asrwt>0</asrwt>
<pdfrwt beam="1">  1        1 0.22832147E+00 0.14985736E+04</pdfrwt>
<pdfrwt beam="2">  1       -4 0.58199960E-01 0.14985736E+04</pdfrwt>
<totfact> 0.89223317E+00</totfact>
</mgrwt>
</event>
<event>
12    5  0.5041746E-008  0.1693465E+04  0.7818608E-02  0.8765100E-01
          1   -1    0    0  501    0  0.00000000000E+00  0.00000000000E+00  0.21832782759E+04  0.21832782759E+04  0.00000000000E+00 0. -1.
         -2   -1    0    0    0  501 -0.00000000000E+00 -0.00000000000E+00 -0.32838516139E+03  0.32838516139E+03  0.00000000000E+00 0.  1.
        -24    2    1    2    0    0 -0.16323360997E+03  0.84962145824E+02  0.14909055597E+04  0.15048629975E+04  0.89159832235E+02 0.  0.
        254    2    1    2    0    0  0.16323360997E+03 -0.84962145824E+02  0.36398755477E+03  0.10068004397E+04  0.92048704922E+03 0.  0.
         23    2    4    4    0    0 -0.16367729436E+02  0.20540291618E+03 -0.22591475951E+03  0.31929885600E+03  0.91956622043E+02 0.  0.
         23    2    4    4    0    0  0.17960133941E+03 -0.29036506200E+03  0.58990231427E+03  0.68750158374E+03  0.90028756020E+02 0.  0.
          3    1    3    3  502    0 -0.91210219485E+02  0.80473577404E+02  0.11492859541E+04  0.11557047655E+04  0.00000000000E+00 0. -1.
         -4    1    3    3    0  502 -0.72023390483E+02  0.44885684194E+01  0.34161960566E+03  0.34915823203E+03  0.00000000000E+00 0.  1.
         13    1    5    5    0    0  0.23156980334E+02  0.40143794031E+02 -0.91775551606E+02  0.10281304300E+03  0.00000000000E+00 0. -1.
        -13    1    5    5    0    0 -0.39524709770E+02  0.16525912215E+03 -0.13413920790E+03  0.21648581300E+03  0.00000000000E+00 0.  1.
          4    1    6    6  503    0  0.38411529117E+02 -0.87877356441E+02  0.97917663602E+02  0.13706109656E+03  0.00000000000E+00 0. -1.
         -4    1    6    6    0  503  0.14118981029E+03 -0.20248770556E+03  0.49198465067E+03  0.55044048718E+03  0.00000000000E+00 0.  1.
<mgrwt>
<rscale>  0 0.16934653E+04</rscale>
<asrwt>0</asrwt>
<pdfrwt beam="1">  1        1 0.33588896E+00 0.16934653E+04</pdfrwt>
<pdfrwt beam="2">  1       -2 0.50520795E-01 0.16934653E+04</pdfrwt>
<totfact> 0.69318598E+00</totfact>
</mgrwt>
</event>
<event>
12    5  0.5041746E-008  0.2746722E+04  0.7818608E-02  0.8320003E-01
          1   -1    0    0  501    0  0.00000000000E+00  0.00000000000E+00  0.31354319634E+04  0.31354319634E+04  0.00000000000E+00 0. -1.
         -2   -1    0    0    0  501 -0.00000000000E+00 -0.00000000000E+00 -0.60155027254E+03  0.60155027254E+03  0.00000000000E+00 0.  1.
        -24    2    1    2    0    0 -0.99477018712E+03 -0.26415165788E+03  0.20356587057E+04  0.22836984732E+04  0.10967464077E+03 0.  0.
        254    2    1    2    0    0  0.99477018712E+03  0.26415165788E+03  0.49822298516E+03  0.14532837627E+04  0.89691902006E+03 0.  0.
         23    2    4    4    0    0  0.11290465618E+04  0.13846183786E+03  0.50483678610E+03  0.12477874198E+04  0.90528697304E+02 0.  0.
         23    2    4    4    0    0 -0.13427637471E+03  0.12568982002E+03 -0.66138009386E+01  0.20549634295E+03  0.91416240033E+02 0.  0.
          1    1    3    3  502    0 -0.91181888002E+03 -0.27015566622E+03  0.18964697414E+04  0.21215549095E+04  0.00000000000E+00 0. -1.
         -2    1    3    3    0  502 -0.82951307105E+02  0.60040083425E+01  0.13918896430E+03  0.16214356370E+03  0.00000000000E+00 0.  1.
         13    1    5    5    0    0  0.74419171255E+03  0.69416849623E+02  0.29047828026E+03  0.80188380414E+03  0.00000000000E+00 0.  1.
        -13    1    5    5    0    0  0.38485484929E+03  0.69044988238E+02  0.21435850583E+03  0.44590361565E+03  0.00000000000E+00 0. -1.
          4    1    6    6  503    0 -0.14337511168E+01  0.20758382868E+02 -0.27978135537E+02  0.34867494456E+02  0.00000000000E+00 0. -1.
         -4    1    6    6    0  503 -0.13284262360E+03  0.10493143715E+03  0.21364334598E+02  0.17062884850E+03  0.00000000000E+00 0.  1.
<mgrwt>
<rscale>  0 0.27467216E+04</rscale>
<asrwt>0</asrwt>
<pdfrwt beam="1">  1        1 0.48237414E+00 0.27467216E+04</pdfrwt>
<pdfrwt beam="2">  1       -2 0.92546198E-01 0.27467216E+04</pdfrwt>
<totfact> 0.35988288E-01</totfact>
</mgrwt>
</event>
<event>
12    5  0.5041746E-008  0.1500948E+04  0.7818608E-02  0.8883822E-01
         -2   -1    0    0    0  501 -0.00000000000E+00  0.00000000000E+00  0.58417343758E+03  0.58417343758E+03  0.00000000000E+00 0.  1.
          1   -1    0    0  501    0  0.00000000000E+00 -0.00000000000E+00 -0.96411699762E+03  0.96411699762E+03  0.00000000000E+00 0. -1.
        -24    2    1    2    0    0 -0.42551363875E+03 -0.14569004489E+03 -0.28568325910E+03  0.53897992655E+03  0.81221861248E+02 0.  0.
        254    2    1    2    0    0  0.42551363875E+03  0.14569004489E+03 -0.94260300936E+02  0.10093105087E+04  0.89862965265E+03 0.  0.
         23    2    4    4    0    0  0.16025145733E+03  0.23577513439E+03 -0.45384493995E+03  0.54370911507E+03  0.91509172837E+02 0.  0.
         23    2    4    4    0    0  0.26526218142E+03 -0.90085089502E+02  0.35958463902E+03  0.46560139359E+03  0.94890446615E+02 0.  0.
          3    1    3    3  502    0 -0.37332424681E+03 -0.13188211654E+03 -0.27948574970E+03  0.48464024824E+03  0.00000000000E+00 0. -1.
         -4    1    3    3    0  502 -0.52189391939E+02 -0.13807928348E+02 -0.61975093991E+01  0.54339678311E+02  0.00000000000E+00 0.  1.
         13    1    5    5    0    0  0.58224801158E+02  0.28729258569E+02 -0.67447535763E+02  0.93619804787E+02  0.00000000000E+00 0.  1.
        -13    1    5    5    0    0  0.10202665618E+03  0.20704587582E+03 -0.38639740419E+03  0.45008931028E+03  0.00000000000E+00 0. -1.
          4    1    6    6  503    0  0.26600673853E+03 -0.89069187979E+02  0.36482789780E+03  0.46020897449E+03  0.00000000000E+00 0. -1.
         -4    1    6    6    0  503 -0.74455710649E+00 -0.10159015234E+01 -0.52432587801E+01  0.53924191070E+01  0.00000000000E+00 0.  1.
<mgrwt>
<rscale>  0 0.15009484E+04</rscale>
<asrwt>0</asrwt>
<pdfrwt beam="1">  1        1 0.14832569E+00 0.15009484E+04</pdfrwt>
<pdfrwt beam="2">  1       -2 0.89872837E-01 0.15009484E+04</pdfrwt>
<totfact> 0.14519540E+01</totfact>
</mgrwt>
</event>
<event>
12    5  0.5041746E-008  0.1818038E+04  0.7818608E-02  0.8696765E-01
          1   -1    0    0  501    0  0.00000000000E+00  0.00000000000E+00  0.10850017426E+04  0.10850017426E+04  0.00000000000E+00 0. -1.
         -2   -1    0    0    0  501 -0.00000000000E+00 -0.00000000000E+00 -0.76158011462E+03  0.76158011462E+03  0.00000000000E+00 0.  1.
        -24    2    1    2    0    0  0.35710107002E+03  0.53720609527E+03 -0.11063499500E+03  0.65891344287E+03  0.76257852601E+02 0.  0.
        254    2    1    2    0    0 -0.35710107002E+03 -0.53720609527E+03  0.43405662297E+03  0.11876684143E+04  0.89779705249E+03 0.  0.
         23    2    4    4    0    0 -0.42962989580E+03 -0.51523423856E+03 -0.60419774385E+02  0.67951569629E+03  0.89682018381E+02 0.  0.
         23    2    4    4    0    0  0.72528825786E+02 -0.21971856706E+02  0.49447639736E+03  0.50815271804E+03  0.89269727526E+02 0.  0.
          3    1    3    3  502    0  0.11950040029E+03  0.18496763226E+03 -0.14156775729E+01  0.22021665422E+03  0.00000000000E+00 0. -1.
         -4    1    3    3    0  502  0.23760066973E+03  0.35223846301E+03 -0.10921931742E+03  0.43869678865E+03  0.00000000000E+00 0.  1.
         13    1    5    5    0    0 -0.12147072884E+02 -0.12973375296E+02  0.13379118266E+02  0.22245463623E+02  0.00000000000E+00 0. -1.
        -13    1    5    5    0    0 -0.41748282292E+03 -0.50226086326E+03 -0.73798892651E+02  0.65727023267E+03  0.00000000000E+00 0.  1.
          2    1    6    6  503    0  0.74609782103E+02  0.15823069031E+02  0.27250201629E+03  0.28297409418E+03  0.00000000000E+00 0.  1.
         -2    1    6    6    0  503 -0.20809563170E+01 -0.37794925737E+02  0.22197438107E+03  0.22517862386E+03  0.00000000000E+00 0. -1.
<mgrwt>
<rscale>  0 0.18180382E+04</rscale>
<asrwt>0</asrwt>
<pdfrwt beam="1">  1        1 0.16692334E+00 0.18180382E+04</pdfrwt>
<pdfrwt beam="2">  1       -2 0.11716617E+00 0.18180382E+04</pdfrwt>
<totfact> 0.60565466E+00</totfact>
</mgrwt>
</event>
<event>
12    5  0.5041746E-008  0.1894413E+04  0.7818608E-02  0.8657642E-01
          1   -1    0    0  501    0  0.00000000000E+00  0.00000000000E+00  0.79632219203E+03  0.79632219203E+03  0.00000000000E+00 0. -1.
         -2   -1    0    0    0  501 -0.00000000000E+00 -0.00000000000E+00 -0.11266802075E+04  0.11266802075E+04  0.00000000000E+00 0.  1.
        -24    2    1    2    0    0  0.13968729170E+03 -0.65952041863E+03 -0.43255713070E+03  0.80511712186E+03  0.81413675410E+02 0.  0.
        254    2    1    2    0    0 -0.13968729170E+03  0.65952041863E+03  0.10219911524E+03  0.11178852777E+04  0.88585727565E+03 0.  0.
         23    2    4    4    0    0 -0.30377544675E+03  0.51451418994E+03 -0.28132287996E+03  0.66656921156E+03  0.90374649716E+02 0.  0.
         23    2    4    4    0    0  0.16408815505E+03  0.14500622869E+03  0.38352199520E+03  0.45131606611E+03  0.92980329827E+02 0.  0.
          3    1    3    3  502    0  0.78675385198E+02 -0.19457073025E+03 -0.14365629585E+03  0.25433190252E+03  0.00000000000E+00 0. -1.
         -4    1    3    3    0  502  0.61011906498E+02 -0.46494968838E+03 -0.28890083485E+03  0.55078521933E+03  0.00000000000E+00 0.  1.
         13    1    5    5    0    0 -0.26819703238E+03  0.49636982787E+03 -0.25879020555E+03  0.62071331924E+03  0.00000000000E+00 0. -1.
        -13    1    5    5    0    0 -0.35578414365E+02  0.18144362067E+02 -0.22532674417E+02  0.45855892314E+02  0.00000000000E+00 0.  1.
          4    1    6    6  503    0  0.12188289544E+03  0.73340133660E+02  0.30676046744E+03  0.33813636271E+03  0.00000000000E+00 0. -1.
         -4    1    6    6    0  503  0.42205259608E+02  0.71666095028E+02  0.76761527767E+02  0.11317970339E+03  0.00000000000E+00 0.  1.
<mgrwt>
<rscale>  0 0.18944133E+04</rscale>
<asrwt>0</asrwt>
<pdfrwt beam="1">  1        1 0.12251111E+00 0.18944133E+04</pdfrwt>
<pdfrwt beam="2">  1       -2 0.17333542E+00 0.18944133E+04</pdfrwt>
<totfact> 0.36853424E+00</totfact>
</mgrwt>
</event>
<event>
12    5  0.5041746E-008  0.1578136E+04  0.7818608E-02  0.8834093E-01
         -4   -1    0    0    0  501 -0.00000000000E+00  0.00000000000E+00  0.10041659348E+04  0.10041659348E+04  0.00000000000E+00 0.  1.
          3   -1    0    0  501    0  0.00000000000E+00 -0.00000000000E+00 -0.62004557449E+03  0.62004557449E+03  0.00000000000E+00 0. -1.
        -24    2    1    2    0    0  0.90369208605E+02 -0.18879546104E+03  0.63234757914E+03  0.67081239479E+03  0.79470045884E+02 0.  0.
        254    2    1    2    0    0 -0.90369208605E+02  0.18879546104E+03 -0.24822721886E+03  0.95339911445E+03  0.89640548820E+03 0.  0.
         23    2    4    4    0    0  0.12971040003E+03  0.45322704006E+03 -0.33734326814E+03  0.58664795166E+03  0.90087740041E+02 0.  0.
         23    2    4    4    0    0 -0.22007960863E+03 -0.26443157902E+03  0.89116049279E+02  0.36675116280E+03  0.90585048724E+02 0.  0.
          3    1    3    3  502    0 -0.12952343711E+02 -0.16432692069E+02  0.90837622693E+02  0.93216255410E+02  0.00000000000E+00 0. -1.
         -2    1    3    3    0  502  0.10332155232E+03 -0.17236276897E+03  0.54150995644E+03  0.57759613938E+03  0.00000000000E+00 0.  1.
         13    1    5    5    0    0  0.73742940425E+02  0.16153036340E+03 -0.16953720232E+03  0.24550548372E+03  0.00000000000E+00 0.  1.
        -13    1    5    5    0    0  0.55967459604E+02  0.29169667665E+03 -0.16780606582E+03  0.34114246794E+03  0.00000000000E+00 0. -1.
          2    1    6    6  503    0 -0.71159110366E+01 -0.61907052360E+01 -0.13661415106E+02  0.16601062734E+02  0.00000000000E+00 0. -1.
         -2    1    6    6    0  503 -0.21296369760E+03 -0.25824087379E+03  0.10277746438E+03  0.35015010006E+03  0.00000000000E+00 0.  1.
<mgrwt>
<rscale>  0 0.15781364E+04</rscale>
<asrwt>0</asrwt>
<pdfrwt beam="1">  1        3 0.95391627E-01 0.15781364E+04</pdfrwt>
<pdfrwt beam="2">  1       -4 0.15448707E+00 0.15781364E+04</pdfrwt>
<totfact> 0.59055794E-01</totfact>
</mgrwt>
</event>
<event>
12    5  0.5041746E-008  0.2243937E+04  0.7818608E-02  0.8500360E-01
         -2   -1    0    0    0  501 -0.00000000000E+00  0.00000000000E+00  0.16289094450E+04  0.16289094450E+04  0.00000000000E+00 0.  1.
          1   -1    0    0  501    0  0.00000000000E+00 -0.00000000000E+00 -0.77279527835E+03  0.77279527835E+03  0.00000000000E+00 0. -1.
        -24    2    1    2    0    0  0.68599394568E+03 -0.11008110915E+03 -0.31391179617E+03  0.76671468523E+03  0.81272680940E+02 0.  0.
        254    2    1    2    0    0 -0.68599394568E+03  0.11008110915E+03  0.11700259628E+04  0.16349900381E+04  0.90638078476E+03 0.  0.
         23    2    4    4    0    0 -0.16289591847E+03  0.31427487783E+03  0.96248308800E+03  0.10295753428E+04  0.91366912470E+02 0.  0.
         23    2    4    4    0    0 -0.52309802721E+03 -0.20419376867E+03  0.20754287478E+03  0.60541469531E+03  0.90145810727E+02 0.  0.
          3    1    3    3  502    0  0.54898795659E+03 -0.89332677263E+02 -0.28573795257E+03  0.62531134745E+03  0.00000000000E+00 0. -1.
         -4    1    3    3    0  502  0.13700598909E+03 -0.20748431889E+02 -0.28173843603E+02  0.14140333778E+03  0.00000000000E+00 0.  1.
         13    1    5    5    0    0 -0.11386532469E+03  0.23679421925E+03  0.58807383450E+03  0.64410220405E+03  0.00000000000E+00 0.  1.
        -13    1    5    5    0    0 -0.49030593775E+02  0.77480658579E+02  0.37440925349E+03  0.38547313873E+03  0.00000000000E+00 0. -1.
          1    1    6    6  503    0 -0.33852909885E+03 -0.10047503627E+03  0.95166053454E+02  0.36572361342E+03  0.00000000000E+00 0. -1.
         -1    1    6    6    0  503 -0.18456892836E+03 -0.10371873241E+03  0.11237682133E+03  0.23969108189E+03  0.00000000000E+00 0.  1.
<mgrwt>
<rscale>  0 0.22439372E+04</rscale>
<asrwt>0</asrwt>
<pdfrwt beam="1">  1        1 0.11889158E+00 0.22439372E+04</pdfrwt>
<pdfrwt beam="2">  1       -2 0.25060145E+00 0.22439372E+04</pdfrwt>
<totfact> 0.11848759E+00</totfact>
</mgrwt>
</event>
<event>
12    5  0.5041746E-008  0.1603788E+04  0.7818608E-02  0.8818224E-01
         -2   -1    0    0    0  501 -0.00000000000E+00  0.00000000000E+00  0.40071387691E+03  0.40071387691E+03  0.00000000000E+00 0.  1.
          1   -1    0    0  501    0  0.00000000000E+00 -0.00000000000E+00 -0.16047219027E+04  0.16047219027E+04  0.00000000000E+00 0. -1.
        -24    2    1    2    0    0 -0.37768318782E+03  0.20785548676E+03  0.50582495500E+01  0.43853039516E+03  0.80217378771E+02 0.  0.
        254    2    1    2    0    0  0.37768318782E+03 -0.20785548676E+03 -0.12090662753E+04  0.15669053845E+04  0.89861155787E+03 0.  0.
         23    2    4    4    0    0  0.51992892322E+02  0.30457638920E+03 -0.69240527611E+03  0.76408488897E+03  0.94501923043E+02 0.  0.
         23    2    4    4    0    0  0.32569029549E+03 -0.51243187597E+03 -0.51666099923E+03  0.80282049548E+03  0.94454029847E+02 0.  0.
          1    1    3    3  502    0 -0.76500308863E+02  0.81611168913E+02  0.47049428927E+01  0.11195899533E+03  0.00000000000E+00 0. -1.
         -2    1    3    3    0  502 -0.30118287895E+03  0.12624431785E+03  0.35330665727E+00  0.32657139983E+03  0.00000000000E+00 0.  1.
         13    1    5    5    0    0 -0.25226625470E+02  0.41134880084E+02 -0.11635410049E+03  0.12596323945E+03  0.00000000000E+00 0. -1.
        -13    1    5    5    0    0  0.77219517792E+02  0.26344150912E+03 -0.57605117562E+03  0.63812164952E+03  0.00000000000E+00 0.  1.
          3    1    6    6  503    0  0.12172415672E+03 -0.11821574900E+03 -0.12338474544E+03  0.20979878229E+03  0.00000000000E+00 0. -1.
         -3    1    6    6    0  503  0.20396613877E+03 -0.39421612696E+03 -0.39327625380E+03  0.59302171320E+03  0.00000000000E+00 0.  1.
<mgrwt>
<rscale>  0 0.16037884E+04</rscale>
<asrwt>0</asrwt>
<pdfrwt beam="1">  1        1 0.24688030E+00 0.16037884E+04</pdfrwt>
<pdfrwt beam="2">  1       -2 0.61648288E-01 0.16037884E+04</pdfrwt>
<totfact> 0.11400539E+01</totfact>
</mgrwt>
</event>
<event>
12    5  0.5041746E-008  0.1278126E+04  0.7818608E-02  0.9047093E-01
         -4   -1    0    0    0  501 -0.00000000000E+00  0.00000000000E+00  0.56913893781E+03  0.56913893781E+03  0.00000000000E+00 0.  1.
          3   -1    0    0  501    0  0.00000000000E+00 -0.00000000000E+00 -0.71757828585E+03  0.71757828585E+03  0.00000000000E+00 0. -1.
        -24    2    1    2    0    0 -0.19730338681E+03  0.40489886560E+02 -0.13913438382E+03  0.25753118292E+03  0.79974221186E+02 0.  0.
        254    2    1    2    0    0  0.19730338681E+03 -0.40489886560E+02 -0.93049642116E+01  0.10291860407E+04  0.10092419268E+04 0.  0.
         23    2    4    4    0    0  0.51150565565E+03 -0.10229825359E+03 -0.28059654648E+03  0.59965915874E+03  0.93561297052E+02 0.  0.
         23    2    4    4    0    0 -0.31420226884E+03  0.61808367026E+02  0.27129158227E+03  0.42952688200E+03  0.91383148180E+02 0.  0.
          3    1    3    3  502    0 -0.70110634570E+01  0.16145181650E+02 -0.35169311119E+02  0.39328136822E+02  0.00000000000E+00 0. -1.
         -4    1    3    3    0  502 -0.19029232336E+03  0.24344704909E+02 -0.10396507270E+03  0.21820304610E+03  0.00000000000E+00 0.  1.
         13    1    5    5    0    0  0.12037335280E+03  0.12175676045E+02 -0.46116106578E+02  0.12947851728E+03  0.00000000000E+00 0. -1.
        -13    1    5    5    0    0  0.39113230285E+03 -0.11447392963E+03 -0.23448043991E+03  0.47018064145E+03  0.00000000000E+00 0.  1.
          4    1    6    6  503    0 -0.20680290976E+03  0.84060402721E+02  0.17711350600E+03  0.28496103032E+03  0.00000000000E+00 0.  1.
         -4    1    6    6    0  503 -0.10739935907E+03 -0.22252035694E+02  0.94178076276E+02  0.14456585168E+03  0.00000000000E+00 0. -1.
<mgrwt>
<rscale>  0 0.12781264E+04</rscale>
<asrwt>0</asrwt>
<pdfrwt beam="1">  1        3 0.11039666E+00 0.12781264E+04</pdfrwt>
<pdfrwt beam="2">  1       -4 0.87559837E-01 0.12781264E+04</pdfrwt>
<totfact> 0.17547945E+00</totfact>
</mgrwt>
</event>
<event>
12    5  0.5041746E-008  0.2722484E+04  0.7818608E-02  0.8327746E-01
          3   -1    0    0  501    0  0.00000000000E+00  0.00000000000E+00  0.81240390411E+03  0.81240390411E+03  0.00000000000E+00 0. -1.
         -4   -1    0    0    0  501 -0.00000000000E+00 -0.00000000000E+00 -0.22808597200E+04  0.22808597200E+04  0.00000000000E+00 0.  1.
        -24    2    1    2    0    0 -0.17572306216E+03  0.11944292179E+04 -0.71885970061E+03  0.14074312597E+04  0.81016852433E+02 0.  0.
        254    2    1    2    0    0  0.17572306216E+03 -0.11944292179E+04 -0.74959611530E+03  0.16858323645E+04  0.90697115386E+03 0.  0.
         23    2    4    4    0    0 -0.14975126008E+03 -0.17588979125E+03  0.14572181131E+03  0.28796435838E+03  0.91246736072E+02 0.  0.
         23    2    4    4    0    0  0.32547432224E+03 -0.10185394266E+04 -0.89531792661E+03  0.13978680061E+04  0.95313560083E+02 0.  0.
          1    1    3    3  502    0 -0.73445033375E+02  0.52754569455E+03 -0.36387433285E+03  0.64506058853E+03  0.00000000000E+00 0. -1.
         -2    1    3    3    0  502 -0.10227802879E+03  0.66688352334E+03 -0.35498536775E+03  0.76237067113E+03  0.00000000000E+00 0.  1.
         13    1    5    5    0    0 -0.13121104614E+03 -0.18569321058E+03  0.13457947986E+03  0.26421571392E+03  0.00000000000E+00 0. -1.
        -13    1    5    5    0    0 -0.18540213935E+02  0.98034193283E+01  0.11142331448E+02  0.23748644454E+02  0.00000000000E+00 0.  1.
          1    1    6    6  503    0  0.22610215287E+03 -0.68509615645E+03 -0.66030341233E+03  0.97799771137E+03  0.00000000000E+00 0. -1.
         -1    1    6    6    0  503  0.99372169372E+02 -0.33344327018E+03 -0.23501451428E+03  0.41987029473E+03  0.00000000000E+00 0.  1.
<mgrwt>
<rscale>  0 0.27224837E+04</rscale>
<asrwt>0</asrwt>
<pdfrwt beam="1">  1        3 0.12498522E+00 0.27224837E+04</pdfrwt>
<pdfrwt beam="2">  1       -4 0.35090149E+00 0.27224837E+04</pdfrwt>
<totfact> 0.14903368E-02</totfact>
</mgrwt>
</event>
<event>
12    5  0.7192277E-008  0.2525666E+04  0.7818608E-02  0.8393898E-01
          1   -1    0    0  501    0  0.00000000000E+00  0.00000000000E+00  0.14554528419E+04  0.14554528419E+04  0.00000000000E+00 0. -1.
         -2   -1    0    0    0  501 -0.00000000000E+00 -0.00000000000E+00 -0.10957053867E+04  0.10957053867E+04  0.00000000000E+00 0.  1.
        -24    2    1    2    0    0 -0.48475347651E+03  0.82535893923E+03 -0.38353797774E+03  0.10341533910E+04  0.78540079966E+02 0.  0.
        254    2    1    2    0    0  0.48475347651E+03 -0.82535893923E+03  0.74328543292E+03  0.15170048377E+04  0.91248404436E+03 0.  0.
         23    2    4    4    0    0  0.48565771848E+02 -0.46942339336E+03  0.81114273042E+03  0.94299720341E+03  0.92597192766E+02 0.  0.
         23    2    4    4    0    0  0.43618770466E+03 -0.35593554587E+03 -0.67857297498E+02  0.57400763427E+03  0.89052371490E+02 0.  0.
          1    1    3    3  502    0 -0.67996224969E+02  0.16269792877E+03 -0.91253230614E+02  0.19854786510E+03  0.00000000000E+00 0. -1.
         -2    1    3    3    0  502 -0.41675725154E+03  0.66266101045E+03 -0.29228474713E+03  0.83560552588E+03  0.00000000000E+00 0.  1.
         13    1    5    5    0    0  0.36848513998E+02 -0.40833678411E+03  0.75531657577E+03  0.85941833345E+03  0.00000000000E+00 0. -1.
        -13    1    5    5    0    0  0.11717257850E+02 -0.61086609252E+02  0.55826154647E+02  0.83578869962E+02  0.00000000000E+00 0.  1.
          4    1    6    6  503    0  0.43236163282E+03 -0.36123510165E+03 -0.67793057625E+02  0.56747094979E+03  0.00000000000E+00 0. -1.
         -4    1    6    6    0  503  0.38260718395E+01  0.52995557799E+01 -0.64239873173E-01  0.65366844766E+01  0.00000000000E+00 0.  1.
<mgrwt>
<rscale>  0 0.25256663E+04</rscale>
<asrwt>0</asrwt>
<pdfrwt beam="1">  1        1 0.22391582E+00 0.25256663E+04</pdfrwt>
<pdfrwt beam="2">  1       -2 0.16857006E+00 0.25256663E+04</pdfrwt>
<totfact> 0.11931714E+00</totfact>
</mgrwt>
</event>
<event>
12    5  0.5041746E-008  0.1369394E+04  0.7818608E-02  0.8976275E-01
         -2   -1    0    0    0  501 -0.00000000000E+00  0.00000000000E+00  0.67752876923E+03  0.67752876923E+03  0.00000000000E+00 0.  1.
          1   -1    0    0  501    0  0.00000000000E+00 -0.00000000000E+00 -0.69194141010E+03  0.69194141010E+03  0.00000000000E+00 0. -1.
        -24    2    1    2    0    0 -0.72641556205E+02  0.21534706410E+03  0.30510582832E+03  0.38881047903E+03  0.80205164564E+02 0.  0.
        254    2    1    2    0    0  0.72641556205E+02 -0.21534706410E+03 -0.31951846919E+03  0.98065970029E+03  0.89886052418E+03 0.  0.
         23    2    4    4    0    0 -0.36894644019E+03 -0.22725447812E+03 -0.28807158541E+03  0.52797668138E+03  0.89487788018E+02 0.  0.
         23    2    4    4    0    0  0.44158799640E+03  0.11907414016E+02 -0.31446883776E+02  0.45268301891E+03  0.93761740828E+02 0.  0.
          1    1    3    3  502    0 -0.22708628582E+02  0.85592306460E+01  0.13238246616E+02  0.27644048452E+02  0.00000000000E+00 0. -1.
         -2    1    3    3    0  502 -0.49932927623E+02  0.20678783346E+03  0.29186758170E+03  0.36116643058E+03  0.00000000000E+00 0.  1.
         13    1    5    5    0    0 -0.30122901196E+03 -0.18165349633E+03 -0.27226540284E+03  0.44482059300E+03  0.00000000000E+00 0. -1.
        -13    1    5    5    0    0 -0.67717428235E+02 -0.45600981794E+02 -0.15806182568E+02  0.83156088380E+02  0.00000000000E+00 0.  1.
          4    1    6    6  503    0  0.26113198489E+03  0.25158628771E+02 -0.61010000465E+02  0.26934195791E+03  0.00000000000E+00 0. -1.
         -4    1    6    6    0  503  0.18045601150E+03 -0.13251214755E+02  0.29563116689E+02  0.18334106100E+03  0.00000000000E+00 0.  1.
<mgrwt>
<rscale>  0 0.13693943E+04</rscale>
<asrwt>0</asrwt>
<pdfrwt beam="1">  1        1 0.10645252E+00 0.13693943E+04</pdfrwt>
<pdfrwt beam="2">  1       -2 0.10423520E+00 0.13693943E+04</pdfrwt>
<totfact> 0.17751874E+01</totfact>
</mgrwt>
</event>
<event>
12    5  0.5041746E-008  0.2237947E+04  0.7818608E-02  0.8502798E-01
         -2   -1    0    0    0  501 -0.00000000000E+00  0.00000000000E+00  0.10396129866E+04  0.10396129866E+04  0.00000000000E+00 0.  1.
          1   -1    0    0  501    0  0.00000000000E+00 -0.00000000000E+00 -0.12043920226E+04  0.12043920226E+04  0.00000000000E+00 0. -1.
        -24    2    1    2    0    0  0.69687537153E+03 -0.68845808706E+02 -0.68913598266E+03  0.98577405851E+03  0.80418051504E+02 0.  0.
        254    2    1    2    0    0 -0.69687537153E+03  0.68845808706E+02  0.52435694664E+03  0.12582309506E+04  0.90433394763E+03 0.  0.
         23    2    4    4    0    0  0.15584632963E+02 -0.27674479880E+03 -0.20352387589E+02  0.29269613022E+03  0.91794556029E+02 0.  0.
         23    2    4    4    0    0 -0.71246000450E+03  0.34559060751E+03  0.54470933423E+03  0.96553482042E+03  0.92288160911E+02 0.  0.
          1    1    3    3  502    0  0.64544267997E+03 -0.49195455691E+02 -0.61058566056E+03  0.88984902926E+03  0.00000000000E+00 0. -1.
         -2    1    3    3    0  502  0.51432691560E+02 -0.19650353014E+02 -0.78550322100E+02  0.95925029251E+02  0.00000000000E+00 0.  1.
         13    1    5    5    0    0  0.38098867851E+02 -0.94190412838E+02  0.21970796218E+02  0.10395226543E+03  0.00000000000E+00 0.  1.
        -13    1    5    5    0    0 -0.22514234888E+02 -0.18255438597E+03 -0.42323183807E+02  0.18874386479E+03  0.00000000000E+00 0. -1.
          1    1    6    6  503    0 -0.62028642806E+03  0.30497793176E+03  0.51002336951E+03  0.85900560484E+03  0.00000000000E+00 0. -1.
         -1    1    6    6    0  503 -0.92173576434E+02  0.40612675753E+02  0.34685964721E+02  0.10652921558E+03  0.00000000000E+00 0.  1.
<mgrwt>
<rscale>  0 0.22379469E+04</rscale>
<asrwt>0</asrwt>
<pdfrwt beam="1">  1        1 0.18529108E+00 0.22379469E+04</pdfrwt>
<pdfrwt beam="2">  1       -2 0.15994046E+00 0.22379469E+04</pdfrwt>
<totfact> 0.21322138E+00</totfact>
</mgrwt>
</event>
<event>
12    5  0.5041746E-008  0.1453204E+04  0.7818608E-02  0.8916183E-01
         -2   -1    0    0    0  501 -0.00000000000E+00  0.00000000000E+00  0.90019006079E+03  0.90019006079E+03  0.00000000000E+00 0.  1.
          3   -1    0    0  501    0  0.00000000000E+00 -0.00000000000E+00 -0.58648739179E+03  0.58648739179E+03  0.00000000000E+00 0. -1.
        -24    2    1    2    0    0 -0.20170342248E+03 -0.34899784050E+03  0.27967610577E+03  0.49694504490E+03  0.79068895234E+02 0.  0.
        254    2    1    2    0    0  0.20170342248E+03  0.34899784050E+03  0.34026563235E+02  0.98973240768E+03  0.90328769973E+03 0.  0.
         23    2    4    4    0    0  0.53184446540E+02  0.20763716332E+03 -0.42162184182E+03  0.48164209490E+03  0.90952477338E+02 0.  0.
         23    2    4    4    0    0  0.14851897594E+03  0.14136067718E+03  0.45564840506E+03  0.50809031278E+03  0.92193110574E+02 0.  0.
          3    1    3    3  502    0 -0.13379314982E+03 -0.26895732672E+03  0.17014142092E+03  0.34523434599E+03  0.00000000000E+00 0. -1.
         -4    1    3    3    0  502 -0.67910272664E+02 -0.80040513784E+02  0.10953468485E+03  0.15171069891E+03  0.00000000000E+00 0.  1.
         13    1    5    5    0    0  0.43993703365E+02  0.12873161717E+03 -0.16973327163E+03  0.21752392672E+03  0.00000000000E+00 0.  1.
        -13    1    5    5    0    0  0.91907431750E+01  0.78905546151E+02 -0.25188857019E+03  0.26411816819E+03  0.00000000000E+00 0. -1.
          3    1    6    6  503    0  0.94982964237E+02  0.79419002060E+02  0.16596122873E+03  0.20705620209E+03  0.00000000000E+00 0. -1.
         -3    1    6    6    0  503  0.53536011706E+02  0.61941675123E+02  0.28968717633E+03  0.30103411069E+03  0.00000000000E+00 0.  1.
<mgrwt>
<rscale>  0 0.14532035E+04</rscale>
<asrwt>0</asrwt>
<pdfrwt beam="1">  1        3 0.90228829E-01 0.14532035E+04</pdfrwt>
<pdfrwt beam="2">  1       -2 0.13849078E+00 0.14532035E+04</pdfrwt>
<totfact> 0.16541493E+00</totfact>
</mgrwt>
</event>
<event>
12    5  0.5041746E-008  0.1582390E+04  0.7818608E-02  0.8831440E-01
          1   -1    0    0  501    0  0.00000000000E+00  0.00000000000E+00  0.14451294176E+04  0.14451294176E+04  0.00000000000E+00 0. -1.
         -2   -1    0    0    0  501 -0.00000000000E+00 -0.00000000000E+00 -0.43317173011E+03  0.43317173011E+03  0.00000000000E+00 0.  1.
        -24    2    1    2    0    0 -0.24965653610E+02  0.25687806687E+03  0.89270679954E+03  0.93259076479E+03  0.78679600491E+02 0.  0.
        254    2    1    2    0    0  0.24965653610E+02 -0.25687806687E+03  0.11925088798E+03  0.94571038295E+03  0.90196326369E+03 0.  0.
         23    2    4    4    0    0 -0.75516244919E+02 -0.20858929805E+03 -0.36695699803E+03  0.43844819771E+03  0.91472319100E+02 0.  0.
         23    2    4    4    0    0  0.10048189853E+03 -0.48288768817E+02  0.48620788601E+03  0.50726218524E+03  0.92132508011E+02 0.  0.
          1    1    3    3  502    0 -0.27437526268E+02  0.24236814135E+03  0.73971216765E+03  0.77888973851E+03  0.00000000000E+00 0. -1.
         -2    1    3    3    0  502  0.24718726571E+01  0.14509925521E+02  0.15299463188E+03  0.15370102628E+03  0.00000000000E+00 0.  1.
         13    1    5    5    0    0 -0.22658354570E+01 -0.13598622400E+03 -0.22643037085E+03  0.26413651768E+03  0.00000000000E+00 0.  1.
        -13    1    5    5    0    0 -0.73250409462E+02 -0.72603074055E+02 -0.14052662718E+03  0.17431168003E+03  0.00000000000E+00 0. -1.
          3    1    6    6  503    0  0.37127363712E+01 -0.21253590977E+02  0.17142604927E+02  0.27556640660E+02  0.00000000000E+00 0. -1.
         -3    1    6    6    0  503  0.96769162158E+02 -0.27035177840E+02  0.46906528108E+03  0.47970554458E+03  0.00000000000E+00 0.  1.
<mgrwt>
<rscale>  0 0.15823896E+04</rscale>
<asrwt>0</asrwt>
<pdfrwt beam="1">  1        1 0.22232760E+00 0.15823896E+04</pdfrwt>
<pdfrwt beam="2">  1       -2 0.66641806E-01 0.15823896E+04</pdfrwt>
<totfact> 0.12458823E+01</totfact>
</mgrwt>
</event>
<event>
12    5  0.5041746E-008  0.1913304E+04  0.7818608E-02  0.8648262E-01
          1   -1    0    0  501    0  0.00000000000E+00  0.00000000000E+00  0.42104170781E+03  0.42104170781E+03  0.00000000000E+00 0. -1.
         -2   -1    0    0    0  501 -0.00000000000E+00 -0.00000000000E+00 -0.21736164017E+04  0.21736164017E+04  0.00000000000E+00 0.  1.
        -24    2    1    2    0    0 -0.61157955664E+03 -0.37254124459E+03 -0.38473087629E+03  0.81668727947E+03  0.78381963915E+02 0.  0.
        254    2    1    2    0    0  0.61157955664E+03  0.37254124459E+03 -0.13678438176E+04  0.17779708300E+04  0.88168420090E+03 0.  0.
         23    2    4    4    0    0  0.20051084836E+01  0.49730988231E+03 -0.56070266672E+03  0.75487500587E+03  0.90153505360E+02 0.  0.
         23    2    4    4    0    0  0.60957444815E+03 -0.12476863772E+03 -0.80714115086E+03  0.10230958242E+04  0.90000039901E+02 0.  0.
          3    1    3    3  502    0 -0.33451885705E+03 -0.21397738440E+03 -0.25609289363E+03  0.47251746732E+03  0.00000000000E+00 0. -1.
         -4    1    3    3    0  502 -0.27706069958E+03 -0.15856386019E+03 -0.12863798266E+03  0.34416981215E+03  0.00000000000E+00 0.  1.
         13    1    5    5    0    0  0.35636362113E+02  0.29195937406E+03 -0.28594244127E+03  0.41021129449E+03  0.00000000000E+00 0. -1.
        -13    1    5    5    0    0 -0.33631253629E+02  0.20535050824E+03 -0.27476022545E+03  0.34466371138E+03  0.00000000000E+00 0.  1.
          2    1    6    6  503    0  0.59260288524E+03 -0.13606160477E+03 -0.78604855912E+03  0.99376218341E+03  0.00000000000E+00 0. -1.
         -2    1    6    6    0  503  0.16971562917E+02  0.11292967052E+02 -0.21092591737E+02  0.29333640737E+02  0.00000000000E+00 0.  1.
<mgrwt>
<rscale>  0 0.19133041E+04</rscale>
<asrwt>0</asrwt>
<pdfrwt beam="1">  1        1 0.64775649E-01 0.19133041E+04</pdfrwt>
<pdfrwt beam="2">  1       -2 0.33440251E+00 0.19133041E+04</pdfrwt>
<totfact> 0.89477312E-01</totfact>
</mgrwt>
</event>
<event>
12    5  0.5041746E-008  0.1586343E+04  0.7818608E-02  0.8828982E-01
         -2   -1    0    0    0  501 -0.00000000000E+00  0.00000000000E+00  0.34346170015E+03  0.34346170015E+03  0.00000000000E+00 0.  1.
          1   -1    0    0  501    0  0.00000000000E+00 -0.00000000000E+00 -0.18317054716E+04  0.18317054716E+04  0.00000000000E+00 0. -1.
        -24    2    1    2    0    0  0.13914885222E+03 -0.17912062685E+02  0.20674314793E+03  0.26175321460E+03  0.78030577822E+02 0.  0.
        254    2    1    2    0    0 -0.13914885222E+03  0.17912062685E+02 -0.16949869193E+04  0.19134139571E+04  0.87663508340E+03 0.  0.
         23    2    4    4    0    0 -0.85535870698E+02  0.35206980438E+03 -0.31242321311E+03  0.48697068507E+03  0.90899129219E+02 0.  0.
         23    2    4    4    0    0 -0.53612981518E+02 -0.33415774170E+03 -0.13825637062E+04  0.14264432720E+04  0.93393031979E+02 0.  0.
          3    1    3    3  502    0  0.24605869903E+02  0.21003242559E+02  0.81212934097E+02  0.87419252435E+02  0.00000000000E+00 0. -1.
         -4    1    3    3    0  502  0.11454298231E+03 -0.38915305244E+02  0.12553021383E+03  0.17433396217E+03  0.00000000000E+00 0.  1.
         13    1    5    5    0    0 -0.67488145030E+02  0.34830143381E+03 -0.29233795425E+03  0.45970644765E+03  0.00000000000E+00 0.  1.
        -13    1    5    5    0    0 -0.18047725668E+02  0.37683705682E+01 -0.20085258861E+02  0.27264237419E+02  0.00000000000E+00 0. -1.
          1    1    6    6  503    0 -0.71788136053E+02 -0.15312894961E+03 -0.67384348317E+03  0.69474243537E+03  0.00000000000E+00 0.  1.
         -1    1    6    6    0  503  0.18175154535E+02 -0.18102879209E+03 -0.70872022307E+03  0.73170083668E+03  0.00000000000E+00 0. -1.
<mgrwt>
<rscale>  0 0.15863426E+04</rscale>
<asrwt>0</asrwt>
<pdfrwt beam="1">  1        1 0.28180084E+00 0.15863426E+04</pdfrwt>
<pdfrwt beam="2">  1       -2 0.52840263E-01 0.15863426E+04</pdfrwt>
<totfact> 0.11045509E+01</totfact>
</mgrwt>
</event>
<event>
12    5  0.5041746E-008  0.1352376E+04  0.7818608E-02  0.8989031E-01
         -2   -1    0    0    0  501 -0.00000000000E+00  0.00000000000E+00  0.44312858794E+03  0.44312858794E+03  0.00000000000E+00 0.  1.
          1   -1    0    0  501    0  0.00000000000E+00 -0.00000000000E+00 -0.10318230863E+04  0.10318230863E+04  0.00000000000E+00 0. -1.
        -24    2    1    2    0    0 -0.29045471706E+03  0.12812072411E+03 -0.40725565105E+03  0.52264772048E+03  0.80775069150E+02 0.  0.
        254    2    1    2    0    0  0.29045471706E+03 -0.12812072411E+03 -0.18143884731E+03  0.95230395376E+03  0.87930876399E+03 0.  0.
         23    2    4    4    0    0  0.10094201889E+03  0.32024750181E+03 -0.28359913541E+03  0.44651152109E+03  0.78716677195E+02 0.  0.
         23    2    4    4    0    0  0.18951269817E+03 -0.44836822593E+03  0.10216028810E+03  0.50579243267E+03  0.91870189353E+02 0.  0.
          1    1    3    3  502    0 -0.79012716935E+02  0.33984980984E+01 -0.13153258655E+03  0.15347762231E+03  0.00000000000E+00 0. -1.
         -2    1    3    3    0  502 -0.21144200012E+03  0.12472222602E+03 -0.27572306450E+03  0.36917009816E+03  0.00000000000E+00 0.  1.
         13    1    5    5    0    0  0.97441121365E+02  0.24423009242E+03 -0.25169390599E+03  0.36399578636E+03  0.00000000000E+00 0.  1.
        -13    1    5    5    0    0  0.35008975226E+01  0.76017409392E+02 -0.31905229428E+02  0.82515734736E+02  0.00000000000E+00 0. -1.
          3    1    6    6  503    0  0.19034809065E+02 -0.40527987347E+01  0.34455799629E+01  0.19764138104E+02  0.00000000000E+00 0. -1.
         -3    1    6    6    0  503  0.17047788911E+03 -0.44431542719E+03  0.98714708137E+02  0.48602829456E+03  0.00000000000E+00 0.  1.
<mgrwt>
<rscale>  0 0.13523761E+04</rscale>
<asrwt>0</asrwt>
<pdfrwt beam="1">  1        1 0.15874201E+00 0.13523761E+04</pdfrwt>
<pdfrwt beam="2">  1       -2 0.68173630E-01 0.13523761E+04</pdfrwt>
<totfact> 0.24150822E+01</totfact>
</mgrwt>
</event>
<event>
12    5  0.5041746E-008  0.2402709E+04  0.7818608E-02  0.8438490E-01
         -2   -1    0    0    0  501 -0.00000000000E+00  0.00000000000E+00  0.11900269486E+04  0.11900269486E+04  0.00000000000E+00 0.  1.
          1   -1    0    0  501    0  0.00000000000E+00 -0.00000000000E+00 -0.12127894787E+04  0.12127894787E+04  0.00000000000E+00 0. -1.
        -24    2    1    2    0    0  0.56525184121E+03  0.44132854390E+03 -0.74987511737E+03  0.10409286744E+04  0.83302376308E+02 0.  0.
        254    2    1    2    0    0 -0.56525184121E+03 -0.44132854390E+03  0.72711258725E+03  0.13618877529E+04  0.90098002708E+03 0.  0.
         23    2    4    4    0    0 -0.75554936617E+03 -0.37657427818E+03  0.33521890514E+03  0.91282306625E+03  0.90615695128E+02 0.  0.
         23    2    4    4    0    0  0.19029752496E+03 -0.64754265722E+02  0.39189368211E+03  0.44906468661E+03  0.87590934183E+02 0.  0.
          1    1    3    3  502    0  0.36727618689E+03  0.31306413276E+03 -0.55029722142E+03  0.73193441003E+03  0.00000000000E+00 0. -1.
         -2    1    3    3    0  502  0.19797565432E+03  0.12826441113E+03 -0.19957789595E+03  0.30899426437E+03  0.00000000000E+00 0.  1.
         13    1    5    5    0    0 -0.64125652050E+03 -0.33694981941E+03  0.31609049852E+03  0.79035328122E+03  0.00000000000E+00 0.  1.
        -13    1    5    5    0    0 -0.11429284567E+03 -0.39624458771E+02  0.19128406619E+02  0.12246978503E+03  0.00000000000E+00 0. -1.
          3    1    6    6  503    0  0.24098093935E+02  0.17347046962E+02  0.90302997148E+02  0.95059294461E+02  0.00000000000E+00 0. -1.
         -3    1    6    6    0  503  0.16619943102E+03 -0.82101312684E+02  0.30159068496E+03  0.35400539215E+03  0.00000000000E+00 0.  1.
<mgrwt>
<rscale>  0 0.24027086E+04</rscale>
<asrwt>0</asrwt>
<pdfrwt beam="1">  1        1 0.18658300E+00 0.24027086E+04</pdfrwt>
<pdfrwt beam="2">  1       -2 0.18308107E+00 0.24027086E+04</pdfrwt>
<totfact> 0.14196215E+00</totfact>
</mgrwt>
</event>
<event>
12    5  0.5041746E-008  0.1677256E+04  0.7818608E-02  0.8774444E-01
          1   -1    0    0  501    0  0.00000000000E+00  0.00000000000E+00  0.39365484068E+03  0.39365484068E+03  0.00000000000E+00 0. -1.
         -2   -1    0    0    0  501 -0.00000000000E+00 -0.00000000000E+00 -0.17865823522E+04  0.17865823522E+04  0.00000000000E+00 0.  1.
        -24    2    1    2    0    0 -0.60019109184E+02 -0.56969854098E+03 -0.62888471316E+03  0.85458316178E+03  0.81594588592E+02 0.  0.
        254    2    1    2    0    0  0.60019109184E+02  0.56969854098E+03 -0.76404279831E+03  0.13256540310E+04  0.91947729244E+03 0.  0.
         23    2    4    4    0    0 -0.70468400390E+02  0.16644215257E+03 -0.85955836930E+03  0.88285926580E+03  0.89056764891E+02 0.  0.
         23    2    4    4    0    0  0.13048750957E+03  0.40325638841E+03  0.95515570991E+02  0.44279476524E+03  0.85447497778E+02 0.  0.
          1    1    3    3  502    0 -0.22105545409E+02 -0.36679783948E+03 -0.34872250269E+03  0.50659322347E+03  0.00000000000E+00 0. -1.
         -2    1    3    3    0  502 -0.37913563775E+02 -0.20290070150E+03 -0.28016221047E+03  0.34798993831E+03  0.00000000000E+00 0.  1.
         13    1    5    5    0    0  0.20964291181E+02  0.41547397597E+02 -0.21443972302E+03  0.21943127070E+03  0.00000000000E+00 0. -1.
        -13    1    5    5    0    0 -0.91432691571E+02  0.12489475497E+03 -0.64511864628E+03  0.66342799510E+03  0.00000000000E+00 0.  1.
          4    1    6    6  503    0  0.67349963929E+02  0.27197207735E+03  0.26028592057E+02  0.28139352534E+03  0.00000000000E+00 0.  1.
         -4    1    6    6    0  503  0.63137545645E+02  0.13128431106E+03  0.69486978935E+02  0.16140123990E+03  0.00000000000E+00 0. -1.
<mgrwt>
<rscale>  0 0.16772558E+04</rscale>
<asrwt>0</asrwt>
<pdfrwt beam="1">  1        1 0.60562284E-01 0.16772558E+04</pdfrwt>
<pdfrwt beam="2">  1       -2 0.27485882E+00 0.16772558E+04</pdfrwt>
<totfact> 0.23154113E+00</totfact>
</mgrwt>
</event>
<event>
12    5  0.5041746E-008  0.1965798E+04  0.7818608E-02  0.8622780E-01
          1   -1    0    0  501    0  0.00000000000E+00  0.00000000000E+00  0.96642915155E+03  0.96642915155E+03  0.00000000000E+00 0. -1.
         -2   -1    0    0    0  501 -0.00000000000E+00 -0.00000000000E+00 -0.99964992563E+03  0.99964992563E+03  0.00000000000E+00 0.  1.
        -24    2    1    2    0    0  0.19206502416E+03 -0.16330774135E+03  0.71749384014E+03  0.76469040596E+03  0.79972585595E+02 0.  0.
        254    2    1    2    0    0 -0.19206502416E+03  0.16330774135E+03 -0.75071461421E+03  0.12013886712E+04  0.90344004528E+03 0.  0.
         23    2    4    4    0    0 -0.36771458846E+03 -0.12594329392E+03 -0.75159242072E+03  0.85104346988E+03  0.91148718522E+02 0.  0.
         23    2    4    4    0    0  0.17564956430E+03  0.28925103527E+03  0.87780650557E+00  0.35034520133E+03  0.90675568412E+02 0.  0.
          1    1    3    3  502    0  0.61981690776E+02 -0.81429869053E+02  0.38532106266E+03  0.39867891203E+03  0.00000000000E+00 0. -1.
         -2    1    3    3    0  502  0.13008333339E+03 -0.81877872297E+02  0.33217277748E+03  0.36601149394E+03  0.00000000000E+00 0.  1.
         13    1    5    5    0    0 -0.11546728653E+03 -0.81128493432E+02 -0.22815203360E+03  0.26826829321E+03  0.00000000000E+00 0. -1.
        -13    1    5    5    0    0 -0.25224730193E+03 -0.44814800487E+02 -0.52344038712E+03  0.58277517667E+03  0.00000000000E+00 0.  1.
          4    1    6    6  503    0  0.16270684368E+03  0.26445725764E+03 -0.25957612053E+02  0.31158458839E+03  0.00000000000E+00 0. -1.
         -4    1    6    6    0  503  0.12942720620E+02  0.24793777627E+02  0.26835418558E+02  0.38760612937E+02  0.00000000000E+00 0.  1.
<mgrwt>
<rscale>  0 0.19657984E+04</rscale>
<asrwt>0</asrwt>
<pdfrwt beam="1">  1        1 0.14868141E+00 0.19657984E+04</pdfrwt>
<pdfrwt beam="2">  1       -2 0.15379230E+00 0.19657984E+04</pdfrwt>
<totfact> 0.36761805E+00</totfact>
</mgrwt>
</event>
<event>
12    5  0.5041746E-008  0.1497601E+04  0.7818608E-02  0.8886050E-01
          1   -1    0    0  501    0  0.00000000000E+00  0.00000000000E+00  0.16660922697E+04  0.16660922697E+04  0.00000000000E+00 0. -1.
         -2   -1    0    0    0  501 -0.00000000000E+00 -0.00000000000E+00 -0.33653729233E+03  0.33653729233E+03  0.00000000000E+00 0.  1.
        -24    2    1    2    0    0 -0.32427638858E+03 -0.17348445244E+02  0.89167288456E+03  0.95228576703E+03  0.79444976447E+02 0.  0.
        254    2    1    2    0    0  0.32427638858E+03  0.17348445244E+02  0.43788209278E+03  0.10503437950E+04  0.89778907083E+03 0.  0.
         23    2    4    4    0    0  0.55916303237E+03  0.78010798681E+01  0.53584855019E+03  0.77955822901E+03  0.88618339295E+02 0.  0.
         23    2    4    4    0    0 -0.23488664379E+03  0.95473653760E+01 -0.97966457413E+02  0.27078556596E+03  0.92002762645E+02 0.  0.
          1    1    3    3  502    0 -0.12837315196E+03 -0.23077261552E+02  0.46137045530E+03  0.47945273298E+03  0.00000000000E+00 0. -1.
         -2    1    3    3    0  502 -0.19590323662E+03  0.57288163078E+01  0.43030242926E+03  0.47283303404E+03  0.00000000000E+00 0.  1.
         13    1    5    5    0    0  0.23958370037E+02  0.12677895693E+02  0.49172751013E+02  0.56148837711E+02  0.00000000000E+00 0.  1.
        -13    1    5    5    0    0  0.53520466233E+03 -0.48768158245E+01  0.48667579918E+03  0.72340939130E+03  0.00000000000E+00 0. -1.
          1    1    6    6  503    0 -0.16934243196E+03  0.40950809331E+02 -0.94081508612E+02  0.19800292500E+03  0.00000000000E+00 0. -1.
         -1    1    6    6    0  503 -0.65544211835E+02 -0.31403443955E+02 -0.38849488017E+01  0.72782640955E+02  0.00000000000E+00 0.  1.
<mgrwt>
<rscale>  0 0.14976010E+04</rscale>
<asrwt>0</asrwt>
<pdfrwt beam="1">  1        1 0.25632188E+00 0.14976010E+04</pdfrwt>
<pdfrwt beam="2">  1       -2 0.51774969E-01 0.14976010E+04</pdfrwt>
<totfact> 0.15040539E+01</totfact>
</mgrwt>
</event>
<event>
12    5  0.5041746E-008  0.1870583E+04  0.7818608E-02  0.8669639E-01
          1   -1    0    0  501    0  0.00000000000E+00  0.00000000000E+00  0.52391597506E+03  0.52391597506E+03  0.00000000000E+00 0. -1.
         -2   -1    0    0    0  501 -0.00000000000E+00 -0.00000000000E+00 -0.16696762591E+04  0.16696762591E+04  0.00000000000E+00 0.  1.
        -24    2    1    2    0    0 -0.96106093445E+02  0.66034203502E+00  0.38709027685E+03  0.40675004875E+03  0.79811668845E+02 0.  0.
        254    2    1    2    0    0  0.96106093445E+02 -0.66034203502E+00 -0.15328505609E+04  0.17868421854E+04  0.91320169528E+03 0.  0.
         23    2    4    4    0    0 -0.23253552114E+03 -0.31146288519E+03 -0.10299699625E+04  0.11044941956E+04  0.89372294630E+02 0.  0.
         23    2    4    4    0    0  0.32864161458E+03  0.31080254316E+03 -0.50288059839E+03  0.68234798979E+03  0.90035277880E+02 0.  0.
          1    1    3    3  502    0 -0.10383628401E+03 -0.13751704541E+02  0.29097173492E+03  0.30925011524E+03  0.00000000000E+00 0. -1.
         -2    1    3    3    0  502  0.77301905670E+01  0.14412046576E+02  0.96118541930E+02  0.97499933515E+02  0.00000000000E+00 0.  1.
         13    1    5    5    0    0 -0.10774870081E+03 -0.77973133897E+02 -0.30684830168E+03  0.33443306113E+03  0.00000000000E+00 0. -1.
        -13    1    5    5    0    0 -0.12478682033E+03 -0.23348975129E+03 -0.72312166081E+03  0.77006113447E+03  0.00000000000E+00 0.  1.
          4    1    6    6  503    0  0.31719560098E+03  0.28878118992E+03 -0.49760213367E+03  0.65697451120E+03  0.00000000000E+00 0.  1.
         -4    1    6    6    0  503  0.11446013601E+02  0.22021353241E+02 -0.52784647185E+01  0.25373478589E+02  0.00000000000E+00 0. -1.
<mgrwt>
<rscale>  0 0.18705829E+04</rscale>
<asrwt>0</asrwt>
<pdfrwt beam="1">  1        1 0.80602457E-01 0.18705829E+04</pdfrwt>
<pdfrwt beam="2">  1       -2 0.25687327E+00 0.18705829E+04</pdfrwt>
<totfact> 0.19882743E+00</totfact>
</mgrwt>
</event>
<event>
12    5  0.5041746E-008  0.2782508E+04  0.7818608E-02  0.8308720E-01
         -2   -1    0    0    0  501 -0.00000000000E+00  0.00000000000E+00  0.87818192712E+03  0.87818192712E+03  0.00000000000E+00 0.  1.
          1   -1    0    0  501    0  0.00000000000E+00 -0.00000000000E+00 -0.22040849855E+04  0.22040849855E+04  0.00000000000E+00 0. -1.
        -24    2    1    2    0    0  0.31604813956E+03  0.11985070321E+04 -0.74958763492E+03  0.14507044297E+04  0.79725701387E+02 0.  0.
        254    2    1    2    0    0 -0.31604813956E+03 -0.11985070321E+04 -0.57631542343E+03  0.16315624829E+04  0.89081487176E+03 0.  0.
         23    2    4    4    0    0 -0.29667438752E+03 -0.48470656840E+03 -0.69452507851E+03  0.90199866196E+03  0.90996438566E+02 0.  0.
         23    2    4    4    0    0 -0.19373752035E+02 -0.71380046370E+03  0.11820965507E+03  0.72956382093E+03  0.91670071490E+02 0.  0.
          3    1    3    3  502    0  0.25797800833E+03  0.10187286508E+04 -0.66570565265E+03  0.12439954713E+04  0.00000000000E+00 0. -1.
         -4    1    3    3    0  502  0.58070131229E+02  0.17977838130E+03 -0.83881982269E+02  0.20670895837E+03  0.00000000000E+00 0.  1.
         13    1    5    5    0    0 -0.17750936529E+03 -0.32129508693E+03 -0.38230542102E+03  0.52999768168E+03  0.00000000000E+00 0. -1.
        -13    1    5    5    0    0 -0.11916502223E+03 -0.16341148147E+03 -0.31221965749E+03  0.37200098027E+03  0.00000000000E+00 0.  1.
          1    1    6    6  503    0  0.10932745207E+02 -0.12471369368E+03  0.53552309185E+02  0.13616490050E+03  0.00000000000E+00 0. -1.
         -1    1    6    6    0  503 -0.30306497242E+02 -0.58908677001E+03  0.64657345889E+02  0.59339892042E+03  0.00000000000E+00 0.  1.
<mgrwt>
<rscale>  0 0.27825079E+04</rscale>
<asrwt>0</asrwt>
<pdfrwt beam="1">  1        1 0.33909000E+00 0.27825079E+04</pdfrwt>
<pdfrwt beam="2">  1       -2 0.13510491E+00 0.27825079E+04</pdfrwt>
<totfact> 0.64962620E-01</totfact>
</mgrwt>
</event>
<event>
12    5  0.5041746E-008  0.2852163E+04  0.7818608E-02  0.8287254E-01
         -2   -1    0    0    0  501 -0.00000000000E+00  0.00000000000E+00  0.10824689114E+04  0.10824689114E+04  0.00000000000E+00 0.  1.
          1   -1    0    0  501    0  0.00000000000E+00 -0.00000000000E+00 -0.18787688388E+04  0.18787688388E+04  0.00000000000E+00 0. -1.
        -24    2    1    2    0    0 -0.29340893150E+03  0.10358330403E+04 -0.10875952046E+04  0.15323079132E+04  0.77880186211E+02 0.  0.
        254    2    1    2    0    0  0.29340893150E+03 -0.10358330403E+04  0.29129527729E+03  0.14289298369E+04  0.89327971648E+03 0.  0.
         23    2    4    4    0    0  0.31309491927E+03 -0.54460014448E+02 -0.13133888089E+03  0.35630293242E+03  0.93314288169E+02 0.  0.
         23    2    4    4    0    0 -0.19685987767E+02 -0.98137302583E+03  0.42263415818E+03  0.10726269045E+04  0.91805722378E+02 0.  0.
          3    1    3    3  502    0 -0.24212906120E+03  0.77608070867E+03 -0.85614219129E+03  0.11806384715E+04  0.00000000000E+00 0. -1.
         -4    1    3    3    0  502 -0.51279870297E+02  0.25975233161E+03 -0.23145301335E+03  0.35166944176E+03  0.00000000000E+00 0.  1.
         13    1    5    5    0    0  0.19233647947E+03 -0.34147293082E+02 -0.30580349398E+02  0.19772333380E+03  0.00000000000E+00 0.  1.
        -13    1    5    5    0    0  0.12075843980E+03 -0.20312721365E+02 -0.10075853149E+03  0.15857959862E+03  0.00000000000E+00 0. -1.
          1    1    6    6  503    0  0.36622014856E+02 -0.43517202444E+03  0.18195076646E+03  0.47309823953E+03  0.00000000000E+00 0. -1.
         -1    1    6    6    0  503 -0.56308002623E+02 -0.54620100139E+03  0.24068339171E+03  0.59952866497E+03  0.00000000000E+00 0.  1.
<mgrwt>
<rscale>  0 0.28521633E+04</rscale>
<asrwt>0</asrwt>
<pdfrwt beam="1">  1        1 0.28904136E+00 0.28521633E+04</pdfrwt>
<pdfrwt beam="2">  1       -2 0.16653368E+00 0.28521633E+04</pdfrwt>
<totfact> 0.61572410E-01</totfact>
</mgrwt>
</event>
<event>
12    5  0.5041746E-008  0.1550907E+04  0.7818608E-02  0.8851288E-01
          1   -1    0    0  501    0  0.00000000000E+00  0.00000000000E+00  0.21630758098E+04  0.21630758098E+04  0.00000000000E+00 0. -1.
         -2   -1    0    0    0  501 -0.00000000000E+00 -0.00000000000E+00 -0.27799686287E+03  0.27799686287E+03  0.00000000000E+00 0.  1.
        -24    2    1    2    0    0  0.43975703766E+02  0.51094738269E+03  0.61186613369E+03  0.80204122583E+03  0.76738986062E+02 0.  0.
        254    2    1    2    0    0 -0.43975703766E+02 -0.51094738269E+03  0.12732128133E+04  0.16390314469E+04  0.89574110406E+03 0.  0.
         23    2    4    4    0    0  0.39805393377E+03 -0.32143539765E+03  0.48287079682E+03  0.70913762153E+03  0.89130863283E+02 0.  0.
         23    2    4    4    0    0 -0.44202963754E+03 -0.18951198504E+03  0.79034201646E+03  0.92989382533E+03  0.93579006609E+02 0.  0.
          1    1    3    3  502    0  0.41289569189E+02  0.25142357663E+03  0.35419236271E+03  0.43631510770E+03  0.00000000000E+00 0. -1.
         -2    1    3    3    0  502  0.26861345769E+01  0.25952380606E+03  0.25767377098E+03  0.36572611813E+03  0.00000000000E+00 0.  1.
         13    1    5    5    0    0  0.17578085999E+03 -0.15376901900E+03  0.28017972381E+03  0.36475265534E+03  0.00000000000E+00 0. -1.
        -13    1    5    5    0    0  0.22227307378E+03 -0.16766637865E+03  0.20269107301E+03  0.34438496619E+03  0.00000000000E+00 0.  1.
          2    1    6    6  503    0 -0.13637570672E+02 -0.27985539762E+02  0.66294337353E+02  0.73240104688E+02  0.00000000000E+00 0.  1.
         -2    1    6    6    0  503 -0.42839206687E+03 -0.16152644528E+03  0.72404767910E+03  0.85665372064E+03  0.00000000000E+00 0. -1.
<mgrwt>
<rscale>  0 0.15509072E+04</rscale>
<asrwt>0</asrwt>
<pdfrwt beam="1">  1        1 0.33278088E+00 0.15509072E+04</pdfrwt>
<pdfrwt beam="2">  1       -2 0.42768749E-01 0.15509072E+04</pdfrwt>
<totfact> 0.10130050E+01</totfact>
</mgrwt>
</event>
<event>
12    5  0.5041746E-008  0.1595490E+04  0.7818608E-02  0.8823323E-01
          1   -1    0    0  501    0  0.00000000000E+00  0.00000000000E+00  0.15717813587E+04  0.15717813587E+04  0.00000000000E+00 0. -1.
         -2   -1    0    0    0  501 -0.00000000000E+00 -0.00000000000E+00 -0.40488919727E+03  0.40488919727E+03  0.00000000000E+00 0.  1.
        -24    2    1    2    0    0  0.46849101794E+03  0.25722587418E+03  0.51491743986E+03  0.74640104887E+03  0.79533462486E+02 0.  0.
        254    2    1    2    0    0 -0.46849101794E+03 -0.25722587418E+03  0.65197472153E+03  0.12302695071E+04  0.89601508818E+03 0.  0.
         23    2    4    4    0    0 -0.51516697404E+02 -0.45339889819E+03  0.50575808459E+02  0.46745802452E+03  0.87946354644E+02 0.  0.
         23    2    4    4    0    0 -0.41697432053E+03  0.19617302401E+03  0.60139891308E+03  0.76281148253E+03  0.88596082885E+02 0.  0.
          3    1    3    3  502    0  0.58343969944E+02  0.16745234665E+02  0.91140865211E+02  0.10950378543E+03  0.00000000000E+00 0. -1.
         -4    1    3    3    0  502  0.41014704799E+03  0.24048063951E+03  0.42377657465E+03  0.63689726344E+03  0.00000000000E+00 0.  1.
         13    1    5    5    0    0 -0.63066382248E+02 -0.18760893227E+03  0.84766206490E+01  0.19810687302E+03  0.00000000000E+00 0.  1.
        -13    1    5    5    0    0  0.11549684844E+02 -0.26578996592E+03  0.42099187810E+02  0.26935115151E+03  0.00000000000E+00 0. -1.
          2    1    6    6  503    0 -0.12548382800E+03  0.80475981283E+02  0.25630519873E+03  0.29650451860E+03  0.00000000000E+00 0. -1.
         -2    1    6    6    0  503 -0.29149049254E+03  0.11569704273E+03  0.34509371434E+03  0.46630696394E+03  0.00000000000E+00 0.  1.
<mgrwt>
<rscale>  0 0.15954903E+04</rscale>
<asrwt>0</asrwt>
<pdfrwt beam="1">  1        1 0.24181251E+00 0.15954903E+04</pdfrwt>
<pdfrwt beam="2">  1       -2 0.62290646E-01 0.15954903E+04</pdfrwt>
<totfact> 0.11756201E+01</totfact>
</mgrwt>
</event>
<event>
12    5  0.5041746E-008  0.2645711E+04  0.7818608E-02  0.8352838E-01
         -2   -1    0    0    0  501 -0.00000000000E+00  0.00000000000E+00  0.17554945220E+04  0.17554945220E+04  0.00000000000E+00 0.  1.
          1   -1    0    0  501    0  0.00000000000E+00 -0.00000000000E+00 -0.99683990454E+03  0.99683990454E+03  0.00000000000E+00 0. -1.
        -24    2    1    2    0    0 -0.45226662271E+03 -0.36300338812E+03  0.13792236910E+04  0.14983594648E+04  0.80663113543E+02 0.  0.
        254    2    1    2    0    0  0.45226662271E+03  0.36300338812E+03 -0.62056907363E+03  0.12539749617E+04  0.92251323661E+03 0.  0.
         23    2    4    4    0    0  0.56645211703E+03  0.13583423553E+03 -0.74992199143E+03  0.95380329403E+03  0.89659299807E+02 0.  0.
         23    2    4    4    0    0 -0.11418549432E+03  0.22716915259E+03  0.12935291780E+03  0.30017166771E+03  0.93416817271E+02 0.  0.
          1    1    3    3  502    0 -0.28723055917E+03 -0.22511619975E+03  0.76529279564E+03  0.84785126088E+03  0.00000000000E+00 0. -1.
         -2    1    3    3    0  502 -0.16503606354E+03 -0.13788718837E+03  0.61393089540E+03  0.65050820388E+03  0.00000000000E+00 0.  1.
         13    1    5    5    0    0  0.34022388056E+03  0.40584813981E+02 -0.46754288452E+03  0.57965141671E+03  0.00000000000E+00 0. -1.
        -13    1    5    5    0    0  0.22622823648E+03  0.95249421553E+02 -0.28237910691E+03  0.37415187732E+03  0.00000000000E+00 0.  1.
          1    1    6    6  503    0 -0.87603658031E+02  0.18179332219E+03  0.55108507896E+02  0.20918929355E+03  0.00000000000E+00 0. -1.
         -1    1    6    6    0  503 -0.26581836294E+02  0.45375830398E+02  0.74244409908E+02  0.90982374160E+02  0.00000000000E+00 0.  1.
<mgrwt>
<rscale>  0 0.26457112E+04</rscale>
<asrwt>0</asrwt>
<pdfrwt beam="1">  1        1 0.15335999E+00 0.26457112E+04</pdfrwt>
<pdfrwt beam="2">  1       -2 0.27007608E+00 0.26457112E+04</pdfrwt>
<totfact> 0.56694682E-01</totfact>
</mgrwt>
</event>
<event>
12    5  0.5041746E-008  0.2919724E+04  0.7818608E-02  0.8267033E-01
          1   -1    0    0  501    0  0.00000000000E+00  0.00000000000E+00  0.26903510190E+04  0.26903510190E+04  0.00000000000E+00 0. -1.
         -2   -1    0    0    0  501 -0.00000000000E+00 -0.00000000000E+00 -0.79216337278E+03  0.79216337278E+03  0.00000000000E+00 0.  1.
        -24    2    1    2    0    0  0.11620400949E+04 -0.54755436051E+03  0.49135746795E+03  0.13776796936E+04  0.80101291719E+02 0.  0.
        254    2    1    2    0    0 -0.11620400949E+04  0.54755436051E+03  0.14068301783E+04  0.21048346982E+04  0.89498882462E+03 0.  0.
         23    2    4    4    0    0 -0.12307983487E+02  0.22128931233E+02  0.58948023727E+03  0.59667931978E+03  0.88871167780E+02 0.  0.
         23    2    4    4    0    0 -0.11497321114E+04  0.52542542928E+03  0.81734994100E+03  0.15081553784E+04  0.92281685650E+02 0.  0.
          3    1    3    3  502    0  0.92169897086E+03 -0.41236090244E+03  0.35754164536E+03  0.10711706376E+04  0.00000000000E+00 0. -1.
         -4    1    3    3    0  502  0.24034112407E+03 -0.13519345807E+03  0.13381582259E+03  0.30650905599E+03  0.00000000000E+00 0.  1.
         13    1    5    5    0    0 -0.55448452483E+01 -0.34652969831E+02  0.20896001351E+03  0.21188643390E+03  0.00000000000E+00 0.  1.
        -13    1    5    5    0    0 -0.67631382392E+01  0.56781901063E+02  0.38052022377E+03  0.38479288588E+03  0.00000000000E+00 0. -1.
          4    1    6    6  503    0 -0.83572056688E+03  0.33596002248E+03  0.58230573256E+03  0.10725567439E+04  0.00000000000E+00 0. -1.
         -4    1    6    6    0  503 -0.31401154456E+03  0.18946540680E+03  0.23504420844E+03  0.43559863454E+03  0.00000000000E+00 0.  1.
<mgrwt>
<rscale>  0 0.29197243E+04</rscale>
<asrwt>0</asrwt>
<pdfrwt beam="1">  1        1 0.41390015E+00 0.29197243E+04</pdfrwt>
<pdfrwt beam="2">  1       -2 0.12187129E+00 0.29197243E+04</pdfrwt>
<totfact> 0.38381631E-01</totfact>
</mgrwt>
</event>
<event>
12    5  0.5041746E-008  0.1859080E+04  0.7818608E-02  0.8675497E-01
          1   -1    0    0  501    0  0.00000000000E+00  0.00000000000E+00  0.23283497593E+04  0.23283497593E+04  0.00000000000E+00 0. -1.
         -2   -1    0    0    0  501 -0.00000000000E+00 -0.00000000000E+00 -0.37109758527E+03  0.37109758527E+03  0.00000000000E+00 0.  1.
        -24    2    1    2    0    0 -0.27832383594E+03 -0.19769135136E+03 -0.15148674586E+03  0.38178147642E+03  0.79138066148E+02 0.  0.
        254    2    1    2    0    0  0.27832383594E+03  0.19769135136E+03  0.21087389199E+04  0.23176658682E+04  0.89902681609E+03 0.  0.
         23    2    4    4    0    0 -0.62781269820E+02 -0.31791982713E+03  0.74458635868E+03  0.81724303476E+03  0.91993630247E+02 0.  0.
         23    2    4    4    0    0  0.34110510576E+03  0.51561117849E+03  0.13641525612E+04  0.15004228334E+04  0.90271192148E+02 0.  0.
          3    1    3    3  502    0 -0.15376604569E+02 -0.42103667590E+02 -0.22251107269E+02  0.50042687451E+02  0.00000000000E+00 0. -1.
         -4    1    3    3    0  502 -0.26294723138E+03 -0.15558768377E+03 -0.12923563859E+03  0.33173878897E+03  0.00000000000E+00 0.  1.
         13    1    5    5    0    0 -0.67061506882E+02 -0.14040069751E+03  0.28801296781E+03  0.32735465660E+03  0.00000000000E+00 0. -1.
        -13    1    5    5    0    0  0.42802370620E+01 -0.17751912962E+03  0.45657339087E+03  0.48988837816E+03  0.00000000000E+00 0.  1.
          2    1    6    6  503    0  0.28675878237E+03  0.39030933114E+03  0.11286964234E+04  0.12282213113E+04  0.00000000000E+00 0. -1.
         -2    1    6    6    0  503  0.54346323396E+02  0.12530184735E+03  0.23545613784E+03  0.27220152216E+03  0.00000000000E+00 0.  1.
<mgrwt>
<rscale>  0 0.18590804E+04</rscale>
<asrwt>0</asrwt>
<pdfrwt beam="1">  1        1 0.35820765E+00 0.18590804E+04</pdfrwt>
<pdfrwt beam="2">  1       -2 0.57091938E-01 0.18590804E+04</pdfrwt>
<totfact> 0.42221127E+00</totfact>
</mgrwt>
</event>
<event>
12    5  0.5041746E-008  0.1855473E+04  0.7818608E-02  0.8677343E-01
         -2   -1    0    0    0  501 -0.00000000000E+00  0.00000000000E+00  0.54108173535E+03  0.54108173535E+03  0.00000000000E+00 0.  1.
          1   -1    0    0  501    0  0.00000000000E+00 -0.00000000000E+00 -0.15906935475E+04  0.15906935475E+04  0.00000000000E+00 0. -1.
        -24    2    1    2    0    0  0.69052593940E+03 -0.19317071595E+02 -0.23458344247E+03  0.73531570055E+03  0.91981333745E+02 0.  0.
        254    2    1    2    0    0 -0.69052593940E+03  0.19317071595E+02 -0.81502836972E+03  0.13964595824E+04  0.89923795486E+03 0.  0.
         23    2    4    4    0    0  0.43572321583E+02  0.14313962049E+03 -0.58682472354E+03  0.61233214005E+03  0.90553273890E+02 0.  0.
         23    2    4    4    0    0 -0.73409826098E+03 -0.12382254890E+03 -0.22820364618E+03  0.78412744230E+03  0.92448154427E+02 0.  0.
          1    1    3    3  502    0  0.68459324720E+03 -0.10629524672E+02 -0.23697718634E+03  0.72452680265E+03  0.00000000000E+00 0. -1.
         -2    1    3    3    0  502  0.59326921921E+01 -0.86875469231E+01  0.23937438667E+01  0.10788897899E+02  0.00000000000E+00 0.  1.
         13    1    5    5    0    0  0.71851547394E+02  0.10754680130E+03 -0.42532284894E+03  0.44455425446E+03  0.00000000000E+00 0.  1.
        -13    1    5    5    0    0 -0.28279225811E+02  0.35592819196E+02 -0.16150187461E+03  0.16777788559E+03  0.00000000000E+00 0. -1.
          1    1    6    6  503    0 -0.41418687530E+03 -0.68020586567E+02 -0.80551266197E+02  0.42739451839E+03  0.00000000000E+00 0. -1.
         -1    1    6    6    0  503 -0.31991138568E+03 -0.55801962330E+02 -0.14765237998E+03  0.35673292391E+03  0.00000000000E+00 0.  1.
<mgrwt>
<rscale>  0 0.18554732E+04</rscale>
<asrwt>0</asrwt>
<pdfrwt beam="1">  1        1 0.24472208E+00 0.18554732E+04</pdfrwt>
<pdfrwt beam="2">  1       -2 0.83243345E-01 0.18554732E+04</pdfrwt>
<totfact> 0.58980738E+00</totfact>
</mgrwt>
</event>
<event>
12    5  0.5041746E-008  0.2038762E+04  0.7818608E-02  0.8588709E-01
         -2   -1    0    0    0  501 -0.00000000000E+00  0.00000000000E+00  0.11374857293E+04  0.11374857293E+04  0.00000000000E+00 0.  1.
          1   -1    0    0  501    0  0.00000000000E+00 -0.00000000000E+00 -0.91353920706E+03  0.91353920706E+03  0.00000000000E+00 0. -1.
        -24    2    1    2    0    0 -0.50031513755E+03 -0.59577354990E+03 -0.15901525347E+03  0.79817658545E+03  0.80861926261E+02 0.  0.
        254    2    1    2    0    0  0.50031513755E+03  0.59577354990E+03  0.38296177567E+03  0.12528483509E+04  0.90427203264E+03 0.  0.
         23    2    4    4    0    0  0.49852796715E+03 -0.65742993010E+02  0.25581412023E+03  0.57181341166E+03  0.93152769618E+02 0.  0.
         23    2    4    4    0    0  0.17871703987E+01  0.66151654291E+03  0.12714765544E+03  0.68103493920E+03  0.10017350751E+03 0.  0.
          3    1    3    3  502    0 -0.28288298501E+03 -0.37204943554E+03 -0.12843450112E+03  0.48470505131E+03  0.00000000000E+00 0. -1.
         -4    1    3    3    0  502 -0.21743215253E+03 -0.22372411436E+03 -0.30580752349E+02  0.31347153414E+03  0.00000000000E+00 0.  1.
         13    1    5    5    0    0  0.31734590482E+03 -0.54006907727E+02  0.21069158103E+03  0.38472862086E+03  0.00000000000E+00 0. -1.
        -13    1    5    5    0    0  0.18118206232E+03 -0.11736085283E+02  0.45122539201E+02  0.18708479080E+03  0.00000000000E+00 0.  1.
          4    1    6    6  503    0 -0.30152078874E+02  0.38398623198E+03  0.34498189940E+02  0.38671009725E+03  0.00000000000E+00 0. -1.
         -4    1    6    6    0  503  0.31939249273E+02  0.27753031093E+03  0.92649465497E+02  0.29432484195E+03  0.00000000000E+00 0.  1.
<mgrwt>
<rscale>  0 0.20387622E+04</rscale>
<asrwt>0</asrwt>
<pdfrwt beam="1">  1        1 0.14054449E+00 0.20387622E+04</pdfrwt>
<pdfrwt beam="2">  1       -2 0.17499780E+00 0.20387622E+04</pdfrwt>
<totfact> 0.28235469E+00</totfact>
</mgrwt>
</event>
<event>
12    5  0.5041746E-008  0.1177108E+04  0.7818608E-02  0.9133133E-01
          1   -1    0    0  501    0  0.00000000000E+00  0.00000000000E+00  0.13365037858E+04  0.13365037858E+04  0.00000000000E+00 0. -1.
         -2   -1    0    0    0  501 -0.00000000000E+00 -0.00000000000E+00 -0.25918055788E+03  0.25918055788E+03  0.00000000000E+00 0.  1.
        -24    2    1    2    0    0 -0.51599225591E+02  0.17283564598E+03  0.25876740041E+02  0.19919746086E+03  0.80469759152E+02 0.  0.
        254    2    1    2    0    0  0.51599225591E+02 -0.17283564598E+03  0.10514464879E+04  0.13964868828E+04  0.90116660857E+03 0.  0.
         23    2    4    4    0    0  0.45636050678E+03 -0.14716306813E+03  0.67767062810E+03  0.83538497022E+03  0.93320348840E+02 0.  0.
         23    2    4    4    0    0 -0.40476128119E+03 -0.25672577849E+02  0.37377585981E+03  0.56110191262E+03  0.10313189112E+03 0.  0.
          1    1    3    3  502    0  0.10159786461E+02  0.62109468083E+02  0.35128778881E+02  0.72075227312E+02  0.00000000000E+00 0. -1.
         -2    1    3    3    0  502 -0.61759012052E+02  0.11072617789E+03 -0.92520388402E+01  0.12712223355E+03  0.00000000000E+00 0.  1.
         13    1    5    5    0    0  0.29612829904E+03 -0.52933127898E+02  0.38354239905E+03  0.48744092708E+03  0.00000000000E+00 0.  1.
        -13    1    5    5    0    0  0.16023220774E+03 -0.94229940230E+02  0.29412822904E+03  0.34794404314E+03  0.00000000000E+00 0. -1.
          4    1    6    6  503    0 -0.58738047999E+02  0.29526325650E+02  0.38750480935E+02  0.76312266130E+02  0.00000000000E+00 0. -1.
         -4    1    6    6    0  503 -0.34602323319E+03 -0.55198903498E+02  0.33502537887E+03  0.48478964649E+03  0.00000000000E+00 0.  1.
<mgrwt>
<rscale>  0 0.11771080E+04</rscale>
<asrwt>0</asrwt>
<pdfrwt beam="1">  1        1 0.20561596E+00 0.11771080E+04</pdfrwt>
<pdfrwt beam="2">  1       -2 0.39873933E-01 0.11771080E+04</pdfrwt>
<totfact> 0.44076684E+01</totfact>
</mgrwt>
</event>
<event>
12    5  0.5041746E-008  0.1742788E+04  0.7818608E-02  0.8737330E-01
         -2   -1    0    0    0  501 -0.00000000000E+00  0.00000000000E+00  0.23625423498E+03  0.23625423498E+03  0.00000000000E+00 0.  1.
          1   -1    0    0  501    0  0.00000000000E+00 -0.00000000000E+00 -0.32140259009E+04  0.32140259009E+04  0.00000000000E+00 0. -1.
        -24    2    1    2    0    0  0.25025802993E+03 -0.51694079438E+03 -0.16470706516E+04  0.17462107249E+04  0.80952443823E+02 0.  0.
        254    2    1    2    0    0 -0.25025802993E+03  0.51694079438E+03 -0.13307010143E+04  0.17040694109E+04  0.89623127667E+03 0.  0.
         23    2    4    4    0    0 -0.29059858270E+03 -0.18426063025E+03 -0.46999973171E+03  0.58925607165E+03  0.89013785669E+02 0.  0.
         23    2    4    4    0    0  0.40340552770E+02  0.70120142463E+03 -0.86070128260E+03  0.11148133393E+04  0.93227063904E+02 0.  0.
          1    1    3    3  502    0  0.70266977688E+02 -0.15298345522E+03 -0.60001212095E+03  0.62318210101E+03  0.00000000000E+00 0. -1.
         -2    1    3    3    0  502  0.17999105224E+03 -0.36395733916E+03 -0.10470585306E+04  0.11230286239E+04  0.00000000000E+00 0.  1.
         13    1    5    5    0    0 -0.15315145316E+02 -0.43541397946E+02 -0.56488923055E+02  0.72947963913E+02  0.00000000000E+00 0.  1.
        -13    1    5    5    0    0 -0.27528343738E+03 -0.14071923230E+03 -0.41351080866E+03  0.51630810774E+03  0.00000000000E+00 0. -1.
          2    1    6    6  503    0  0.85452838843E+01  0.58249498582E+03 -0.66887748468E+03  0.88700085677E+03  0.00000000000E+00 0. -1.
         -2    1    6    6    0  503  0.31795268886E+02  0.11870643880E+03 -0.19182379792E+03  0.22781248250E+03  0.00000000000E+00 0.  1.
<mgrwt>
<rscale>  0 0.17427877E+04</rscale>
<asrwt>0</asrwt>
<pdfrwt beam="1">  1        1 0.49446548E+00 0.17427877E+04</pdfrwt>
<pdfrwt beam="2">  1       -2 0.36346809E-01 0.17427877E+04</pdfrwt>
<totfact> 0.24741746E+00</totfact>
</mgrwt>
</event>
<event>
12    5  0.5041746E-008  0.1490497E+04  0.7818608E-02  0.8890797E-01
         -2   -1    0    0    0  501 -0.00000000000E+00  0.00000000000E+00  0.38009927768E+03  0.38009927768E+03  0.00000000000E+00 0.  1.
          1   -1    0    0  501    0  0.00000000000E+00 -0.00000000000E+00 -0.14611848926E+04  0.14611848926E+04  0.00000000000E+00 0. -1.
        -24    2    1    2    0    0  0.32952262580E+03  0.62628387712E+02 -0.75839069529E+03  0.83340202963E+03  0.83036259660E+02 0.  0.
        254    2    1    2    0    0 -0.32952262580E+03 -0.62628387712E+02 -0.32269491958E+03  0.10078821406E+04  0.89397255124E+03 0.  0.
         23    2    4    4    0    0 -0.32037929267E+03  0.32606653350E+03 -0.38389481913E+03  0.60369302306E+03  0.90043092485E+02 0.  0.
         23    2    4    4    0    0 -0.91433331338E+01 -0.38869492121E+03  0.61199899553E+02  0.40418911754E+03  0.91956906850E+02 0.  0.
          3    1    3    3  502    0  0.20513956225E+03  0.46896211025E+01 -0.50805233465E+03  0.54792463651E+03  0.00000000000E+00 0. -1.
         -4    1    3    3    0  502  0.12438306354E+03  0.57938766610E+02 -0.25033836064E+03  0.28547739312E+03  0.00000000000E+00 0.  1.
         13    1    5    5    0    0 -0.11335736475E+03  0.81834812426E+02 -0.16285238927E+03  0.21463394270E+03  0.00000000000E+00 0. -1.
        -13    1    5    5    0    0 -0.20702192792E+03  0.24423172107E+03 -0.22104242987E+03  0.38905908037E+03  0.00000000000E+00 0.  1.
          4    1    6    6  503    0  0.31364746891E+01 -0.85444864074E+02  0.52966476074E+02  0.10057887381E+03  0.00000000000E+00 0. -1.
         -4    1    6    6    0  503 -0.12279807823E+02 -0.30325005714E+03  0.82334234797E+01  0.30361024373E+03  0.00000000000E+00 0.  1.
<mgrwt>
<rscale>  0 0.14904970E+04</rscale>
<asrwt>0</asrwt>
<pdfrwt beam="1">  1        1 0.22479768E+00 0.14904970E+04</pdfrwt>
<pdfrwt beam="2">  1       -2 0.58476811E-01 0.14904970E+04</pdfrwt>
<totfact> 0.16168521E+01</totfact>
</mgrwt>
</event>
<event>
12    5  0.5041746E-008  0.1834222E+04  0.7818608E-02  0.8688309E-01
          1   -1    0    0  501    0  0.00000000000E+00  0.00000000000E+00  0.17116870812E+04  0.17116870812E+04  0.00000000000E+00 0. -1.
         -2   -1    0    0    0  501 -0.00000000000E+00 -0.00000000000E+00 -0.49138218921E+03  0.49138218921E+03  0.00000000000E+00 0.  1.
        -24    2    1    2    0    0  0.10404773276E+03  0.46160370336E+02 -0.35934522997E+03  0.38525468959E+03  0.79595672396E+02 0.  0.
        254    2    1    2    0    0 -0.10404773276E+03 -0.46160370336E+02  0.15796501220E+04  0.18178145809E+04  0.89229963126E+03 0.  0.
         23    2    4    4    0    0  0.25540888984E+02  0.25954717162E+02 -0.93448280951E+02  0.13568050811E+03  0.91381807359E+02 0.  0.
         23    2    4    4    0    0 -0.12958862174E+03 -0.72115087498E+02  0.16730984029E+04  0.16821340727E+04  0.91230345772E+02 0.  0.
          3    1    3    3  502    0  0.34153124471E+02 -0.13282580934E+02 -0.18120672608E+03  0.18487493190E+03  0.00000000000E+00 0. -1.
         -4    1    3    3    0  502  0.69894608285E+02  0.59442951270E+02 -0.17813850389E+03  0.20037975769E+03  0.00000000000E+00 0.  1.
         13    1    5    5    0    0 -0.15172444669E+02 -0.61409783326E+01  0.10552147663E+02  0.19474663345E+02  0.00000000000E+00 0. -1.
        -13    1    5    5    0    0  0.40713333653E+02  0.32095695495E+02 -0.10400042861E+03  0.11620584477E+03  0.00000000000E+00 0.  1.
          4    1    6    6  503    0  0.12406423303E+02  0.19444733998E+01  0.18989337283E+03  0.19030815369E+03  0.00000000000E+00 0. -1.
         -4    1    6    6    0  503 -0.14199504504E+03 -0.74059560898E+02  0.14832050301E+04  0.14918259191E+04  0.00000000000E+00 0.  1.
<mgrwt>
<rscale>  0 0.18342220E+04</rscale>
<asrwt>0</asrwt>
<pdfrwt beam="1">  1        1 0.26333647E+00 0.18342220E+04</pdfrwt>
<pdfrwt beam="2">  1       -2 0.75597261E-01 0.18342220E+04</pdfrwt>
<totfact> 0.60631863E+00</totfact>
</mgrwt>
</event>
<event>
12    5  0.5041746E-008  0.1173628E+04  0.7818608E-02  0.9136259E-01
          1   -1    0    0  501    0  0.00000000000E+00  0.00000000000E+00  0.32330979812E+03  0.32330979812E+03  0.00000000000E+00 0. -1.
         -2   -1    0    0    0  501 -0.00000000000E+00 -0.00000000000E+00 -0.10650789864E+04  0.10650789864E+04  0.00000000000E+00 0.  1.
        -24    2    1    2    0    0 -0.13786844481E+02  0.13272261731E+03  0.55140458376E+02  0.16446874538E+03  0.78766286135E+02 0.  0.
        254    2    1    2    0    0  0.13786844481E+02 -0.13272261731E+03 -0.79690964669E+03  0.12239200392E+04  0.91929859517E+03 0.  0.
         23    2    4    4    0    0 -0.34474251161E+03  0.17948087352E+03 -0.55127327113E+03  0.68075996046E+03  0.92038693136E+02 0.  0.
         23    2    4    4    0    0  0.35852935609E+03 -0.31220349083E+03 -0.24563637556E+03  0.54316007871E+03  0.93119940114E+02 0.  0.
          3    1    3    3  502    0 -0.10279324137E+02  0.58808962733E+02  0.66765358699E+02  0.89564344047E+02  0.00000000000E+00 0. -1.
         -4    1    3    3    0  502 -0.35075203444E+01  0.73913654576E+02 -0.11624900323E+02  0.74904401334E+02  0.00000000000E+00 0.  1.
         13    1    5    5    0    0 -0.34677464194E+03  0.16494510884E+03 -0.53788941837E+03  0.66089679044E+03  0.00000000000E+00 0.  1.
        -13    1    5    5    0    0  0.20321303305E+01  0.14535764679E+02 -0.13383852761E+02  0.19863170019E+02  0.00000000000E+00 0. -1.
          1    1    6    6  503    0  0.53008773822E+02 -0.83564377719E+02 -0.23861496857E+02  0.10179541423E+03  0.00000000000E+00 0. -1.
         -1    1    6    6    0  503  0.30552058227E+03 -0.22863911311E+03 -0.22177487870E+03  0.44136466449E+03  0.00000000000E+00 0.  1.
<mgrwt>
<rscale>  0 0.11736277E+04</rscale>
<asrwt>0</asrwt>
<pdfrwt beam="1">  1        1 0.49739969E-01 0.11736277E+04</pdfrwt>
<pdfrwt beam="2">  1       -2 0.16385830E+00 0.11736277E+04</pdfrwt>
<totfact> 0.16218486E+01</totfact>
</mgrwt>
</event>
<event>
12    5  0.5041746E-008  0.2116625E+04  0.7818608E-02  0.8553955E-01
         -2   -1    0    0    0  501 -0.00000000000E+00  0.00000000000E+00  0.71368799741E+03  0.71368799741E+03  0.00000000000E+00 0.  1.
          1   -1    0    0  501    0  0.00000000000E+00 -0.00000000000E+00 -0.15693485988E+04  0.15693485988E+04  0.00000000000E+00 0. -1.
        -24    2    1    2    0    0 -0.89090055600E+02  0.58641633868E+03  0.31890868643E+03  0.67843887785E+03  0.82191242984E+02 0.  0.
        254    2    1    2    0    0  0.89090055600E+02 -0.58641633868E+03 -0.11745692879E+04  0.16045977184E+04  0.91831348983E+03 0.  0.
         23    2    4    4    0    0 -0.27639654331E+02 -0.74358373668E+03 -0.51156802978E+03  0.90769644456E+03  0.92359419757E+02 0.  0.
         23    2    4    4    0    0  0.11672970993E+03  0.15716739800E+03 -0.66300125807E+03  0.69690127383E+03  0.88166326257E+02 0.  0.
          1    1    3    3  502    0  0.87093601955E+00  0.26268251900E+03  0.14689119266E+03  0.30096492620E+03  0.00000000000E+00 0. -1.
         -2    1    3    3    0  502 -0.89960991620E+02  0.32373381968E+03  0.17201749377E+03  0.37747395166E+03  0.00000000000E+00 0.  1.
         13    1    5    5    0    0 -0.61168633008E+02 -0.41335925502E+03 -0.28146035069E+03  0.50381286643E+03  0.00000000000E+00 0. -1.
        -13    1    5    5    0    0  0.33528978677E+02 -0.33022448167E+03 -0.23010767909E+03  0.40388357813E+03  0.00000000000E+00 0.  1.
          3    1    6    6  503    0  0.88140327348E+02  0.13158661724E+03 -0.38558102518E+03  0.41684107538E+03  0.00000000000E+00 0. -1.
         -3    1    6    6    0  503  0.28589382584E+02  0.25580780764E+02 -0.27742023289E+03  0.28006019845E+03  0.00000000000E+00 0.  1.
<mgrwt>
<rscale>  0 0.21166249E+04</rscale>
<asrwt>0</asrwt>
<pdfrwt beam="1">  1        1 0.24143824E+00 0.21166249E+04</pdfrwt>
<pdfrwt beam="2">  1       -2 0.10979815E+00 0.21166249E+04</pdfrwt>
<totfact> 0.31168552E+00</totfact>
</mgrwt>
</event>
<event>
12    5  0.5041746E-008  0.2263728E+04  0.7818608E-02  0.8492361E-01
          1   -1    0    0  501    0  0.00000000000E+00  0.00000000000E+00  0.39580076068E+04  0.39580076068E+04  0.00000000000E+00 0. -1.
         -2   -1    0    0    0  501 -0.00000000000E+00 -0.00000000000E+00 -0.32367706768E+03  0.32367706768E+03  0.00000000000E+00 0.  1.
        -24    2    1    2    0    0  0.45955914916E+03 -0.67351697520E+03  0.24905591294E+04  0.26217972887E+04  0.78208176560E+02 0.  0.
        254    2    1    2    0    0 -0.45955914916E+03  0.67351697520E+03  0.11437714097E+04  0.16598873857E+04  0.88441696505E+03 0.  0.
         23    2    4    4    0    0 -0.60759962247E+03  0.25411973791E+03  0.36701211269E+03  0.76012428197E+03  0.96627588020E+02 0.  0.
         23    2    4    4    0    0  0.14804047330E+03  0.41939723730E+03  0.77675929702E+03  0.89976310373E+03  0.91698489256E+02 0.  0.
          3    1    3    3  502    0  0.36281804349E+03 -0.57476950674E+03  0.21197316908E+04  0.22260411855E+04  0.00000000000E+00 0. -1.
         -4    1    3    3    0  502  0.96741105669E+02 -0.98747468464E+02  0.37082743861E+03  0.39575610327E+03  0.00000000000E+00 0.  1.
         13    1    5    5    0    0 -0.85066457558E+02  0.73845165886E+02  0.69988714260E+02  0.13261911947E+03  0.00000000000E+00 0.  1.
        -13    1    5    5    0    0 -0.52253316491E+03  0.18027457202E+03  0.29702339843E+03  0.62750516250E+03  0.00000000000E+00 0. -1.
          2    1    6    6  503    0  0.14340324701E+03  0.41889898584E+03  0.77779153203E+03  0.89498632330E+03  0.00000000000E+00 0. -1.
         -2    1    6    6    0  503  0.46372262885E+01  0.49825145919E+00 -0.10322350090E+01  0.47767804305E+01  0.00000000000E+00 0.  1.
<mgrwt>
<rscale>  0 0.22637282E+04</rscale>
<asrwt>0</asrwt>
<pdfrwt beam="1">  1        1 0.60892421E+00 0.22637282E+04</pdfrwt>
<pdfrwt beam="2">  1       -2 0.49796475E-01 0.22637282E+04</pdfrwt>
<totfact> 0.31904409E-01</totfact>
</mgrwt>
</event>
<event>
12    5  0.5041746E-008  0.2411930E+04  0.7818608E-02  0.8435051E-01
          1   -1    0    0  501    0  0.00000000000E+00  0.00000000000E+00  0.75188276076E+03  0.75188276076E+03  0.00000000000E+00 0. -1.
         -2   -1    0    0    0  501 -0.00000000000E+00 -0.00000000000E+00 -0.19342790292E+04  0.19342790292E+04  0.00000000000E+00 0.  1.
        -24    2    1    2    0    0 -0.96902803900E+03  0.19076209029E+03 -0.16820315618E+03  0.10056640240E+04  0.87534632985E+02 0.  0.
        254    2    1    2    0    0  0.96902803900E+03 -0.19076209029E+03 -0.10141931123E+04  0.16804977659E+04  0.90558244074E+03 0.  0.
         23    2    4    4    0    0  0.83254808027E+03  0.79306690844E+02 -0.10693503413E+04  0.13605613166E+04  0.90504622026E+02 0.  0.
         23    2    4    4    0    0  0.13647995872E+03 -0.27006878113E+03  0.55157229021E+02  0.31993644937E+03  0.88051610135E+02 0.  0.
          3    1    3    3  502    0 -0.50885513087E+03  0.94515604269E+02 -0.44126148177E+02  0.51943609868E+03  0.00000000000E+00 0. -1.
         -4    1    3    3    0  502 -0.46017290813E+03  0.96246486019E+02 -0.12407700801E+03  0.48622792532E+03  0.00000000000E+00 0.  1.
         13    1    5    5    0    0  0.41863366261E+03  0.34810703749E+02 -0.46432912814E+03  0.62615291088E+03  0.00000000000E+00 0.  1.
        -13    1    5    5    0    0  0.41391441766E+03  0.44495987095E+02 -0.60502121313E+03  0.73440840569E+03  0.00000000000E+00 0. -1.
          4    1    6    6  503    0  0.87446085027E+02 -0.24248919122E+03  0.34822187194E+02  0.26011614784E+03  0.00000000000E+00 0. -1.
         -4    1    6    6    0  503  0.49033873694E+02 -0.27579589911E+02  0.20335041827E+02  0.59820301530E+02  0.00000000000E+00 0.  1.
<mgrwt>
<rscale>  0 0.24119296E+04</rscale>
<asrwt>0</asrwt>
<pdfrwt beam="1">  1        1 0.11567427E+00 0.24119296E+04</pdfrwt>
<pdfrwt beam="2">  1       -2 0.29758139E+00 0.24119296E+04</pdfrwt>
<totfact> 0.62972894E-01</totfact>
</mgrwt>
</event>
<event>
12    5  0.5041746E-008  0.1738783E+04  0.7818608E-02  0.8739549E-01
          1   -1    0    0  501    0  0.00000000000E+00  0.00000000000E+00  0.31318977096E+04  0.31318977096E+04  0.00000000000E+00 0. -1.
         -2   -1    0    0    0  501 -0.00000000000E+00 -0.00000000000E+00 -0.24133654434E+03  0.24133654434E+03  0.00000000000E+00 0.  1.
        -24    2    1    2    0    0  0.29511402860E+03  0.36532723569E+03  0.18918288431E+04  0.19508762910E+04  0.79659601431E+02 0.  0.
        254    2    1    2    0    0 -0.29511402860E+03 -0.36532723569E+03  0.99873232212E+03  0.14223579629E+04  0.89726230526E+03 0.  0.
         23    2    4    4    0    0  0.19366037158E+03 -0.10310680786E+03  0.78603467764E+03  0.82142583618E+03  0.93565680359E+02 0.  0.
         23    2    4    4    0    0 -0.48877440017E+03 -0.26222042783E+03  0.21269764448E+03  0.60093212675E+03  0.90659615913E+02 0.  0.
          1    1    3    3  502    0  0.28144944050E+03  0.34135469522E+03  0.16808463470E+04  0.17380970219E+04  0.00000000000E+00 0. -1.
         -2    1    3    3    0  502  0.13664588103E+02  0.23972540468E+02  0.21098249616E+03  0.21277926909E+03  0.00000000000E+00 0.  1.
         13    1    5    5    0    0  0.64036908767E+02 -0.66231653718E+01  0.12121905601E+03  0.13725396732E+03  0.00000000000E+00 0. -1.
        -13    1    5    5    0    0  0.12962346281E+03 -0.96483642487E+02  0.66481562163E+03  0.68417186886E+03  0.00000000000E+00 0.  1.
          1    1    6    6  503    0 -0.16045924938E+03 -0.13499336398E+03  0.70996728591E+02  0.22138408818E+03  0.00000000000E+00 0. -1.
         -1    1    6    6    0  503 -0.32831515080E+03 -0.12722706385E+03  0.14170091589E+03  0.37954803857E+03  0.00000000000E+00 0.  1.
<mgrwt>
<rscale>  0 0.17387828E+04</rscale>
<asrwt>0</asrwt>
<pdfrwt beam="1">  1        1 0.48183039E+00 0.17387828E+04</pdfrwt>
<pdfrwt beam="2">  1       -2 0.37128701E-01 0.17387828E+04</pdfrwt>
<totfact> 0.27346451E+00</totfact>
</mgrwt>
</event>
<event>
12    5  0.5041746E-008  0.2553251E+04  0.7818608E-02  0.8384256E-01
          1   -1    0    0  501    0  0.00000000000E+00  0.00000000000E+00  0.19326617690E+04  0.19326617690E+04  0.00000000000E+00 0. -1.
         -2   -1    0    0    0  501 -0.00000000000E+00 -0.00000000000E+00 -0.84327874458E+03  0.84327874458E+03  0.00000000000E+00 0.  1.
        -24    2    1    2    0    0  0.14778874600E+03  0.11662635470E+02 -0.72370038644E+03  0.74299440232E+03  0.79504100719E+02 0.  0.
        254    2    1    2    0    0 -0.14778874600E+03 -0.11662635470E+02  0.18130834109E+04  0.20329461113E+04  0.90753562248E+03 0.  0.
         23    2    4    4    0    0 -0.26350221923E+03 -0.39942967583E+03  0.11707579222E+04  0.12681287717E+04  0.92189932531E+02 0.  0.
         23    2    4    4    0    0  0.11571347323E+03  0.38776704036E+03  0.64232548867E+03  0.76481733961E+03  0.92793556365E+02 0.  0.
          1    1    3    3  502    0  0.10764990680E+03  0.21949187580E+01 -0.32957997337E+03  0.34672219275E+03  0.00000000000E+00 0. -1.
         -2    1    3    3    0  502  0.40138839197E+02  0.94677167118E+01 -0.39412041307E+03  0.39627220957E+03  0.00000000000E+00 0.  1.
         13    1    5    5    0    0 -0.75653174979E+01 -0.32556897216E+02  0.14964584926E+03  0.15333318554E+03  0.00000000000E+00 0. -1.
        -13    1    5    5    0    0 -0.25593690173E+03 -0.36687277861E+03  0.10211120730E+04  0.11147955862E+04  0.00000000000E+00 0.  1.
          4    1    6    6  503    0  0.56344669297E+02  0.61120041449E+02  0.12442375723E+03  0.14963840613E+03  0.00000000000E+00 0. -1.
         -4    1    6    6    0  503  0.59368803929E+02  0.32664699891E+03  0.51790173144E+03  0.61517893349E+03  0.00000000000E+00 0.  1.
<mgrwt>
<rscale>  0 0.25532509E+04</rscale>
<asrwt>0</asrwt>
<pdfrwt beam="1">  1        1 0.29733258E+00 0.25532509E+04</pdfrwt>
<pdfrwt beam="2">  1       -2 0.12973519E+00 0.25532509E+04</pdfrwt>
<totfact> 0.11230991E+00</totfact>
</mgrwt>
</event>
<event>
12    5  0.5041746E-008  0.1803256E+04  0.7818608E-02  0.8704570E-01
          1   -1    0    0  501    0  0.00000000000E+00  0.00000000000E+00  0.85709913848E+03  0.85709913848E+03  0.00000000000E+00 0. -1.
         -2   -1    0    0    0  501 -0.00000000000E+00 -0.00000000000E+00 -0.94846974561E+03  0.94846974561E+03  0.00000000000E+00 0.  1.
        -24    2    1    2    0    0 -0.10249060892E+03  0.47658466874E+03  0.42703141120E+03  0.65287881306E+03  0.79105290543E+02 0.  0.
        254    2    1    2    0    0  0.10249060892E+03 -0.47658466874E+03 -0.51840201833E+03  0.11526900710E+04  0.90681667157E+03 0.  0.
         23    2    4    4    0    0 -0.50528964040E+02  0.25192104715E+03 -0.80319108088E+02  0.28405550140E+03  0.90658582306E+02 0.  0.
         23    2    4    4    0    0  0.15301957297E+03 -0.72850571589E+03 -0.43808291024E+03  0.86863456963E+03  0.92053308021E+02 0.  0.
          3    1    3    3  502    0 -0.57790930906E+02  0.39303389838E+03  0.32155551670E+03  0.51109039052E+03  0.00000000000E+00 0. -1.
         -4    1    3    3    0  502 -0.44699678018E+02  0.83550770366E+02  0.10547589450E+03  0.14178842253E+03  0.00000000000E+00 0.  1.
         13    1    5    5    0    0 -0.62888685789E+02  0.97490710794E+02 -0.49306759098E+02  0.12605785174E+03  0.00000000000E+00 0.  1.
        -13    1    5    5    0    0  0.12359721749E+02  0.15443033636E+03 -0.31012348991E+02  0.15799764966E+03  0.00000000000E+00 0. -1.
          1    1    6    6  503    0  0.12971844501E+03 -0.44880766518E+03 -0.30574631445E+03  0.55833323750E+03  0.00000000000E+00 0.  1.
         -1    1    6    6    0  503  0.23301127959E+02 -0.27969805072E+03 -0.13233659579E+03  0.31030133213E+03  0.00000000000E+00 0. -1.
<mgrwt>
<rscale>  0 0.18032555E+04</rscale>
<asrwt>0</asrwt>
<pdfrwt beam="1">  1        1 0.13186141E+00 0.18032555E+04</pdfrwt>
<pdfrwt beam="2">  1       -2 0.14591842E+00 0.18032555E+04</pdfrwt>
<totfact> 0.52607138E+00</totfact>
</mgrwt>
</event>
<event>
12    5  0.5041746E-008  0.1438381E+04  0.7818608E-02  0.8926496E-01
         -2   -1    0    0    0  501 -0.00000000000E+00  0.00000000000E+00  0.51419317207E+03  0.51419317207E+03  0.00000000000E+00 0.  1.
          1   -1    0    0  501    0  0.00000000000E+00 -0.00000000000E+00 -0.10059156985E+04  0.10059156985E+04  0.00000000000E+00 0. -1.
        -24    2    1    2    0    0  0.31926209064E+03 -0.30951355824E+03 -0.19704912050E+03  0.49272451715E+03  0.78880724255E+02 0.  0.
        254    2    1    2    0    0 -0.31926209064E+03  0.30951355824E+03 -0.29467340592E+03  0.10273843534E+04  0.87804286241E+03 0.  0.
         23    2    4    4    0    0  0.26728343715E+03  0.20821581057E+03 -0.23464317144E+03  0.42217507227E+03  0.91542963687E+02 0.  0.
         23    2    4    4    0    0 -0.58654552779E+03  0.10129774767E+03 -0.60030234476E+02  0.60520928114E+03  0.91530077451E+02 0.  0.
          3    1    3    3  502    0  0.26518160716E+03 -0.21189646242E+03 -0.15883378561E+03  0.37476601635E+03  0.00000000000E+00 0. -1.
         -4    1    3    3    0  502  0.54080483479E+02 -0.97617095825E+02 -0.38215334893E+02  0.11795850080E+03  0.00000000000E+00 0.  1.
         13    1    5    5    0    0  0.25461956297E+02  0.55350936956E+02 -0.67124011164E+02  0.90651366868E+02  0.00000000000E+00 0. -1.
        -13    1    5    5    0    0  0.24182148085E+03  0.15286487361E+03 -0.16751916028E+03  0.33152370540E+03  0.00000000000E+00 0.  1.
          3    1    6    6  503    0 -0.17761931107E+03  0.20313123213E+02  0.22695749516E+02  0.18021192992E+03  0.00000000000E+00 0. -1.
         -3    1    6    6    0  503 -0.40892621671E+03  0.80984624459E+02 -0.82725983992E+02  0.42499735122E+03  0.00000000000E+00 0.  1.
<mgrwt>
<rscale>  0 0.14383810E+04</rscale>
<asrwt>0</asrwt>
<pdfrwt beam="1">  1        1 0.15475626E+00 0.14383810E+04</pdfrwt>
<pdfrwt beam="2">  1       -2 0.79106641E-01 0.14383810E+04</pdfrwt>
<totfact> 0.18088306E+01</totfact>
</mgrwt>
</event>
<event>
12    5  0.5041746E-008  0.1316349E+04  0.7818608E-02  0.9016700E-01
         -2   -1    0    0    0  501 -0.00000000000E+00  0.00000000000E+00  0.28822896819E+03  0.28822896819E+03  0.00000000000E+00 0.  1.
          1   -1    0    0  501    0  0.00000000000E+00 -0.00000000000E+00 -0.15029505560E+04  0.15029505560E+04  0.00000000000E+00 0. -1.
        -24    2    1    2    0    0  0.33356085420E+02  0.33295959477E+03 -0.20175949969E+03  0.39612920909E+03  0.65090201970E+02 0.  0.
        254    2    1    2    0    0 -0.33356085420E+02 -0.33295959477E+03 -0.10129620881E+04  0.13950503151E+04  0.89894297346E+03 0.  0.
         23    2    4    4    0    0  0.40217591167E+03 -0.50135883784E+02 -0.57376212401E+03  0.70837544523E+03  0.91289241889E+02 0.  0.
         23    2    4    4    0    0 -0.43553199709E+03 -0.28282371099E+03 -0.43919996413E+03  0.68667486990E+03  0.94595964368E+02 0.  0.
          3    1    3    3  502    0  0.15695371271E+02  0.14611176348E+02 -0.72132166704E+01  0.22624359623E+02  0.00000000000E+00 0. -1.
         -2    1    3    3    0  502  0.17660714149E+02  0.31834841843E+03 -0.19454628302E+03  0.37350484947E+03  0.00000000000E+00 0.  1.
         13    1    5    5    0    0  0.21448577360E+03 -0.72241010107E+02 -0.32150504560E+03  0.39317732000E+03  0.00000000000E+00 0. -1.
        -13    1    5    5    0    0  0.18769013807E+03  0.22105126323E+02 -0.25225707841E+03  0.31519812523E+03  0.00000000000E+00 0.  1.
          4    1    6    6  503    0 -0.24546637497E+03 -0.10617909375E+03 -0.20257825781E+03  0.33550810978E+03  0.00000000000E+00 0. -1.
         -4    1    6    6    0  503 -0.19006562211E+03 -0.17664461724E+03 -0.23662170632E+03  0.35116676012E+03  0.00000000000E+00 0.  1.
<mgrwt>
<rscale>  0 0.13163493E+04</rscale>
<asrwt>0</asrwt>
<pdfrwt beam="1">  1        1 0.23122316E+00 0.13163493E+04</pdfrwt>
<pdfrwt beam="2">  1       -2 0.44342918E-01 0.13163493E+04</pdfrwt>
<totfact> 0.27038090E+01</totfact>
</mgrwt>
</event>
<event>
12    5  0.5041746E-008  0.1160493E+04  0.7818608E-02  0.9148158E-01
         -2   -1    0    0    0  501 -0.00000000000E+00  0.00000000000E+00  0.20426381617E+03  0.20426381617E+03  0.00000000000E+00 0.  1.
          1   -1    0    0  501    0  0.00000000000E+00 -0.00000000000E+00 -0.16482899554E+04  0.16482899554E+04  0.00000000000E+00 0. -1.
        -24    2    1    2    0    0 -0.18423892558E+03 -0.12388318647E+03 -0.31518450876E+03  0.39372818407E+03  0.79934865892E+02 0.  0.
        254    2    1    2    0    0  0.18423892558E+03  0.12388318647E+03 -0.11288416305E+04  0.14588255875E+04  0.89699366914E+03 0.  0.
         23    2    4    4    0    0  0.20603379279E+03 -0.21000176272E+03 -0.10599664076E+04  0.11036411855E+04  0.89131458601E+02 0.  0.
         23    2    4    4    0    0 -0.21794867213E+02  0.33388494919E+03 -0.68875222870E+02  0.35518440203E+03  0.97252185506E+02 0.  0.
          1    1    3    3  502    0 -0.17171124904E+03 -0.80838294361E+02 -0.27043174227E+03  0.33038297491E+03  0.00000000000E+00 0. -1.
         -2    1    3    3    0  502 -0.12527676538E+02 -0.43044892106E+02 -0.44752766490E+02  0.63345209166E+02  0.00000000000E+00 0.  1.
         13    1    5    5    0    0  0.13581028682E+03 -0.19023198724E+03 -0.77457615336E+03  0.80907407592E+03  0.00000000000E+00 0. -1.
        -13    1    5    5    0    0  0.70223505970E+02 -0.19769775480E+02 -0.28539025425E+03  0.29456710956E+03  0.00000000000E+00 0.  1.
          3    1    6    6  503    0 -0.23019969089E+02  0.32290201394E+03 -0.42388785022E+02  0.32648497466E+03  0.00000000000E+00 0. -1.
         -3    1    6    6    0  503  0.12251018758E+01  0.10982935250E+02 -0.26486437848E+02  0.28699427367E+02  0.00000000000E+00 0.  1.
<mgrwt>
<rscale>  0 0.11604930E+04</rscale>
<asrwt>0</asrwt>
<pdfrwt beam="1">  1        1 0.25358309E+00 0.11604930E+04</pdfrwt>
<pdfrwt beam="2">  1       -2 0.31425201E-01 0.11604930E+04</pdfrwt>
<totfact> 0.42343000E+01</totfact>
</mgrwt>
</event>
<event>
12    5  0.5041746E-008  0.1278683E+04  0.7818608E-02  0.9046643E-01
         -2   -1    0    0    0  501 -0.00000000000E+00  0.00000000000E+00  0.60625341507E+03  0.60625341507E+03  0.00000000000E+00 0.  1.
          1   -1    0    0  501    0  0.00000000000E+00 -0.00000000000E+00 -0.67423556473E+03  0.67423556473E+03  0.00000000000E+00 0. -1.
        -24    2    1    2    0    0 -0.97617840518E+02 -0.11849025489E+03 -0.29119829821E+03  0.33952713991E+03  0.83144732608E+02 0.  0.
        254    2    1    2    0    0  0.97617840518E+02  0.11849025489E+03  0.22321614855E+03  0.94096183989E+03  0.90111850046E+03 0.  0.
         23    2    4    4    0    0  0.93612341390E+01  0.60854714762E+02  0.56278050445E+03  0.57343596622E+03  0.91192007079E+02 0.  0.
         23    2    4    4    0    0  0.88256606379E+02  0.57635540126E+02 -0.33956435590E+03  0.36752587367E+03  0.93060367332E+02 0.  0.
          1    1    3    3  502    0 -0.96079164265E+02 -0.10934749922E+03 -0.29542428109E+03  0.32933810476E+03  0.00000000000E+00 0. -1.
         -2    1    3    3    0  502 -0.15386762528E+01 -0.91427556700E+01  0.42259828787E+01  0.10189035143E+02  0.00000000000E+00 0.  1.
         13    1    5    5    0    0 -0.10169896878E+02  0.10268030474E+02  0.90394403545E+01  0.17046135464E+02  0.00000000000E+00 0.  1.
        -13    1    5    5    0    0  0.19531131017E+02  0.50586684288E+02  0.55374106409E+03  0.55638983076E+03  0.00000000000E+00 0. -1.
          2    1    6    6  503    0  0.61428368583E+02  0.75355991734E+02 -0.30588415031E+03  0.32096274451E+03  0.00000000000E+00 0. -1.
         -2    1    6    6    0  503  0.26828237797E+02 -0.17720451608E+02 -0.33680205590E+02  0.46563129159E+02  0.00000000000E+00 0.  1.
<mgrwt>
<rscale>  0 0.12786831E+04</rscale>
<asrwt>0</asrwt>
<pdfrwt beam="1">  1        1 0.10372855E+00 0.12786831E+04</pdfrwt>
<pdfrwt beam="2">  1       -2 0.93269757E-01 0.12786831E+04</pdfrwt>
<totfact> 0.24174337E+01</totfact>
</mgrwt>
</event>
<event>
12    5  0.5041746E-008  0.2954151E+04  0.7818608E-02  0.8256946E-01
          1   -1    0    0  501    0  0.00000000000E+00  0.00000000000E+00  0.30323398253E+04  0.30323398253E+04  0.00000000000E+00 0. -1.
         -2   -1    0    0    0  501 -0.00000000000E+00 -0.00000000000E+00 -0.71949450870E+03  0.71949450870E+03  0.00000000000E+00 0.  1.
        -24    2    1    2    0    0 -0.96491333307E+03 -0.54489319290E+01 -0.13177927996E+03  0.97721936929E+03  0.80650393031E+02 0.  0.
        254    2    1    2    0    0  0.96491333307E+03  0.54489319290E+01  0.24446245965E+04  0.27746149647E+04  0.88950062004E+03 0.  0.
         23    2    4    4    0    0  0.33253556788E+03 -0.18901142524E+03  0.18140174069E+04  0.18561336439E+04  0.90927051944E+02 0.  0.
         23    2    4    4    0    0  0.63237776519E+03  0.19446035717E+03  0.63060718963E+03  0.91848132076E+03  0.90697522313E+02 0.  0.
          3    1    3    3  502    0 -0.20809959611E+03  0.30959382421E+02 -0.20174388682E+02  0.21135498863E+03  0.00000000000E+00 0. -1.
         -4    1    3    3    0  502 -0.75681373696E+03 -0.36408314350E+02 -0.11160489128E+03  0.76586438066E+03  0.00000000000E+00 0.  1.
         13    1    5    5    0    0  0.23688973549E+02 -0.22481655163E+02  0.31063381986E+03  0.31234590173E+03  0.00000000000E+00 0.  1.
        -13    1    5    5    0    0  0.30884659433E+03 -0.16652977008E+03  0.15033835870E+04  0.15437877422E+04  0.00000000000E+00 0. -1.
          2    1    6    6  503    0  0.52685519799E+03  0.13402985861E+03  0.54489388415E+03  0.76970757280E+03  0.00000000000E+00 0. -1.
         -2    1    6    6    0  503  0.10552256720E+03  0.60430498557E+02  0.85713305485E+02  0.14877374796E+03  0.00000000000E+00 0.  1.
<mgrwt>
<rscale>  0 0.29541509E+04</rscale>
<asrwt>0</asrwt>
<pdfrwt beam="1">  1        1 0.46651381E+00 0.29541509E+04</pdfrwt>
<pdfrwt beam="2">  1       -2 0.11069146E+00 0.29541509E+04</pdfrwt>
<totfact> 0.27522569E-01</totfact>
</mgrwt>
</event>
<event>
12    5  0.5041746E-008  0.1609616E+04  0.7818608E-02  0.8814662E-01
         -2   -1    0    0    0  501 -0.00000000000E+00  0.00000000000E+00  0.26826827105E+03  0.26826827105E+03  0.00000000000E+00 0.  1.
          1   -1    0    0  501    0  0.00000000000E+00 -0.00000000000E+00 -0.24144346941E+04  0.24144346941E+04  0.00000000000E+00 0. -1.
        -24    2    1    2    0    0 -0.74363393262E+02  0.55293391440E+03 -0.84682489913E+03  0.10170293321E+04  0.77268523302E+02 0.  0.
        254    2    1    2    0    0  0.74363393262E+02 -0.55293391440E+03 -0.12993415240E+04  0.16656736331E+04  0.88029224012E+03 0.  0.
         23    2    4    4    0    0 -0.33907180396E+03 -0.37820462289E+03 -0.98300476640E+03  0.11102178092E+04  0.90976854494E+02 0.  0.
         23    2    4    4    0    0  0.41343519722E+03 -0.17472929151E+03 -0.31633675757E+03  0.55545582388E+03  0.83685365985E+02 0.  0.
          3    1    3    3  502    0 -0.47097406769E+02  0.35333080883E+03 -0.47176769131E+03  0.59129145161E+03  0.00000000000E+00 0. -1.
         -4    1    3    3    0  502 -0.27265986494E+02  0.19960310557E+03 -0.37505720782E+03  0.42573788052E+03  0.00000000000E+00 0.  1.
         13    1    5    5    0    0 -0.23180398469E+03 -0.26542761328E+03 -0.76593669697E+03  0.84311560831E+03  0.00000000000E+00 0.  1.
        -13    1    5    5    0    0 -0.10726781927E+03 -0.11277700961E+03 -0.21706806943E+03  0.26710220088E+03  0.00000000000E+00 0. -1.
          1    1    6    6  503    0  0.19663950227E+03 -0.54712524199E+02 -0.18262001078E+03  0.27388067200E+03  0.00000000000E+00 0. -1.
         -1    1    6    6    0  503  0.21679569495E+03 -0.12001676731E+03 -0.13371674679E+03  0.28157515188E+03  0.00000000000E+00 0.  1.
<mgrwt>
<rscale>  0 0.16096164E+04</rscale>
<asrwt>0</asrwt>
<pdfrwt beam="1">  1        1 0.37145150E+00 0.16096164E+04</pdfrwt>
<pdfrwt beam="2">  1       -2 0.41272041E-01 0.16096164E+04</pdfrwt>
<totfact> 0.72814934E+00</totfact>
</mgrwt>
</event>
<event>
12    5  0.5041746E-008  0.1725888E+04  0.7818608E-02  0.8746736E-01
         -2   -1    0    0    0  501 -0.00000000000E+00  0.00000000000E+00  0.36862174893E+03  0.36862174893E+03  0.00000000000E+00 0.  1.
          1   -1    0    0  501    0  0.00000000000E+00 -0.00000000000E+00 -0.20201537855E+04  0.20201537855E+04  0.00000000000E+00 0. -1.
        -24    2    1    2    0    0  0.58673427086E+02 -0.19134603950E+02  0.25926450378E+03  0.27850800096E+03  0.80869769158E+02 0.  0.
        254    2    1    2    0    0 -0.58673427086E+02  0.19134603950E+02 -0.19107965404E+04  0.21102675335E+04  0.89346345205E+03 0.  0.
         23    2    4    4    0    0 -0.16424814551E+03 -0.40643504197E+03 -0.95536638771E+03  0.10550005503E+04  0.90190518618E+02 0.  0.
         23    2    4    4    0    0  0.10557471843E+03  0.42556964592E+03 -0.95543015267E+03  0.10552669832E+04  0.92119946814E+02 0.  0.
          1    1    3    3  502    0  0.24415651199E+02  0.27651283465E+02  0.15371046133E+03  0.15807473999E+03  0.00000000000E+00 0. -1.
         -2    1    3    3    0  502  0.34257775887E+02 -0.46785887415E+02  0.10555404245E+03  0.12043326096E+03  0.00000000000E+00 0.  1.
         13    1    5    5    0    0 -0.15704381018E+03 -0.37790496778E+03 -0.93034736376E+03  0.10163764756E+04  0.00000000000E+00 0.  1.
        -13    1    5    5    0    0 -0.72043353337E+01 -0.28530074192E+02 -0.25019023952E+02  0.38624074623E+02  0.00000000000E+00 0. -1.
          4    1    6    6  503    0  0.20411893548E+02  0.15577152199E+03 -0.44134581720E+03  0.46847363087E+03  0.00000000000E+00 0. -1.
         -4    1    6    6    0  503  0.85162824879E+02  0.26979812393E+03 -0.51408433548E+03  0.58679335238E+03  0.00000000000E+00 0.  1.
<mgrwt>
<rscale>  0 0.17258883E+04</rscale>
<asrwt>0</asrwt>
<pdfrwt beam="1">  1        1 0.31079289E+00 0.17258883E+04</pdfrwt>
<pdfrwt beam="2">  1       -2 0.56711038E-01 0.17258883E+04</pdfrwt>
<totfact> 0.70226724E+00</totfact>
</mgrwt>
</event>
<event>
12    5  0.5041746E-008  0.1545131E+04  0.7818608E-02  0.8854984E-01
          1   -1    0    0  501    0  0.00000000000E+00  0.00000000000E+00  0.95607664051E+03  0.95607664051E+03  0.00000000000E+00 0. -1.
         -2   -1    0    0    0  501 -0.00000000000E+00 -0.00000000000E+00 -0.62427765308E+03  0.62427765308E+03  0.00000000000E+00 0.  1.
        -24    2    1    2    0    0  0.12418875218E+03  0.44573185948E+03  0.32704231273E+03  0.57194665509E+03  0.77888158483E+02 0.  0.
        254    2    1    2    0    0 -0.12418875218E+03 -0.44573185948E+03  0.47566746936E+01  0.10084076385E+04  0.89597075996E+03 0.  0.
         23    2    4    4    0    0  0.21502111119E+03 -0.51491738865E+03  0.19981428213E+03  0.60013226500E+03  0.94122222436E+02 0.  0.
         23    2    4    4    0    0 -0.33920986337E+03  0.69185529175E+02 -0.19505760744E+03  0.40827537350E+03  0.93762154013E+02 0.  0.
          1    1    3    3  502    0  0.88475431485E+02  0.37011130955E+03  0.29827973915E+03  0.48350913768E+03  0.00000000000E+00 0. -1.
         -2    1    3    3    0  502  0.35713320698E+02  0.75620549932E+02  0.28762573579E+02  0.88437517414E+02  0.00000000000E+00 0.  1.
         13    1    5    5    0    0  0.23404578692E+02 -0.10498953979E+03  0.73673693091E+02  0.13037787704E+03  0.00000000000E+00 0. -1.
        -13    1    5    5    0    0  0.19161653250E+03 -0.40992784886E+03  0.12614058904E+03  0.46975438796E+03  0.00000000000E+00 0.  1.
          4    1    6    6  503    0 -0.35253257692E+02  0.38220533629E+02 -0.17303156992E+02  0.54799640607E+02  0.00000000000E+00 0. -1.
         -4    1    6    6    0  503 -0.30395660568E+03  0.30964995547E+02 -0.17775445045E+03  0.35347573289E+03  0.00000000000E+00 0.  1.
<mgrwt>
<rscale>  0 0.15451308E+04</rscale>
<asrwt>0</asrwt>
<pdfrwt beam="1">  1        1 0.14708871E+00 0.15451308E+04</pdfrwt>
<pdfrwt beam="2">  1       -2 0.96042716E-01 0.15451308E+04</pdfrwt>
<totfact> 0.12580179E+01</totfact>
</mgrwt>
</event>
<event>
12    5  0.5041746E-008  0.1939364E+04  0.7818608E-02  0.8635507E-01
         -2   -1    0    0    0  501 -0.00000000000E+00  0.00000000000E+00  0.37076727557E+03  0.37076727557E+03  0.00000000000E+00 0.  1.
          1   -1    0    0  501    0  0.00000000000E+00 -0.00000000000E+00 -0.25360481242E+04  0.25360481242E+04  0.00000000000E+00 0. -1.
        -24    2    1    2    0    0  0.47136736715E+03 -0.59509063882E+03 -0.96597948840E+03  0.12311299800E+04  0.79022733070E+02 0.  0.
        254    2    1    2    0    0 -0.47136736715E+03  0.59509063882E+03 -0.11993013602E+04  0.16756854198E+04  0.89066144537E+03 0.  0.
         23    2    4    4    0    0  0.14055466627E+03  0.17340429506E+03 -0.78265192071E+03  0.81881732355E+03  0.89961750733E+02 0.  0.
         23    2    4    4    0    0 -0.61192203342E+03  0.42168634375E+03 -0.41664943951E+03  0.85686809625E+03  0.91423363683E+02 0.  0.
          1    1    3    3  502    0  0.42006732563E+03 -0.52212219552E+03 -0.88920465851E+03  0.11134419921E+04  0.00000000000E+00 0. -1.
         -2    1    3    3    0  502  0.51300041521E+02 -0.72968443298E+02 -0.76774829894E+02  0.11768798784E+03  0.00000000000E+00 0.  1.
         13    1    5    5    0    0  0.10816803092E+03  0.16980271665E+03 -0.58938678919E+03  0.62282427118E+03  0.00000000000E+00 0. -1.
        -13    1    5    5    0    0  0.32386635346E+02  0.36015784120E+01 -0.19326513152E+03  0.19599305237E+03  0.00000000000E+00 0.  1.
          1    1    6    6  503    0 -0.37335268353E+03  0.20241336903E+03 -0.23992285741E+03  0.48777697338E+03  0.00000000000E+00 0. -1.
         -1    1    6    6    0  503 -0.23856934990E+03  0.21927297473E+03 -0.17672658210E+03  0.36909112286E+03  0.00000000000E+00 0.  1.
<mgrwt>
<rscale>  0 0.19393645E+04</rscale>
<asrwt>0</asrwt>
<pdfrwt beam="1">  1        1 0.39016125E+00 0.19393645E+04</pdfrwt>
<pdfrwt beam="2">  1       -2 0.57041120E-01 0.19393645E+04</pdfrwt>
<totfact> 0.30199897E+00</totfact>
</mgrwt>
</event>
<event>
12    5  0.5041746E-008  0.2369982E+04  0.7818608E-02  0.8450828E-01
         -2   -1    0    0    0  501 -0.00000000000E+00  0.00000000000E+00  0.40278884072E+03  0.40278884072E+03  0.00000000000E+00 0.  1.
          1   -1    0    0  501    0  0.00000000000E+00 -0.00000000000E+00 -0.34862023534E+04  0.34862023534E+04  0.00000000000E+00 0. -1.
        -24    2    1    2    0    0  0.53933879495E+03 -0.75234049009E+03 -0.20575566067E+04  0.22576622982E+04  0.81223853645E+02 0.  0.
        254    2    1    2    0    0 -0.53933879495E+03  0.75234049009E+03 -0.10258569060E+04  0.16313288959E+04  0.86714994448E+03 0.  0.
         23    2    4    4    0    0 -0.21191533419E+03  0.23464372860E+03  0.10237395214E+03  0.34452144441E+03  0.90822967039E+02 0.  0.
         23    2    4    4    0    0 -0.32742346076E+03  0.51769676149E+03 -0.11282308582E+04  0.12868074515E+04  0.88048216340E+02 0.  0.
          1    1    3    3  502    0  0.44553130025E+03 -0.66844334696E+03 -0.17889244348E+04  0.19610112904E+04  0.00000000000E+00 0. -1.
         -2    1    3    3    0  502  0.93807494703E+02 -0.83897143136E+02 -0.26863217187E+03  0.29665100784E+03  0.00000000000E+00 0.  1.
         13    1    5    5    0    0 -0.11934117732E+02  0.13669866837E+02 -0.15659653802E+02  0.23969004623E+02  0.00000000000E+00 0.  1.
        -13    1    5    5    0    0 -0.19998121646E+03  0.22097386177E+03  0.11803360594E+03  0.32055243978E+03  0.00000000000E+00 0. -1.
          2    1    6    6  503    0 -0.13171825605E+03  0.24819017863E+03 -0.43730685379E+03  0.51979356298E+03  0.00000000000E+00 0. -1.
         -2    1    6    6    0  503 -0.19570520471E+03  0.26950658286E+03 -0.69092400439E+03  0.76701388853E+03  0.00000000000E+00 0.  1.
<mgrwt>
<rscale>  0 0.23699818E+04</rscale>
<asrwt>0</asrwt>
<pdfrwt beam="1">  1        1 0.53633882E+00 0.23699818E+04</pdfrwt>
<pdfrwt beam="2">  1       -2 0.61967515E-01 0.23699818E+04</pdfrwt>
<totfact> 0.49020763E-01</totfact>
</mgrwt>
</event>
<event>
12    5  0.5041746E-008  0.1340415E+04  0.7818608E-02  0.8998116E-01
          1   -1    0    0  501    0  0.00000000000E+00  0.00000000000E+00  0.26727210604E+04  0.26727210604E+04  0.00000000000E+00 0. -1.
         -2   -1    0    0    0  501 -0.00000000000E+00 -0.00000000000E+00 -0.16806017718E+03  0.16806017718E+03  0.00000000000E+00 0.  1.
        -24    2    1    2    0    0 -0.30231081445E+02  0.25730006827E+03  0.12472140817E+04  0.12764212094E+04  0.81184326171E+02 0.  0.
        254    2    1    2    0    0  0.30231081445E+02 -0.25730006827E+03  0.12574468015E+04  0.15643600281E+04  0.89383029466E+03 0.  0.
         23    2    4    4    0    0 -0.31389237637E+03  0.12679037799E+03  0.25519545217E+03  0.43351699489E+03  0.90598245876E+02 0.  0.
         23    2    4    4    0    0  0.34412345781E+03 -0.38409044626E+03  0.10022513493E+04  0.11308430332E+04  0.91388038188E+02 0.  0.
          3    1    3    3  502    0 -0.43194965017E+02  0.16099800472E+03  0.92403732913E+03  0.93895215434E+03  0.00000000000E+00 0. -1.
         -4    1    3    3    0  502  0.12963883572E+02  0.96302063558E+02  0.32317675260E+03  0.33746905509E+03  0.00000000000E+00 0.  1.
         13    1    5    5    0    0 -0.15865828124E+03  0.59535346159E+02  0.18349081195E+03  0.24977146698E+03  0.00000000000E+00 0.  1.
        -13    1    5    5    0    0 -0.15523409513E+03  0.67255031832E+02  0.71704640222E+02  0.18374552791E+03  0.00000000000E+00 0. -1.
          4    1    6    6  503    0  0.21188651499E+03 -0.21589069611E+03  0.67726096461E+03  0.74174598219E+03  0.00000000000E+00 0. -1.
         -4    1    6    6    0  503  0.13223694282E+03 -0.16819975016E+03  0.32499038469E+03  0.38909705106E+03  0.00000000000E+00 0.  1.
<mgrwt>
<rscale>  0 0.13404148E+04</rscale>
<asrwt>0</asrwt>
<pdfrwt beam="1">  1        1 0.41118782E+00 0.13404148E+04</pdfrwt>
<pdfrwt beam="2">  1       -2 0.25855414E-01 0.13404148E+04</pdfrwt>
<totfact> 0.11973053E+01</totfact>
</mgrwt>
</event>
<event>
12    5  0.5041746E-008  0.2164933E+04  0.7818608E-02  0.8533167E-01
          1   -1    0    0  501    0  0.00000000000E+00  0.00000000000E+00  0.88714293333E+03  0.88714293333E+03  0.00000000000E+00 0. -1.
         -2   -1    0    0    0  501 -0.00000000000E+00 -0.00000000000E+00 -0.13207951643E+04  0.13207951643E+04  0.00000000000E+00 0.  1.
        -24    2    1    2    0    0  0.55154723138E+03 -0.41545317346E+03  0.40154862796E+03  0.80244981607E+03  0.76672804234E+02 0.  0.
        254    2    1    2    0    0 -0.55154723138E+03  0.41545317346E+03 -0.83520085893E+03  0.14054882816E+04  0.89500343410E+03 0.  0.
         23    2    4    4    0    0 -0.38675118765E+03  0.45608039998E+03 -0.98910725116E+03  0.11598740972E+04  0.96896617924E+02 0.  0.
         23    2    4    4    0    0 -0.16479604373E+03 -0.40627226525E+02  0.15390639224E+03  0.24561418439E+03  0.88492047314E+02 0.  0.
          3    1    3    3  502    0  0.20628344709E+03 -0.14049853035E+03  0.18593428871E+03  0.31123023197E+03  0.00000000000E+00 0. -1.
         -4    1    3    3    0  502  0.34526378429E+03 -0.27495464311E+03  0.21561433925E+03  0.49121958410E+03  0.00000000000E+00 0.  1.
         13    1    5    5    0    0  0.51527296128E+01  0.13468363437E+02 -0.28206558992E+02  0.31678974199E+02  0.00000000000E+00 0.  1.
        -13    1    5    5    0    0 -0.39190391726E+03  0.44261203655E+03 -0.96090069217E+03  0.11281951230E+04  0.00000000000E+00 0. -1.
          2    1    6    6  503    0 -0.16924245646E+03 -0.44200590076E+02  0.12214602702E+03  0.21334561901E+03  0.00000000000E+00 0. -1.
         -2    1    6    6    0  503  0.44464127302E+01  0.35733635509E+01  0.31760365218E+02  0.32268565385E+02  0.00000000000E+00 0.  1.
<mgrwt>
<rscale>  0 0.21649333E+04</rscale>
<asrwt>0</asrwt>
<pdfrwt beam="1">  1        1 0.13648353E+00 0.21649333E+04</pdfrwt>
<pdfrwt beam="2">  1       -2 0.20319926E+00 0.21649333E+04</pdfrwt>
<totfact> 0.18937118E+00</totfact>
</mgrwt>
</event>
<event>
12    5  0.5041746E-008  0.2475813E+04  0.7818608E-02  0.8411653E-01
          1   -1    0    0  501    0  0.00000000000E+00  0.00000000000E+00  0.70962676517E+03  0.70962676517E+03  0.00000000000E+00 0. -1.
         -2   -1    0    0    0  501 -0.00000000000E+00 -0.00000000000E+00 -0.21594633486E+04  0.21594633486E+04  0.00000000000E+00 0.  1.
        -24    2    1    2    0    0 -0.71523842642E+03 -0.64247743446E+03 -0.85447272362E+02  0.96851841335E+03  0.79896309158E+02 0.  0.
        254    2    1    2    0    0  0.71523842642E+03  0.64247743446E+03 -0.13643893111E+04  0.19005717004E+04  0.90899468418E+03 0.  0.
         23    2    4    4    0    0  0.41830131837E+02  0.48263004514E+03 -0.99558884210E+03  0.11109895741E+04  0.91756039482E+02 0.  0.
         23    2    4    4    0    0  0.67340829458E+03  0.15984738933E+03 -0.36880046897E+03  0.78958212636E+03  0.91630940497E+02 0.  0.
          3    1    3    3  502    0 -0.66615956982E+03 -0.61383667237E+03 -0.65195613104E+02  0.90819298652E+03  0.00000000000E+00 0. -1.
         -4    1    3    3    0  502 -0.49078856606E+02 -0.28640762099E+02 -0.20251659258E+02  0.60325426828E+02  0.00000000000E+00 0.  1.
         13    1    5    5    0    0  0.57980281358E+02  0.44537976161E+03 -0.87149159543E+03  0.98041952550E+03  0.00000000000E+00 0.  1.
        -13    1    5    5    0    0 -0.16150149522E+02  0.37250283527E+02 -0.12409724667E+03  0.13057004857E+03  0.00000000000E+00 0. -1.
          4    1    6    6  503    0  0.17367166953E+03  0.82872876949E+02 -0.95781436703E+02  0.21495079936E+03  0.00000000000E+00 0. -1.
         -4    1    6    6    0  503  0.49973662506E+03  0.76974512379E+02 -0.27301903227E+03  0.57463132699E+03  0.00000000000E+00 0.  1.
<mgrwt>
<rscale>  0 0.24758134E+04</rscale>
<asrwt>0</asrwt>
<pdfrwt beam="1">  1        1 0.10917335E+00 0.24758134E+04</pdfrwt>
<pdfrwt beam="2">  1       -2 0.33222513E+00 0.24758134E+04</pdfrwt>
<totfact> 0.41886471E-01</totfact>
</mgrwt>
</event>
<event>
12    5  0.5041746E-008  0.1351229E+04  0.7818608E-02  0.8989898E-01
          1   -1    0    0  501    0  0.00000000000E+00  0.00000000000E+00  0.22839809292E+04  0.22839809292E+04  0.00000000000E+00 0. -1.
         -2   -1    0    0    0  501 -0.00000000000E+00 -0.00000000000E+00 -0.19985058009E+03  0.19985058009E+03  0.00000000000E+00 0.  1.
        -24    2    1    2    0    0 -0.83844419605E+02 -0.19613644423E+03  0.26984119274E+02  0.22934711566E+03  0.79828349068E+02 0.  0.
        254    2    1    2    0    0  0.83844419605E+02  0.19613644423E+03  0.20571462298E+04  0.22544843936E+04  0.89741288085E+03 0.  0.
         23    2    4    4    0    0  0.11502117555E+03  0.53904568463E+03  0.11186978064E+04  0.12505616448E+04  0.92841392940E+02 0.  0.
         23    2    4    4    0    0 -0.31176755949E+02 -0.34290924039E+03  0.93844842337E+03  0.10039227488E+04  0.92826209008E+02 0.  0.
          1    1    3    3  502    0 -0.14961352422E+01  0.51561908284E+01 -0.74184632371E+01  0.91574189225E+01  0.00000000000E+00 0. -1.
         -2    1    3    3    0  502 -0.82348284363E+02 -0.20129263506E+03  0.34402582511E+02  0.22018969674E+03  0.00000000000E+00 0.  1.
         13    1    5    5    0    0  0.11737428965E+03  0.53947132727E+03  0.10907762769E+04  0.12225379026E+04  0.00000000000E+00 0. -1.
        -13    1    5    5    0    0 -0.23531140983E+01 -0.42564264415E+00  0.27921529499E+02  0.28023742206E+02  0.00000000000E+00 0.  1.
          4    1    6    6  503    0 -0.53741217091E+02 -0.28225850402E+03  0.82099316637E+03  0.86982053363E+03  0.00000000000E+00 0. -1.
         -4    1    6    6    0  503  0.22564461142E+02 -0.60650736375E+02  0.11745525700E+03  0.13410221521E+03  0.00000000000E+00 0.  1.
<mgrwt>
<rscale>  0 0.13512289E+04</rscale>
<asrwt>0</asrwt>
<pdfrwt beam="1">  1        1 0.35138166E+00 0.13512289E+04</pdfrwt>
<pdfrwt beam="2">  1       -2 0.30746245E-01 0.13512289E+04</pdfrwt>
<totfact> 0.16104322E+01</totfact>
</mgrwt>
</event>
<event>
12    5  0.5041746E-008  0.1867078E+04  0.7818608E-02  0.8671420E-01
         -2   -1    0    0    0  501 -0.00000000000E+00  0.00000000000E+00  0.71237175176E+03  0.71237175176E+03  0.00000000000E+00 0.  1.
          1   -1    0    0  501    0  0.00000000000E+00 -0.00000000000E+00 -0.12233709890E+04  0.12233709890E+04  0.00000000000E+00 0. -1.
        -24    2    1    2    0    0 -0.68468205744E+03 -0.15644666704E+03 -0.16265391883E+02  0.70700209784E+03  0.79513042712E+02 0.  0.
        254    2    1    2    0    0  0.68468205744E+03  0.15644666704E+03 -0.49473384540E+03  0.12287406430E+04  0.87850834401E+03 0.  0.
         23    2    4    4    0    0  0.78094160588E+03  0.13382592146E+03 -0.64621712586E+03  0.10266220366E+04  0.92612434994E+02 0.  0.
         23    2    4    4    0    0 -0.96259548442E+02  0.22620745579E+02  0.15148328046E+03  0.20211860642E+03  0.90150696084E+02 0.  0.
          1    1    3    3  502    0 -0.44383098858E+03 -0.10129282058E+03 -0.48515823437E+02  0.45782088970E+03  0.00000000000E+00 0. -1.
         -2    1    3    3    0  502 -0.24085106886E+03 -0.55153846455E+02  0.32250431555E+02  0.24918120813E+03  0.00000000000E+00 0.  1.
         13    1    5    5    0    0  0.21898743756E+03  0.80199332007E+02 -0.18813221294E+03  0.29963504502E+03  0.00000000000E+00 0. -1.
        -13    1    5    5    0    0  0.56195416833E+03  0.53626589450E+02 -0.45808491293E+03  0.72698699153E+03  0.00000000000E+00 0.  1.
          4    1    6    6  503    0 -0.16971881256E+02 -0.32357047979E+02  0.51794184025E+02  0.63385020360E+02  0.00000000000E+00 0. -1.
         -4    1    6    6    0  503 -0.79287667187E+02  0.54977793557E+02  0.99689096436E+02  0.13873358606E+03  0.00000000000E+00 0.  1.
<mgrwt>
<rscale>  0 0.18670779E+04</rscale>
<asrwt>0</asrwt>
<pdfrwt beam="1">  1        1 0.18821092E+00 0.18670779E+04</pdfrwt>
<pdfrwt beam="2">  1       -2 0.10959566E+00 0.18670779E+04</pdfrwt>
<totfact> 0.56054723E+00</totfact>
</mgrwt>
</event>
<event>
12    5  0.5041746E-008  0.1080454E+04  0.7818608E-02  0.9224455E-01
         -2   -1    0    0    0  501 -0.00000000000E+00  0.00000000000E+00  0.25357811441E+03  0.25357811441E+03  0.00000000000E+00 0.  1.
          1   -1    0    0  501    0  0.00000000000E+00 -0.00000000000E+00 -0.11509090086E+04  0.11509090086E+04  0.00000000000E+00 0. -1.
        -24    2    1    2    0    0  0.64122336722E+02  0.10960287406E+03 -0.44064276804E+02  0.15617315941E+03  0.79523148589E+02 0.  0.
        254    2    1    2    0    0 -0.64122336722E+02 -0.10960287406E+03 -0.85326661742E+03  0.12483139636E+04  0.90227455208E+03 0.  0.
         23    2    4    4    0    0 -0.20313189098E+03  0.10560649449E+03 -0.93338601682E+03  0.96532802606E+03  0.90738330868E+02 0.  0.
         23    2    4    4    0    0  0.13900955426E+03 -0.21520936856E+03  0.80119399407E+02  0.28298593757E+03  0.89572284841E+02 0.  0.
          3    1    3    3  502    0  0.67150428000E+02  0.36145502135E+02 -0.24401637476E+02  0.80069452456E+02  0.00000000000E+00 0. -1.
         -4    1    3    3    0  502 -0.30280912780E+01  0.73457371928E+02 -0.19662639328E+02  0.76103706958E+02  0.00000000000E+00 0.  1.
         13    1    5    5    0    0 -0.76601095821E+02 -0.60939865332E+01 -0.32532129589E+03  0.33427355581E+03  0.00000000000E+00 0.  1.
        -13    1    5    5    0    0 -0.12653079516E+03  0.11170048103E+03 -0.60806472094E+03  0.63105447026E+03  0.00000000000E+00 0. -1.
          3    1    6    6  503    0  0.13600588142E+03 -0.20277916351E+03  0.96205887928E+02  0.26243582416E+03  0.00000000000E+00 0. -1.
         -3    1    6    6    0  503  0.30036728424E+01 -0.12430205050E+02 -0.16086488521E+02  0.20550113407E+02  0.00000000000E+00 0.  1.
<mgrwt>
<rscale>  0 0.10804542E+04</rscale>
<asrwt>0</asrwt>
<pdfrwt beam="1">  1        1 0.17706293E+00 0.10804542E+04</pdfrwt>
<pdfrwt beam="2">  1       -2 0.39012017E-01 0.10804542E+04</pdfrwt>
<totfact> 0.63086337E+01</totfact>
</mgrwt>
</event>
<event>
12    5  0.5041746E-008  0.1970227E+04  0.7818608E-02  0.8620668E-01
          1   -1    0    0  501    0  0.00000000000E+00  0.00000000000E+00  0.18086838629E+04  0.18086838629E+04  0.00000000000E+00 0. -1.
         -2   -1    0    0    0  501 -0.00000000000E+00 -0.00000000000E+00 -0.53654955014E+03  0.53654955014E+03  0.00000000000E+00 0.  1.
        -24    2    1    2    0    0  0.62219808712E+03 -0.14361623082E+02  0.10905498289E+04  0.12581249490E+04  0.79011025655E+02 0.  0.
        254    2    1    2    0    0 -0.62219808712E+03  0.14361623082E+02  0.18158448384E+03  0.10871084640E+04  0.87263690728E+03 0.  0.
         23    2    4    4    0    0 -0.29005100370E+03 -0.31722126428E+03  0.36861233442E+03  0.57382379008E+03  0.92950383116E+02 0.  0.
         23    2    4    4    0    0 -0.33214708342E+03  0.33158288736E+03 -0.18702785058E+03  0.51328467394E+03  0.90624739427E+02 0.  0.
          3    1    3    3  502    0  0.55001877081E+03 -0.26464412740E+02  0.91479714274E+03  0.10677428650E+04  0.00000000000E+00 0. -1.
         -4    1    3    3    0  502  0.72179316313E+02  0.12102789658E+02  0.17575268620E+03  0.19038208405E+03  0.00000000000E+00 0.  1.
         13    1    5    5    0    0 -0.27762251850E+03 -0.30474952263E+03  0.37270444693E+03  0.55574736984E+03  0.00000000000E+00 0. -1.
        -13    1    5    5    0    0 -0.12428485195E+02 -0.12471741652E+02 -0.40921125091E+01  0.18076420245E+02  0.00000000000E+00 0.  1.
          1    1    6    6  503    0 -0.22822472485E+03  0.21509079979E+03 -0.78890233334E+02  0.32337941509E+03  0.00000000000E+00 0. -1.
         -1    1    6    6    0  503 -0.10392235858E+03  0.11649208757E+03 -0.10813761724E+03  0.18990525886E+03  0.00000000000E+00 0.  1.
<mgrwt>
<rscale>  0 0.19702269E+04</rscale>
<asrwt>0</asrwt>
<pdfrwt beam="1">  1        1 0.27825905E+00 0.19702269E+04</pdfrwt>
<pdfrwt beam="2">  1       -2 0.82546086E-01 0.19702269E+04</pdfrwt>
<totfact> 0.42264530E+00</totfact>
</mgrwt>
</event>
<event>
12    5  0.5041746E-008  0.2052222E+04  0.7818608E-02  0.8582587E-01
         -2   -1    0    0    0  501 -0.00000000000E+00  0.00000000000E+00  0.37678568676E+03  0.37678568676E+03  0.00000000000E+00 0.  1.
          1   -1    0    0  501    0  0.00000000000E+00 -0.00000000000E+00 -0.27944358533E+04  0.27944358533E+04  0.00000000000E+00 0. -1.
        -24    2    1    2    0    0 -0.80119279780E+03 -0.93764655640E+02 -0.11052895305E+04  0.13706326992E+04  0.79166534715E+02 0.  0.
        254    2    1    2    0    0  0.80119279780E+03  0.93764655640E+02 -0.13123606361E+04  0.18005888408E+04  0.93227036026E+03 0.  0.
         23    2    4    4    0    0 -0.57711423247E+02  0.32014580913E+03 -0.32238099761E+03  0.46751920012E+03  0.93918834029E+02 0.  0.
         23    2    4    4    0    0  0.85890422105E+03 -0.22638115349E+03 -0.98997963850E+03  0.13330696407E+04  0.89722320210E+02 0.  0.
          3    1    3    3  502    0 -0.42633952991E+03 -0.75472955474E+02 -0.64296414236E+03  0.77515446856E+03  0.00000000000E+00 0. -1.
         -4    1    3    3    0  502 -0.37485326788E+03 -0.18291700166E+02 -0.46232538809E+03  0.59547823068E+03  0.00000000000E+00 0.  1.
         13    1    5    5    0    0 -0.62063405891E+01  0.24212128403E+03 -0.20395087700E+03  0.31663416599E+03  0.00000000000E+00 0. -1.
        -13    1    5    5    0    0 -0.51505082658E+02  0.78024525100E+02 -0.11843012061E+03  0.15088503413E+03  0.00000000000E+00 0.  1.
          4    1    6    6  503    0  0.80778520923E+03 -0.22703584217E+03 -0.95429145444E+03  0.12707219987E+04  0.00000000000E+00 0. -1.
         -4    1    6    6    0  503  0.51119011813E+02  0.65468868271E+00 -0.35688184058E+02  0.62347642036E+02  0.00000000000E+00 0.  1.
<mgrwt>
<rscale>  0 0.20522217E+04</rscale>
<asrwt>0</asrwt>
<pdfrwt beam="1">  1        1 0.42991321E+00 0.20522217E+04</pdfrwt>
<pdfrwt beam="2">  1       -2 0.57967028E-01 0.20522217E+04</pdfrwt>
<totfact> 0.19026035E+00</totfact>
</mgrwt>
</event>
<event>
12    5  0.5041746E-008  0.1590912E+04  0.7818608E-02  0.8826150E-01
          1   -1    0    0  501    0  0.00000000000E+00  0.00000000000E+00  0.84334391142E+03  0.84334391142E+03  0.00000000000E+00 0. -1.
         -2   -1    0    0    0  501 -0.00000000000E+00 -0.00000000000E+00 -0.75028764798E+03  0.75028764798E+03  0.00000000000E+00 0.  1.
        -24    2    1    2    0    0  0.46839208162E+03  0.13310816336E+03  0.26041317321E+03  0.55782288484E+03  0.79009017172E+02 0.  0.
        254    2    1    2    0    0 -0.46839208162E+03 -0.13310816336E+03 -0.16735690977E+03  0.10358086746E+04  0.89876712766E+03 0.  0.
         23    2    4    4    0    0  0.21274407140E+03 -0.91250352895E+02 -0.23717774470E+03  0.34375148023E+03  0.91242154522E+02 0.  0.
         23    2    4    4    0    0 -0.68113615302E+03 -0.41857810464E+02  0.69820834931E+02  0.69205719432E+03  0.91485933177E+02 0.  0.
          3    1    3    3  502    0  0.44847205560E+03  0.14345680091E+03  0.24879943969E+03  0.53254877670E+03  0.00000000000E+00 0. -1.
         -4    1    3    3    0  502  0.19920026022E+02 -0.10348637550E+02  0.11613733518E+02  0.25274108136E+02  0.00000000000E+00 0.  1.
         13    1    5    5    0    0  0.55904417159E+02 -0.17524060984E+02 -0.12293249573E+03  0.13617927551E+03  0.00000000000E+00 0. -1.
        -13    1    5    5    0    0  0.15683965425E+03 -0.73726291911E+02 -0.11424524896E+03  0.20757220472E+03  0.00000000000E+00 0.  1.
          4    1    6    6  503    0 -0.58904424844E+03 -0.56693374339E+01  0.50413574632E+02  0.59122482738E+03  0.00000000000E+00 0.  1.
         -4    1    6    6    0  503 -0.92091904583E+02 -0.36188473030E+02  0.19407260299E+02  0.10083236694E+03  0.00000000000E+00 0. -1.
<mgrwt>
<rscale>  0 0.15909123E+04</rscale>
<asrwt>0</asrwt>
<pdfrwt beam="1">  1        1 0.12974522E+00 0.15909123E+04</pdfrwt>
<pdfrwt beam="2">  1       -2 0.11542887E+00 0.15909123E+04</pdfrwt>
<totfact> 0.99732586E+00</totfact>
</mgrwt>
</event>
<event>
12    5  0.5041746E-008  0.1754019E+04  0.7818608E-02  0.8731141E-01
         -4   -1    0    0    0  501 -0.00000000000E+00  0.00000000000E+00  0.38447885344E+03  0.38447885344E+03  0.00000000000E+00 0.  1.
          3   -1    0    0  501    0  0.00000000000E+00 -0.00000000000E+00 -0.20004883754E+04  0.20004883754E+04  0.00000000000E+00 0. -1.
        -24    2    1    2    0    0  0.37132693850E+03 -0.26504259023E+03  0.22114425180E+02  0.46376467211E+03  0.80357659305E+02 0.  0.
        254    2    1    2    0    0 -0.37132693850E+03  0.26504259023E+03 -0.16381239472E+04  0.19212025568E+04  0.89411292793E+03 0.  0.
         23    2    4    4    0    0 -0.35430369030E+03  0.16627352314E+03 -0.15329844069E+03  0.43020084914E+03  0.91620790366E+02 0.  0.
         23    2    4    4    0    0 -0.17023248199E+02  0.98769067090E+02 -0.14848255065E+04  0.14910017076E+04  0.91291772969E+02 0.  0.
          3    1    3    3  502    0  0.13794433988E+03 -0.14618133886E+03  0.18386509409E+02  0.20183084121E+03  0.00000000000E+00 0. -1.
         -4    1    3    3    0  502  0.23338259862E+03 -0.11886125137E+03  0.37279157708E+01  0.26193383090E+03  0.00000000000E+00 0.  1.
         13    1    5    5    0    0 -0.14296808185E+03  0.57897730834E+02 -0.10830496253E+03  0.18847276878E+03  0.00000000000E+00 0.  1.
        -13    1    5    5    0    0 -0.21133560845E+03  0.10837579230E+03 -0.44993478152E+02  0.24172808036E+03  0.00000000000E+00 0. -1.
          2    1    6    6  503    0 -0.53944824900E+02  0.66115425579E+02 -0.85345673449E+03  0.85771189293E+03  0.00000000000E+00 0. -1.
         -2    1    6    6    0  503  0.36921576701E+02  0.32653641510E+02 -0.63136877201E+03  0.63328981469E+03  0.00000000000E+00 0.  1.
<mgrwt>
<rscale>  0 0.17540188E+04</rscale>
<asrwt>0</asrwt>
<pdfrwt beam="1">  1        3 0.30776745E+00 0.17540188E+04</pdfrwt>
<pdfrwt beam="2">  1       -4 0.59150592E-01 0.17540188E+04</pdfrwt>
<totfact> 0.20648123E-01</totfact>
</mgrwt>
</event>
<event>
12    5  0.5041746E-008  0.1668059E+04  0.7818608E-02  0.8779794E-01
         -2   -1    0    0    0  501 -0.00000000000E+00  0.00000000000E+00  0.30651092035E+03  0.30651092035E+03  0.00000000000E+00 0.  1.
          1   -1    0    0  501    0  0.00000000000E+00 -0.00000000000E+00 -0.22694313241E+04  0.22694313241E+04  0.00000000000E+00 0. -1.
        -24    2    1    2    0    0  0.22143928754E+03 -0.37255757763E+03 -0.12377517842E+04  0.13137850805E+04  0.78531851254E+02 0.  0.
        254    2    1    2    0    0 -0.22143928754E+03  0.37255757763E+03 -0.72516861952E+03  0.12621571640E+04  0.93772953088E+03 0.  0.
         23    2    4    4    0    0 -0.32114439410E+03  0.39689245964E+03  0.55478769695E+01  0.51865129999E+03  0.91164936564E+02 0.  0.
         23    2    4    4    0    0  0.99705106558E+02 -0.24334882015E+02 -0.73071649649E+03  0.74350586397E+03  0.91219936203E+02 0.  0.
          3    1    3    3  502    0  0.22263422439E+03 -0.36011503982E+03 -0.11561556489E+04  0.12312370707E+04  0.00000000000E+00 0. -1.
         -2    1    3    3    0  502 -0.11949368548E+01 -0.12442537806E+02 -0.81596135334E+02  0.82548009804E+02  0.00000000000E+00 0.  1.
         13    1    5    5    0    0 -0.31543221709E+03  0.35199655258E+03 -0.26416541715E+01  0.47265847601E+03  0.00000000000E+00 0. -1.
        -13    1    5    5    0    0 -0.57121770051E+01  0.44895907061E+02  0.81895311410E+01  0.45992823976E+02  0.00000000000E+00 0.  1.
          1    1    6    6  503    0  0.36458997918E+02 -0.55611162471E+02 -0.33184052812E+03  0.33843758069E+03  0.00000000000E+00 0. -1.
         -1    1    6    6    0  503  0.63246108640E+02  0.31276280455E+02 -0.39887596837E+03  0.40506828328E+03  0.00000000000E+00 0.  1.
<mgrwt>
<rscale>  0 0.16680593E+04</rscale>
<asrwt>0</asrwt>
<pdfrwt beam="1">  1        1 0.34914327E+00 0.16680593E+04</pdfrwt>
<pdfrwt beam="2">  1       -2 0.47155528E-01 0.16680593E+04</pdfrwt>
<totfact> 0.69813747E+00</totfact>
</mgrwt>
</event>
<event>
12    5  0.5041746E-008  0.1240494E+04  0.7818608E-02  0.9078132E-01
         -2   -1    0    0    0  501 -0.00000000000E+00  0.00000000000E+00  0.87026277423E+03  0.87026277423E+03  0.00000000000E+00 0.  1.
          1   -1    0    0  501    0  0.00000000000E+00 -0.00000000000E+00 -0.44205793593E+03  0.44205793593E+03  0.00000000000E+00 0. -1.
        -24    2    1    2    0    0  0.35667858687E+02 -0.48115979576E+02 -0.20696090505E+03  0.23027985442E+03  0.81293612889E+02 0.  0.
        254    2    1    2    0    0 -0.35667858687E+02  0.48115979576E+02  0.63516574334E+03  0.10820408557E+04  0.87395054113E+03 0.  0.
         23    2    4    4    0    0  0.12449078804E+03 -0.28439263214E+03  0.62466778280E+03  0.70333509844E+03  0.89962749580E+02 0.  0.
         23    2    4    4    0    0 -0.16015864673E+03  0.33250861172E+03  0.10497960543E+02  0.37870575730E+03  0.84232264879E+02 0.  0.
          1    1    3    3  502    0  0.18320511831E+00 -0.25172850100E+02 -0.17626032356E+03  0.17804889106E+03  0.00000000000E+00 0. -1.
         -2    1    3    3    0  502  0.35484653569E+02 -0.22943129476E+02 -0.30700581486E+02  0.52230963352E+02  0.00000000000E+00 0.  1.
         13    1    5    5    0    0 -0.65479532508E+01 -0.43198340894E+02  0.49494346899E+02  0.66020169060E+02  0.00000000000E+00 0.  1.
        -13    1    5    5    0    0  0.13103874130E+03 -0.24119429125E+03  0.57517343590E+03  0.63731492938E+03  0.00000000000E+00 0. -1.
          4    1    6    6  503    0 -0.14011016697E+03  0.21413536346E+03 -0.13564094080E+02  0.25625923870E+03  0.00000000000E+00 0. -1.
         -4    1    6    6    0  503 -0.20048479764E+02  0.11837324826E+03  0.24062054623E+02  0.12244651860E+03  0.00000000000E+00 0.  1.
<mgrwt>
<rscale>  0 0.12404944E+04</rscale>
<asrwt>0</asrwt>
<pdfrwt beam="1">  1        1 0.68008913E-01 0.12404944E+04</pdfrwt>
<pdfrwt beam="2">  1       -2 0.13388658E+00 0.12404944E+04</pdfrwt>
<totfact> 0.18218978E+01</totfact>
</mgrwt>
</event>
<event>
12    5  0.5041746E-008  0.1814381E+04  0.7818608E-02  0.8698689E-01
         -2   -1    0    0    0  501 -0.00000000000E+00  0.00000000000E+00  0.36668094021E+03  0.36668094021E+03  0.00000000000E+00 0.  1.
          1   -1    0    0  501    0  0.00000000000E+00 -0.00000000000E+00 -0.22444441490E+04  0.22444441490E+04  0.00000000000E+00 0. -1.
        -24    2    1    2    0    0 -0.38009171127E+03 -0.20110894608E+03 -0.14803179846E+04  0.15436408347E+04  0.81062776855E+02 0.  0.
        254    2    1    2    0    0  0.38009171127E+03  0.20110894608E+03 -0.39744522417E+03  0.10674842545E+04  0.89254994832E+03 0.  0.
         23    2    4    4    0    0  0.62068469228E+03  0.11709761097E+03 -0.46277648591E+03  0.78840756699E+03  0.91994989306E+02 0.  0.
         23    2    4    4    0    0 -0.24059298101E+03  0.84011335112E+02  0.65331261737E+02  0.27907668752E+03  0.93127529879E+02 0.  0.
          1    1    3    3  502    0 -0.16808911786E+03 -0.10659995957E+03 -0.81654084381E+03  0.84045014875E+03  0.00000000000E+00 0. -1.
         -2    1    3    3    0  502 -0.21200259341E+03 -0.94508986510E+02 -0.66377714078E+03  0.70319068592E+03  0.00000000000E+00 0.  1.
         13    1    5    5    0    0  0.21548503656E+03  0.61792258579E+02 -0.11700906595E+03  0.25286993834E+03  0.00000000000E+00 0.  1.
        -13    1    5    5    0    0  0.40519965572E+03  0.55305352392E+02 -0.34576741996E+03  0.53553762865E+03  0.00000000000E+00 0. -1.
          3    1    6    6  503    0  0.53425434788E+00 -0.94923395032E+01  0.11483554286E+02  0.14908452502E+02  0.00000000000E+00 0. -1.
         -3    1    6    6    0  503 -0.24112723535E+03  0.93503674615E+02  0.53847707450E+02  0.26416823502E+03  0.00000000000E+00 0.  1.
<mgrwt>
<rscale>  0 0.18143813E+04</rscale>
<asrwt>0</asrwt>
<pdfrwt beam="1">  1        1 0.34529910E+00 0.18143813E+04</pdfrwt>
<pdfrwt beam="2">  1       -2 0.56412452E-01 0.18143813E+04</pdfrwt>
<totfact> 0.49601473E+00</totfact>
</mgrwt>
</event>
<event>
12    5  0.5041746E-008  0.1960992E+04  0.7818608E-02  0.8625079E-01
          1   -1    0    0  501    0  0.00000000000E+00  0.00000000000E+00  0.11578910259E+04  0.11578910259E+04  0.00000000000E+00 0. -1.
         -2   -1    0    0    0  501 -0.00000000000E+00 -0.00000000000E+00 -0.83027844748E+03  0.83027844748E+03  0.00000000000E+00 0.  1.
        -24    2    1    2    0    0 -0.69079587058E+03  0.22813536158E+03 -0.97894194761E+02  0.73837159606E+03  0.79778834866E+02 0.  0.
        254    2    1    2    0    0  0.69079587058E+03 -0.22813536158E+03  0.42550677320E+03  0.12497978773E+04  0.92287271177E+03 0.  0.
         23    2    4    4    0    0 -0.11242657337E+02  0.21134809894E+03  0.34177421847E+03  0.41264227321E+03  0.93110756395E+02 0.  0.
         23    2    4    4    0    0  0.70203852792E+03 -0.43948346051E+03  0.83732554721E+02  0.83715560412E+03  0.88399988949E+02 0.  0.
          3    1    3    3  502    0 -0.66459194622E+03  0.20365364095E+03 -0.10092070524E+03  0.70238326375E+03  0.00000000000E+00 0. -1.
         -4    1    3    3    0  502 -0.26203924357E+02  0.24481720631E+02  0.30265104767E+01  0.35988332310E+02  0.00000000000E+00 0.  1.
         13    1    5    5    0    0 -0.23782265800E+02  0.83401285333E+02  0.21613032316E+03  0.23288127265E+03  0.00000000000E+00 0.  1.
        -13    1    5    5    0    0  0.12539608463E+02  0.12794681360E+03  0.12564389531E+03  0.17976100056E+03  0.00000000000E+00 0. -1.
          1    1    6    6  503    0  0.35307434664E+02 -0.16905557876E+02  0.23119661505E+02  0.45463519197E+02  0.00000000000E+00 0. -1.
         -1    1    6    6    0  503  0.66673109325E+03 -0.42257790264E+03  0.60612893217E+02  0.79169208492E+03  0.00000000000E+00 0.  1.
<mgrwt>
<rscale>  0 0.19609915E+04</rscale>
<asrwt>0</asrwt>
<pdfrwt beam="1">  1        1 0.17813708E+00 0.19609915E+04</pdfrwt>
<pdfrwt beam="2">  1       -2 0.12773515E+00 0.19609915E+04</pdfrwt>
<totfact> 0.42539288E+00</totfact>
</mgrwt>
</event>
<event>
12    5  0.5041746E-008  0.1385371E+04  0.7818608E-02  0.8964476E-01
          1   -1    0    0  501    0  0.00000000000E+00  0.00000000000E+00  0.14049728777E+04  0.14049728777E+04  0.00000000000E+00 0. -1.
         -2   -1    0    0    0  501 -0.00000000000E+00 -0.00000000000E+00 -0.34151089342E+03  0.34151089342E+03  0.00000000000E+00 0.  1.
        -24    2    1    2    0    0  0.25931636288E+03  0.28118498149E+03  0.43172909822E+03  0.58192514219E+03  0.77051197260E+02 0.  0.
        254    2    1    2    0    0 -0.25931636288E+03 -0.28118498149E+03  0.63173288602E+03  0.11645586289E+04  0.90044455184E+03 0.  0.
         23    2    4    4    0    0 -0.49608059037E+02 -0.55023074021E+03  0.58141108350E+03  0.80730647296E+03  0.92141555708E+02 0.  0.
         23    2    4    4    0    0 -0.20970830384E+03  0.26904575872E+03  0.50321802523E+02  0.35725215591E+03  0.93453871562E+02 0.  0.
          1    1    3    3  502    0  0.15742898906E+03  0.16285041457E+03  0.30998710944E+03  0.38392206519E+03  0.00000000000E+00 0. -1.
         -2    1    3    3    0  502  0.10188737382E+03  0.11833456692E+03  0.12174198878E+03  0.19800307700E+03  0.00000000000E+00 0.  1.
         13    1    5    5    0    0 -0.35716125456E+02 -0.50996188905E+03  0.56422768440E+03  0.76137352839E+03  0.00000000000E+00 0.  1.
        -13    1    5    5    0    0 -0.13891933580E+02 -0.40268851159E+02  0.17183399097E+02  0.45932944570E+02  0.00000000000E+00 0. -1.
          3    1    6    6  503    0 -0.52009749504E+02  0.14119687104E+03  0.27459017585E+02  0.15295609855E+03  0.00000000000E+00 0. -1.
         -3    1    6    6    0  503 -0.15769855434E+03  0.12784888767E+03  0.22862784938E+02  0.20429605736E+03  0.00000000000E+00 0.  1.
<mgrwt>
<rscale>  0 0.13853715E+04</rscale>
<asrwt>0</asrwt>
<pdfrwt beam="1">  1        1 0.21614967E+00 0.13853715E+04</pdfrwt>
<pdfrwt beam="2">  1       -2 0.52540138E-01 0.13853715E+04</pdfrwt>
<totfact> 0.22309628E+01</totfact>
</mgrwt>
</event>
<event>
12    5  0.5041746E-008  0.1720405E+04  0.7818608E-02  0.8749812E-01
          1   -1    0    0  501    0  0.00000000000E+00  0.00000000000E+00  0.10733332923E+04  0.10733332923E+04  0.00000000000E+00 0. -1.
         -2   -1    0    0    0  501 -0.00000000000E+00 -0.00000000000E+00 -0.68939252360E+03  0.68939252360E+03  0.00000000000E+00 0.  1.
        -24    2    1    2    0    0  0.45081621658E+02 -0.61053490185E+03  0.21160309453E+03  0.65496986016E+03  0.97079498960E+02 0.  0.
        254    2    1    2    0    0 -0.45081621658E+02  0.61053490185E+03  0.17233767412E+03  0.11077559557E+04  0.90699380618E+03 0.  0.
         23    2    4    4    0    0  0.17927412330E+03 -0.17488080745E+03  0.88363311275E+02  0.28086268826E+03  0.91396207688E+02 0.  0.
         23    2    4    4    0    0 -0.22435574496E+03  0.78541570930E+03  0.83974362849E+02  0.82689326743E+03  0.97403518333E+02 0.  0.
          1    1    3    3  502    0  0.59434817237E+02 -0.28543918140E+03  0.13149567413E+03  0.31984236132E+03  0.00000000000E+00 0. -1.
         -2    1    3    3    0  502 -0.14353195579E+02 -0.32509572045E+03  0.80107420394E+02  0.33512749885E+03  0.00000000000E+00 0.  1.
         13    1    5    5    0    0  0.86657142490E+02 -0.13928519769E+03  0.33306131968E+02  0.16738914261E+03  0.00000000000E+00 0.  1.
        -13    1    5    5    0    0  0.92616980809E+02 -0.35595609766E+02  0.55057179307E+02  0.11347354565E+03  0.00000000000E+00 0. -1.
          3    1    6    6  503    0 -0.10593883555E+03  0.30281842649E+03 -0.10919601185E+02  0.32100042677E+03  0.00000000000E+00 0. -1.
         -3    1    6    6    0  503 -0.11841690941E+03  0.48259728281E+03  0.94893964035E+02  0.50589284065E+03  0.00000000000E+00 0.  1.
<mgrwt>
<rscale>  0 0.17204045E+04</rscale>
<asrwt>0</asrwt>
<pdfrwt beam="1">  1        1 0.16512820E+00 0.17204045E+04</pdfrwt>
<pdfrwt beam="2">  1       -2 0.10606039E+00 0.17204045E+04</pdfrwt>
<totfact> 0.79388439E+00</totfact>
</mgrwt>
</event>
<event>
12    5  0.5041746E-008  0.3285208E+04  0.7818608E-02  0.8166670E-01
         -4   -1    0    0    0  501 -0.00000000000E+00  0.00000000000E+00  0.24141598292E+04  0.24141598292E+04  0.00000000000E+00 0.  1.
          3   -1    0    0  501    0  0.00000000000E+00 -0.00000000000E+00 -0.11176341273E+04  0.11176341273E+04  0.00000000000E+00 0. -1.
        -24    2    1    2    0    0  0.51859375927E+03 -0.54035305031E+03  0.20256429444E+04  0.21604696958E+04  0.58983573838E+02 0.  0.
        254    2    1    2    0    0 -0.51859375927E+03  0.54035305031E+03 -0.72911724250E+03  0.13713242607E+04  0.88769215861E+03 0.  0.
         23    2    4    4    0    0  0.24181783161E+03  0.11985645463E+03 -0.22193905663E+03  0.36119354801E+03  0.91446163751E+02 0.  0.
         23    2    4    4    0    0 -0.76041159088E+03  0.42049659568E+03 -0.50717818587E+03  0.10101307127E+04  0.89950930557E+02 0.  0.
          3    1    3    3  502    0  0.88912511118E+02 -0.12305338525E+03  0.37930349413E+03  0.40855686375E+03  0.00000000000E+00 0. -1.
         -4    1    3    3    0  502  0.42968124816E+03 -0.41729966506E+03  0.16463394503E+04  0.17519128320E+04  0.00000000000E+00 0.  1.
         13    1    5    5    0    0  0.20507215044E+02  0.40149062484E+01  0.73183836500E+01  0.22141004500E+02  0.00000000000E+00 0. -1.
        -13    1    5    5    0    0  0.22131061657E+03  0.11584154838E+03 -0.22925744028E+03  0.33905254351E+03  0.00000000000E+00 0.  1.
          1    1    6    6  503    0 -0.28892312773E+03  0.14865193060E+03 -0.14117793801E+03  0.35426710317E+03  0.00000000000E+00 0. -1.
         -1    1    6    6    0  503 -0.47148846316E+03  0.27184466508E+03 -0.36600024786E+03  0.65586360949E+03  0.00000000000E+00 0.  1.
<mgrwt>
<rscale>  0 0.32852077E+04</rscale>
<asrwt>0</asrwt>
<pdfrwt beam="1">  1        3 0.17194371E+00 0.32852077E+04</pdfrwt>
<pdfrwt beam="2">  1       -4 0.37140920E+00 0.32852077E+04</pdfrwt>
<totfact> 0.45427460E-03</totfact>
</mgrwt>
</event>
<event>
12    5  0.5041746E-008  0.1858641E+04  0.7818608E-02  0.8675722E-01
         -2   -1    0    0    0  501 -0.00000000000E+00  0.00000000000E+00  0.43385032360E+03  0.43385032360E+03  0.00000000000E+00 0.  1.
          1   -1    0    0  501    0  0.00000000000E+00 -0.00000000000E+00 -0.19906329709E+04  0.19906329709E+04  0.00000000000E+00 0. -1.
        -24    2    1    2    0    0 -0.29081455836E+03 -0.39430155679E+03  0.68882143330E+02  0.50128906389E+03  0.80617311240E+02 0.  0.
        254    2    1    2    0    0  0.29081455836E+03  0.39430155679E+03 -0.16256647907E+04  0.19231942306E+04  0.90324039553E+03 0.  0.
         23    2    4    4    0    0 -0.11323663319E+01  0.44015995244E+03 -0.15377249434E+04  0.16021282228E+04  0.92058539251E+02 0.  0.
         23    2    4    4    0    0  0.29194692469E+03 -0.45858395652E+02 -0.87939847264E+02  0.32106600787E+03  0.89520753953E+02 0.  0.
          1    1    3    3  502    0 -0.50144306080E+02 -0.84749235373E+02  0.45536183209E+02  0.10849160479E+03  0.00000000000E+00 0. -1.
         -2    1    3    3    0  502 -0.24067025228E+03 -0.30955232142E+03  0.23345960121E+02  0.39279745910E+03  0.00000000000E+00 0.  1.
         13    1    5    5    0    0  0.21748288478E+02  0.20251954608E+03 -0.56694798368E+03  0.60242607081E+03  0.00000000000E+00 0.  1.
        -13    1    5    5    0    0 -0.22880654810E+02  0.23764040636E+03 -0.97077695971E+03  0.99970215194E+03  0.00000000000E+00 0. -1.
          3    1    6    6  503    0  0.93700781046E+02  0.27058657365E+02 -0.29777276846E+02  0.10197398454E+03  0.00000000000E+00 0. -1.
         -3    1    6    6    0  503  0.19824614364E+03 -0.72917053017E+02 -0.58162570418E+02  0.21909202333E+03  0.00000000000E+00 0.  1.
<mgrwt>
<rscale>  0 0.18586412E+04</rscale>
<asrwt>0</asrwt>
<pdfrwt beam="1">  1        1 0.30625123E+00 0.18586412E+04</pdfrwt>
<pdfrwt beam="2">  1       -2 0.66746204E-01 0.18586412E+04</pdfrwt>
<totfact> 0.51404018E+00</totfact>
</mgrwt>
</event>
<event>
12    5  0.5041746E-008  0.2679878E+04  0.7818608E-02  0.8341563E-01
         -2   -1    0    0    0  501 -0.00000000000E+00  0.00000000000E+00  0.15216313481E+04  0.15216313481E+04  0.00000000000E+00 0.  1.
          1   -1    0    0  501    0  0.00000000000E+00 -0.00000000000E+00 -0.11799420535E+04  0.11799420535E+04  0.00000000000E+00 0. -1.
        -24    2    1    2    0    0  0.54753670429E+03 -0.92512183795E+03  0.68827680171E+03  0.12789338644E+04  0.79372641645E+02 0.  0.
        254    2    1    2    0    0 -0.54753670429E+03  0.92512183795E+03 -0.34658750710E+03  0.14226395371E+04  0.86494710517E+03 0.  0.
         23    2    4    4    0    0 -0.53956121624E+03  0.10718887829E+04 -0.33796386846E+03  0.12498318489E+04  0.88250808590E+02 0.  0.
         23    2    4    4    0    0 -0.79754880533E+01 -0.14676694496E+03 -0.86236386437E+01  0.17280768813E+03  0.90465382285E+02 0.  0.
          1    1    3    3  502    0  0.11797080392E+03 -0.19890573833E+03  0.18787265006E+03  0.29795425145E+03  0.00000000000E+00 0. -1.
         -2    1    3    3    0  502  0.42956590037E+03 -0.72621609963E+03  0.50040415165E+03  0.98097961299E+03  0.00000000000E+00 0.  1.
         13    1    5    5    0    0 -0.46858409804E+03  0.85589725440E+03 -0.28164216403E+03  0.10156049801E+04  0.00000000000E+00 0.  1.
        -13    1    5    5    0    0 -0.70977118199E+02  0.21599152852E+03 -0.56321704422E+02  0.23422686884E+03  0.00000000000E+00 0. -1.
          4    1    6    6  503    0 -0.41569657260E+02 -0.81724225774E+02 -0.30122025555E+02  0.96510216592E+02  0.00000000000E+00 0. -1.
         -4    1    6    6    0  503  0.33594169207E+02 -0.65042719187E+02  0.21498386912E+02  0.76297471542E+02  0.00000000000E+00 0.  1.
<mgrwt>
<rscale>  0 0.26798782E+04</rscale>
<asrwt>0</asrwt>
<pdfrwt beam="1">  1        1 0.18152955E+00 0.26798782E+04</pdfrwt>
<pdfrwt beam="2">  1       -2 0.23409713E+00 0.26798782E+04</pdfrwt>
<totfact> 0.68387991E-01</totfact>
</mgrwt>
</event>
<event>
12    5  0.5041746E-008  0.2056805E+04  0.7818608E-02  0.8580514E-01
          1   -1    0    0  501    0  0.00000000000E+00  0.00000000000E+00  0.19673975072E+04  0.19673975072E+04  0.00000000000E+00 0. -1.
         -2   -1    0    0    0  501 -0.00000000000E+00 -0.00000000000E+00 -0.53756872105E+03  0.53756872105E+03  0.00000000000E+00 0.  1.
        -24    2    1    2    0    0 -0.40712170817E+03  0.61437246098E+03  0.10475269104E+04  0.12832605690E+04  0.79015530278E+02 0.  0.
        254    2    1    2    0    0  0.40712170817E+03 -0.61437246098E+03  0.38230187579E+03  0.12217056592E+04  0.89621893946E+03 0.  0.
         23    2    4    4    0    0 -0.13008144258E+03 -0.43216489911E+03  0.44853362939E+03  0.64290910247E+03  0.91989214652E+02 0.  0.
         23    2    4    4    0    0  0.53720315075E+03 -0.18220756187E+03 -0.66231753604E+02  0.57879655675E+03  0.93978657889E+02 0.  0.
          3    1    3    3  502    0 -0.29910508915E+03  0.49415749995E+03  0.85592873229E+03  0.10326032558E+04  0.00000000000E+00 0. -1.
         -4    1    3    3    0  502 -0.10801661902E+03  0.12021496104E+03  0.19159817807E+03  0.25065731325E+03  0.00000000000E+00 0.  1.
         13    1    5    5    0    0 -0.12783203685E+03 -0.32272178630E+03  0.37524443423E+03  0.51117391015E+03  0.00000000000E+00 0. -1.
        -13    1    5    5    0    0 -0.22494057343E+01 -0.10944311281E+03  0.73289195170E+02  0.13173519232E+03  0.00000000000E+00 0.  1.
          4    1    6    6  503    0  0.54758095429E+02  0.56859545048E+01 -0.21584495732E+02  0.59132643689E+02  0.00000000000E+00 0.  1.
         -4    1    6    6    0  503  0.48244505532E+03 -0.18789351638E+03 -0.44647257872E+02  0.51966391306E+03  0.00000000000E+00 0. -1.
<mgrwt>
<rscale>  0 0.20568047E+04</rscale>
<asrwt>0</asrwt>
<pdfrwt beam="1">  1        1 0.30267654E+00 0.20568047E+04</pdfrwt>
<pdfrwt beam="2">  1       -2 0.82702881E-01 0.20568047E+04</pdfrwt>
<totfact> 0.32599094E+00</totfact>
</mgrwt>
</event>
<event>
12    5  0.5041746E-008  0.1656186E+04  0.7818608E-02  0.8786755E-01
          1   -1    0    0  501    0  0.00000000000E+00  0.00000000000E+00  0.21801384260E+04  0.21801384260E+04  0.00000000000E+00 0. -1.
         -2   -1    0    0    0  501 -0.00000000000E+00 -0.00000000000E+00 -0.31453889809E+03  0.31453889809E+03  0.00000000000E+00 0.  1.
        -24    2    1    2    0    0 -0.12634816357E+03 -0.32719228308E+03  0.13446193223E+04  0.13922025811E+04  0.84901450386E+02 0.  0.
        254    2    1    2    0    0  0.12634816357E+03  0.32719228308E+03  0.52098020563E+03  0.11024747430E+04  0.90609686891E+03 0.  0.
         23    2    4    4    0    0  0.70362966186E+02 -0.30584379521E+03  0.22153033677E+03  0.39393535399E+03  0.87281148797E+02 0.  0.
         23    2    4    4    0    0  0.55985197383E+02  0.63303607829E+03  0.29944986886E+03  0.70853938905E+03  0.92134809553E+02 0.  0.
          1    1    3    3  502    0 -0.59288106612E+02 -0.81147532728E+02  0.49663078970E+03  0.50669728925E+03  0.00000000000E+00 0. -1.
         -2    1    3    3    0  502 -0.67060056956E+02 -0.24604475035E+03  0.84798853262E+03  0.88550529184E+03  0.00000000000E+00 0.  1.
         13    1    5    5    0    0 -0.18128170543E+02 -0.10070406780E+03  0.70985179601E+02  0.12453447540E+03  0.00000000000E+00 0.  1.
        -13    1    5    5    0    0  0.88491136729E+02 -0.20513972741E+03  0.15054515717E+03  0.26940087860E+03  0.00000000000E+00 0. -1.
          3    1    6    6  503    0  0.28584556401E+02  0.47098014740E+03  0.26298929188E+03  0.54018769308E+03  0.00000000000E+00 0. -1.
         -3    1    6    6    0  503  0.27400640981E+02  0.16205593089E+03  0.36460576982E+02  0.16835169597E+03  0.00000000000E+00 0.  1.
<mgrwt>
<rscale>  0 0.16561864E+04</rscale>
<asrwt>0</asrwt>
<pdfrwt beam="1">  1        1 0.33540590E+00 0.16561864E+04</pdfrwt>
<pdfrwt beam="2">  1       -2 0.48390601E-01 0.16561864E+04</pdfrwt>
<totfact> 0.76297373E+00</totfact>
</mgrwt>
</event>
<event>
12    5  0.5041746E-008  0.1508983E+04  0.7818608E-02  0.8878501E-01
         -2   -1    0    0    0  501 -0.00000000000E+00  0.00000000000E+00  0.28215224141E+03  0.28215224141E+03  0.00000000000E+00 0.  1.
          1   -1    0    0  501    0  0.00000000000E+00 -0.00000000000E+00 -0.20175540366E+04  0.20175540366E+04  0.00000000000E+00 0. -1.
        -24    2    1    2    0    0 -0.29313186430E+03  0.37019250032E+03 -0.66814578659E+03  0.82177144339E+03  0.76946318082E+02 0.  0.
        254    2    1    2    0    0  0.29313186430E+03 -0.37019250032E+03 -0.10672560086E+04  0.14779348346E+04  0.90680053504E+03 0.  0.
         23    2    4    4    0    0 -0.85617478221E+02  0.10058064284E+03 -0.79076138250E+03  0.80716190882E+03  0.93594683145E+02 0.  0.
         23    2    4    4    0    0  0.37874934252E+03 -0.47077314316E+03 -0.27649462613E+03  0.67077292582E+03  0.91698543927E+02 0.  0.
          1    1    3    3  502    0 -0.23349441619E+03  0.23816586660E+03 -0.46216003094E+03  0.56994255553E+03  0.00000000000E+00 0. -1.
         -2    1    3    3    0  502 -0.59637448109E+02  0.13202663372E+03 -0.20598575565E+03  0.25182888785E+03  0.00000000000E+00 0.  1.
         13    1    5    5    0    0 -0.90278684745E+02  0.10949383709E+03 -0.61701051213E+03  0.63312014133E+03  0.00000000000E+00 0.  1.
        -13    1    5    5    0    0  0.46612065241E+01 -0.89131942504E+01 -0.17375087036E+03  0.17404176749E+03  0.00000000000E+00 0. -1.
          4    1    6    6  503    0  0.80143176339E+02 -0.73861805790E+02 -0.16766848818E+02  0.11027067737E+03  0.00000000000E+00 0. -1.
         -4    1    6    6    0  503  0.29860616618E+03 -0.39691133737E+03 -0.25972777731E+03  0.56050224845E+03  0.00000000000E+00 0.  1.
<mgrwt>
<rscale>  0 0.15089830E+04</rscale>
<asrwt>0</asrwt>
<pdfrwt beam="1">  1        1 0.31039292E+00 0.15089830E+04</pdfrwt>
<pdfrwt beam="2">  1       -2 0.43408038E-01 0.15089830E+04</pdfrwt>
<totfact> 0.12389834E+01</totfact>
</mgrwt>
</event>
<event>
12    5  0.5041746E-008  0.1255704E+04  0.7818608E-02  0.9065449E-01
          1   -1    0    0  501    0  0.00000000000E+00  0.00000000000E+00  0.15726403558E+04  0.15726403558E+04  0.00000000000E+00 0. -1.
         -2   -1    0    0    0  501 -0.00000000000E+00 -0.00000000000E+00 -0.25065992842E+03  0.25065992842E+03  0.00000000000E+00 0.  1.
        -24    2    1    2    0    0 -0.36361643718E+02  0.16975407267E+03 -0.25947160069E+02  0.19338737205E+03  0.81159141398E+02 0.  0.
        254    2    1    2    0    0  0.36361643718E+02 -0.16975407267E+03  0.13479275874E+04  0.16299129122E+04  0.89976036028E+03 0.  0.
         23    2    4    4    0    0  0.68129431618E+02 -0.52499235041E+03  0.67369762318E+03  0.86150331227E+03  0.89782415496E+02 0.  0.
         23    2    4    4    0    0 -0.31767787899E+02  0.35523827774E+03  0.67422996426E+03  0.76840959989E+03  0.93079762428E+02 0.  0.
          3    1    3    3  502    0  0.14248951039E+02  0.53252129774E+02 -0.36208101513E+02  0.65953381614E+02  0.00000000000E+00 0. -1.
         -4    1    3    3    0  502 -0.50610594757E+02  0.11650194289E+03  0.10260941444E+02  0.12743399044E+03  0.00000000000E+00 0.  1.
         13    1    5    5    0    0 -0.16907428875E+02 -0.18969967978E+03  0.22004406218E+03  0.29101755782E+03  0.00000000000E+00 0.  1.
        -13    1    5    5    0    0  0.85036860493E+02 -0.33529267063E+03  0.45365356100E+03  0.57048575445E+03  0.00000000000E+00 0. -1.
          3    1    6    6  503    0  0.25974364066E+02  0.37313243066E+02  0.85217401926E+02  0.96586496405E+02  0.00000000000E+00 0. -1.
         -3    1    6    6    0  503 -0.57742151965E+02  0.31792503468E+03  0.58901256234E+03  0.67182310349E+03  0.00000000000E+00 0.  1.
<mgrwt>
<rscale>  0 0.12557037E+04</rscale>
<asrwt>0</asrwt>
<pdfrwt beam="1">  1        1 0.24194466E+00 0.12557037E+04</pdfrwt>
<pdfrwt beam="2">  1       -2 0.38563067E-01 0.12557037E+04</pdfrwt>
<totfact> 0.32022353E+01</totfact>
</mgrwt>
</event>
<event>
12    5  0.5041746E-008  0.2087449E+04  0.7818608E-02  0.8566792E-01
          3   -1    0    0  501    0  0.00000000000E+00  0.00000000000E+00  0.55726634699E+03  0.55726634699E+03  0.00000000000E+00 0. -1.
         -4   -1    0    0    0  501 -0.00000000000E+00 -0.00000000000E+00 -0.19548297973E+04  0.19548297973E+04  0.00000000000E+00 0.  1.
        -24    2    1    2    0    0 -0.10236583729E+03 -0.32483677510E+03 -0.14969465070E+04  0.15374760201E+04  0.83582130071E+02 0.  0.
        254    2    1    2    0    0  0.10236583729E+03  0.32483677510E+03  0.99383056734E+02  0.97462012415E+03  0.90774979996E+03 0.  0.
         23    2    4    4    0    0 -0.26522852035E+03  0.29691028415E+03  0.33451816752E+03  0.52802303581E+03  0.91673535447E+02 0.  0.
         23    2    4    4    0    0  0.36759435764E+03  0.27926490944E+02 -0.23513511079E+03  0.44659708834E+03  0.90856691102E+02 0.  0.
          1    1    3    3  502    0 -0.18495171045E+01 -0.67309746785E+02 -0.18908209750E+03  0.20071388174E+03  0.00000000000E+00 0. -1.
         -2    1    3    3    0  502 -0.10051632019E+03 -0.25752702831E+03 -0.13078644095E+04  0.13367621384E+04  0.00000000000E+00 0.  1.
         13    1    5    5    0    0 -0.19503043930E+03  0.23401463975E+03  0.20243478244E+03  0.36575888917E+03  0.00000000000E+00 0. -1.
        -13    1    5    5    0    0 -0.70198081051E+02  0.62895644408E+02  0.13208338509E+03  0.16226414664E+03  0.00000000000E+00 0.  1.
          2    1    6    6  503    0  0.22787435478E+03 -0.47600639200E+01 -0.18832798256E+03  0.29566333690E+03  0.00000000000E+00 0. -1.
         -2    1    6    6    0  503  0.13972000286E+03  0.32686554864E+02 -0.46807128235E+02  0.15093375143E+03  0.00000000000E+00 0.  1.
<mgrwt>
<rscale>  0 0.20874490E+04</rscale>
<asrwt>0</asrwt>
<pdfrwt beam="1">  1        3 0.85733283E-01 0.20874490E+04</pdfrwt>
<pdfrwt beam="2">  1       -4 0.30074305E+00 0.20874490E+04</pdfrwt>
<totfact> 0.80225788E-02</totfact>
</mgrwt>
</event>
<event>
12    5  0.5041746E-008  0.1083476E+04  0.7818608E-02  0.9221449E-01
         -2   -1    0    0    0  501 -0.00000000000E+00  0.00000000000E+00  0.23268156128E+03  0.23268156128E+03  0.00000000000E+00 0.  1.
          1   -1    0    0  501    0  0.00000000000E+00 -0.00000000000E+00 -0.12612941885E+04  0.12612941885E+04  0.00000000000E+00 0. -1.
        -24    2    1    2    0    0  0.12465892008E+02 -0.14294462479E+03 -0.22811622960E+03  0.28116999286E+03  0.80193431502E+02 0.  0.
        254    2    1    2    0    0 -0.12465892008E+02  0.14294462479E+03 -0.80049639758E+03  0.12128057569E+04  0.89973038027E+03 0.  0.
         23    2    4    4    0    0 -0.23992985501E+03 -0.29389398261E+03 -0.47859833641E+03  0.61727481831E+03  0.89620451712E+02 0.  0.
         23    2    4    4    0    0  0.22746396300E+03  0.43683860740E+03 -0.32189806118E+03  0.59553093858E+03  0.92037566486E+02 0.  0.
          3    1    3    3  502    0  0.41630450746E+02 -0.11974034301E+03 -0.16849925617E+03  0.21086214336E+03  0.00000000000E+00 0. -1.
         -4    1    3    3    0  502 -0.29164558738E+02 -0.23204281773E+02 -0.59616973434E+02  0.70307849494E+02  0.00000000000E+00 0.  1.
         13    1    5    5    0    0 -0.18706051081E+03 -0.16417371711E+03 -0.32571242806E+03  0.40991856494E+03  0.00000000000E+00 0.  1.
        -13    1    5    5    0    0 -0.52869344199E+02 -0.12972026550E+03 -0.15288590835E+03  0.20735625336E+03  0.00000000000E+00 0. -1.
          1    1    6    6  503    0  0.33700908667E+02  0.76248183807E+02 -0.16930647852E+02  0.85065760535E+02  0.00000000000E+00 0. -1.
         -1    1    6    6    0  503  0.19376305433E+03  0.36059042359E+03 -0.30496741333E+03  0.51046517805E+03  0.00000000000E+00 0.  1.
<mgrwt>
<rscale>  0 0.10834757E+04</rscale>
<asrwt>0</asrwt>
<pdfrwt beam="1">  1        1 0.19404526E+00 0.10834757E+04</pdfrwt>
<pdfrwt beam="2">  1       -2 0.35797163E-01 0.10834757E+04</pdfrwt>
<totfact> 0.61880413E+01</totfact>
</mgrwt>
</event>
<event>
12    5  0.5041746E-008  0.1916465E+04  0.7818608E-02  0.8646704E-01
         -2   -1    0    0    0  501 -0.00000000000E+00  0.00000000000E+00  0.35125039348E+03  0.35125039348E+03  0.00000000000E+00 0.  1.
          1   -1    0    0  501    0  0.00000000000E+00 -0.00000000000E+00 -0.26141162012E+04  0.26141162012E+04  0.00000000000E+00 0. -1.
        -24    2    1    2    0    0  0.50983633622E+02  0.34274478574E+03 -0.18783315538E+04  0.19121263843E+04  0.89579933379E+02 0.  0.
        254    2    1    2    0    0 -0.50983633622E+02 -0.34274478574E+03 -0.38453425394E+03  0.10532402104E+04  0.91726497225E+03 0.  0.
         23    2    4    4    0    0  0.41061817384E+03 -0.58795114851E+02 -0.22769600268E+03  0.48172851968E+03  0.90292562363E+02 0.  0.
         23    2    4    4    0    0 -0.46160180747E+03 -0.28394967089E+03 -0.15683825126E+03  0.57151169073E+03  0.91234485376E+02 0.  0.
          3    1    3    3  502    0  0.69407486055E+02  0.32381569332E+03 -0.17594016319E+04  0.17902983284E+04  0.00000000000E+00 0. -1.
         -4    1    3    3    0  502 -0.18423852433E+02  0.18929092420E+02 -0.11892992187E+03  0.12182805586E+03  0.00000000000E+00 0.  1.
         13    1    5    5    0    0  0.27396170348E+03 -0.80996968891E+02 -0.14365289881E+03  0.31976816489E+03  0.00000000000E+00 0. -1.
        -13    1    5    5    0    0  0.13665647036E+03  0.22201854040E+02 -0.84043103871E+02  0.16196035479E+03  0.00000000000E+00 0.  1.
          3    1    6    6  503    0 -0.40794562340E+03 -0.22373010667E+03 -0.15640793014E+03  0.49085459445E+03  0.00000000000E+00 0. -1.
         -3    1    6    6    0  503 -0.53656184067E+02 -0.60219564219E+02 -0.43032112368E+00  0.80657096276E+02  0.00000000000E+00 0.  1.
<mgrwt>
<rscale>  0 0.19164648E+04</rscale>
<asrwt>0</asrwt>
<pdfrwt beam="1">  1        1 0.40217174E+00 0.19164648E+04</pdfrwt>
<pdfrwt beam="2">  1       -2 0.54038520E-01 0.19164648E+04</pdfrwt>
<totfact> 0.29882409E+00</totfact>
</mgrwt>
</event>
<event>
12    5  0.5041746E-008  0.1503018E+04  0.7818608E-02  0.8882448E-01
         -2   -1    0    0    0  501 -0.00000000000E+00  0.00000000000E+00  0.58709911712E+03  0.58709911712E+03  0.00000000000E+00 0.  1.
          1   -1    0    0  501    0  0.00000000000E+00 -0.00000000000E+00 -0.96195991162E+03  0.96195991162E+03  0.00000000000E+00 0. -1.
        -24    2    1    2    0    0 -0.15617781732E+02 -0.26718111581E+03 -0.54129852018E+03  0.60931767962E+03  0.81451108010E+02 0.  0.
        254    2    1    2    0    0  0.15617781732E+02  0.26718111581E+03  0.16643772568E+03  0.93974134913E+03  0.88531498518E+03 0.  0.
         23    2    4    4    0    0  0.22757437285E+03 -0.19776207297E+03  0.26349736731E+03  0.41044656805E+03  0.90197505272E+02 0.  0.
         23    2    4    4    0    0 -0.21195659112E+03  0.46494318877E+03 -0.97059641631E+02  0.52929478108E+03  0.98156130416E+02 0.  0.
          1    1    3    3  502    0 -0.43022916106E+02 -0.21372183988E+03 -0.44999147666E+03  0.50002032480E+03  0.00000000000E+00 0. -1.
         -2    1    3    3    0  502  0.27405134374E+02 -0.53459275929E+02 -0.91307043523E+02  0.10929735482E+03  0.00000000000E+00 0.  1.
         13    1    5    5    0    0  0.20004282130E+03 -0.14587402075E+03  0.24633141638E+03  0.34924994915E+03  0.00000000000E+00 0. -1.
        -13    1    5    5    0    0  0.27531551557E+02 -0.51888052212E+02  0.17165950934E+02  0.61196618901E+02  0.00000000000E+00 0.  1.
          1    1    6    6  503    0 -0.18085760937E+03  0.44000330688E+03 -0.69362041979E+02  0.48075303202E+03  0.00000000000E+00 0. -1.
         -1    1    6    6    0  503 -0.31098981752E+02  0.24939881890E+02 -0.27697599652E+02  0.48541749054E+02  0.00000000000E+00 0.  1.
<mgrwt>
<rscale>  0 0.15030181E+04</rscale>
<asrwt>0</asrwt>
<pdfrwt beam="1">  1        1 0.14799383E+00 0.15030181E+04</pdfrwt>
<pdfrwt beam="2">  1       -2 0.90322942E-01 0.15030181E+04</pdfrwt>
<totfact> 0.14407257E+01</totfact>
</mgrwt>
</event>
<event>
12    5  0.5041746E-008  0.1604774E+04  0.7818608E-02  0.8817621E-01
          1   -1    0    0  501    0  0.00000000000E+00  0.00000000000E+00  0.25050553118E+04  0.25050553118E+04  0.00000000000E+00 0. -1.
         -2   -1    0    0    0  501 -0.00000000000E+00 -0.00000000000E+00 -0.25701010082E+03  0.25701010082E+03  0.00000000000E+00 0.  1.
        -24    2    1    2    0    0  0.23422583276E+02  0.51643543740E+03  0.47829752712E+03  0.70876182127E+03  0.79502304568E+02 0.  0.
        254    2    1    2    0    0 -0.23422583276E+02 -0.51643543740E+03  0.17697476838E+04  0.20533035913E+04  0.90376689212E+03 0.  0.
         23    2    4    4    0    0 -0.20216943236E+03 -0.98576863944E+02  0.21199955991E+02  0.24431970059E+03  0.93020430408E+02 0.  0.
         23    2    4    4    0    0  0.17874684909E+03 -0.41785857346E+03  0.17485477278E+04  0.18089838907E+04  0.91909395228E+02 0.  0.
          1    1    3    3  502    0  0.24451607583E+02  0.85120745964E+02  0.11278438667E+03  0.14340062895E+03  0.00000000000E+00 0. -1.
         -2    1    3    3    0  502 -0.10290243071E+01  0.43131469144E+03  0.36551314044E+03  0.56536119232E+03  0.00000000000E+00 0.  1.
         13    1    5    5    0    0 -0.12489620678E+02 -0.29107606586E+02  0.27897073393E+02  0.42207701782E+02  0.00000000000E+00 0. -1.
        -13    1    5    5    0    0 -0.18967981169E+03 -0.69469257358E+02 -0.66971174024E+01  0.20211199880E+03  0.00000000000E+00 0.  1.
          3    1    6    6  503    0  0.55019874592E+02 -0.95049535363E+02  0.29196630924E+03  0.31193897882E+03  0.00000000000E+00 0. -1.
         -3    1    6    6    0  503  0.12372697450E+03 -0.32280903809E+03  0.14565814186E+04  0.14970449119E+04  0.00000000000E+00 0.  1.
<mgrwt>
<rscale>  0 0.16047735E+04</rscale>
<asrwt>0</asrwt>
<pdfrwt beam="1">  1        1 0.38539311E+00 0.16047735E+04</pdfrwt>
<pdfrwt beam="2">  1       -2 0.39540017E-01 0.16047735E+04</pdfrwt>
<totfact> 0.68613443E+00</totfact>
</mgrwt>
</event>
<event>
12    5  0.5041746E-008  0.1168460E+04  0.7818608E-02  0.9140920E-01
         -2   -1    0    0    0  501 -0.00000000000E+00  0.00000000000E+00  0.19446329562E+03  0.19446329562E+03  0.00000000000E+00 0.  1.
          1   -1    0    0  501    0  0.00000000000E+00 -0.00000000000E+00 -0.17552137298E+04  0.17552137298E+04  0.00000000000E+00 0. -1.
        -24    2    1    2    0    0 -0.64595695259E+02  0.14166362371E+02 -0.68311647513E+03  0.69142778064E+03  0.83970039790E+02 0.  0.
        254    2    1    2    0    0  0.64595695259E+02 -0.14166362371E+02 -0.87763395904E+03  0.12582492448E+04  0.89920882236E+03 0.  0.
         23    2    4    4    0    0 -0.13334811163E+03 -0.25598372820E+03 -0.88179525941E+03  0.93231960848E+03  0.91365118425E+02 0.  0.
         23    2    4    4    0    0  0.19794380689E+03  0.24181736583E+03  0.41613003657E+01  0.32592963628E+03  0.92495525728E+02 0.  0.
          3    1    3    3  502    0 -0.54836744268E+02  0.19221994210E+02 -0.67564222397E+03  0.67813639365E+03  0.00000000000E+00 0. -1.
         -4    1    3    3    0  502 -0.97589509907E+01 -0.50556318387E+01 -0.74742511567E+01  0.13291386989E+02  0.00000000000E+00 0.  1.
         13    1    5    5    0    0 -0.13625196245E+03 -0.17565800977E+03 -0.63908109303E+03  0.67664242931E+03  0.00000000000E+00 0.  1.
        -13    1    5    5    0    0  0.29038508165E+01 -0.80325718430E+02 -0.24271416638E+03  0.25567717918E+03  0.00000000000E+00 0. -1.
          2    1    6    6  503    0  0.52353317647E+02  0.69703434403E+02 -0.40487717806E+02  0.96118124875E+02  0.00000000000E+00 0. -1.
         -2    1    6    6    0  503  0.14559048924E+03  0.17211393143E+03  0.44649018172E+02  0.22981151140E+03  0.00000000000E+00 0.  1.
<mgrwt>
<rscale>  0 0.11684599E+04</rscale>
<asrwt>0</asrwt>
<pdfrwt beam="1">  1        1 0.27003289E+00 0.11684599E+04</pdfrwt>
<pdfrwt beam="2">  1       -2 0.29917430E-01 0.11684599E+04</pdfrwt>
<totfact> 0.39245330E+01</totfact>
</mgrwt>
</event>
<event>
12    5  0.5041746E-008  0.1689990E+04  0.7818608E-02  0.8767094E-01
          1   -1    0    0  501    0  0.00000000000E+00  0.00000000000E+00  0.14247016527E+04  0.14247016527E+04  0.00000000000E+00 0. -1.
         -2   -1    0    0    0  501 -0.00000000000E+00 -0.00000000000E+00 -0.50116903730E+03  0.50116903730E+03  0.00000000000E+00 0.  1.
        -24    2    1    2    0    0 -0.34076293572E+03 -0.39831302357E+03  0.70400223553E+03  0.88126564253E+03  0.78976844483E+02 0.  0.
        254    2    1    2    0    0  0.34076293572E+03  0.39831302357E+03  0.21953037983E+03  0.10446050474E+04  0.87648928935E+03 0.  0.
         23    2    4    4    0    0 -0.35695839835E+02 -0.24516552014E+03  0.52034610390E+01  0.26377730948E+03  0.90393958555E+02 0.  0.
         23    2    4    4    0    0  0.37645877556E+03  0.64347854371E+03  0.21432691879E+03  0.78082773794E+03  0.89275317484E+02 0.  0.
          3    1    3    3  502    0 -0.21730493103E+03 -0.30669742372E+03  0.51652388728E+03  0.63881270251E+03  0.00000000000E+00 0. -1.
         -4    1    3    3    0  502 -0.12345800469E+03 -0.91615599855E+02  0.18747834825E+03  0.24245294001E+03  0.00000000000E+00 0.  1.
         13    1    5    5    0    0 -0.18707198828E+02 -0.19008658521E+03  0.41768133162E+02  0.19551840352E+03  0.00000000000E+00 0.  1.
        -13    1    5    5    0    0 -0.16988641007E+02 -0.55078934928E+02 -0.36564672123E+02  0.68258905965E+02  0.00000000000E+00 0. -1.
          3    1    6    6  503    0  0.94280684183E+02  0.16719996231E+03  0.96468215346E+02  0.21482735249E+03  0.00000000000E+00 0. -1.
         -3    1    6    6    0  503  0.28217809137E+03  0.47627858141E+03  0.11785870344E+03  0.56600038545E+03  0.00000000000E+00 0.  1.
<mgrwt>
<rscale>  0 0.16899898E+04</rscale>
<asrwt>0</asrwt>
<pdfrwt beam="1">  1        1 0.21918487E+00 0.16899898E+04</pdfrwt>
<pdfrwt beam="2">  1       -2 0.77102929E-01 0.16899898E+04</pdfrwt>
<totfact> 0.92625827E+00</totfact>
</mgrwt>
</event>
<event>
12    5  0.5041746E-008  0.1506912E+04  0.7818608E-02  0.8879870E-01
          1   -1    0    0  501    0  0.00000000000E+00  0.00000000000E+00  0.18870038515E+04  0.18870038515E+04  0.00000000000E+00 0. -1.
         -2   -1    0    0    0  501 -0.00000000000E+00 -0.00000000000E+00 -0.30084505260E+03  0.30084505260E+03  0.00000000000E+00 0.  1.
        -24    2    1    2    0    0  0.26253464405E+03 -0.88696369140E+02  0.10744166307E+04  0.11124089212E+04  0.79315990142E+02 0.  0.
        254    2    1    2    0    0 -0.26253464405E+03  0.88696369140E+02  0.51174216813E+03  0.10754399829E+04  0.90437803209E+03 0.  0.
         23    2    4    4    0    0 -0.53090892527E+03  0.26104379082E+01  0.55700396497E+03  0.77533988710E+03  0.95012747714E+02 0.  0.
         23    2    4    4    0    0  0.26837428122E+03  0.86085931231E+02 -0.45261796839E+02  0.30010009579E+03  0.92606127551E+02 0.  0.
          3    1    3    3  502    0  0.24100732000E+03 -0.71393550082E+02  0.85262844125E+03  0.88890765894E+03  0.00000000000E+00 0. -1.
         -4    1    3    3    0  502  0.21527324041E+02 -0.17302819058E+02  0.22178818949E+03  0.22350126225E+03  0.00000000000E+00 0.  1.
         13    1    5    5    0    0 -0.46437564586E+03  0.33521704357E+02  0.47059846206E+03  0.66199045131E+03  0.00000000000E+00 0. -1.
        -13    1    5    5    0    0 -0.66533279409E+02 -0.30911266448E+02  0.86405502904E+02  0.11334943579E+03  0.00000000000E+00 0.  1.
          1    1    6    6  503    0  0.23990767155E+03  0.54013332046E+02 -0.12673526010E+02  0.24623921128E+03  0.00000000000E+00 0. -1.
         -1    1    6    6    0  503  0.28466609671E+02  0.32072599185E+02 -0.32588270829E+02  0.53860884511E+02  0.00000000000E+00 0.  1.
<mgrwt>
<rscale>  0 0.15069118E+04</rscale>
<asrwt>0</asrwt>
<pdfrwt beam="1">  1        1 0.29030828E+00 0.15069118E+04</pdfrwt>
<pdfrwt beam="2">  1       -2 0.46283856E-01 0.15069118E+04</pdfrwt>
<totfact> 0.13360644E+01</totfact>
</mgrwt>
</event>
<event>
12    5  0.5041746E-008  0.1368247E+04  0.7818608E-02  0.8977129E-01
         -2   -1    0    0    0  501 -0.00000000000E+00  0.00000000000E+00  0.45225799007E+03  0.45225799007E+03  0.00000000000E+00 0.  1.
          1   -1    0    0  501    0  0.00000000000E+00 -0.00000000000E+00 -0.10348631659E+04  0.10348631659E+04  0.00000000000E+00 0. -1.
        -24    2    1    2    0    0 -0.12677020010E+03 -0.33677225056E+03 -0.29683622058E+02  0.36979312848E+03  0.79872448748E+02 0.  0.
        254    2    1    2    0    0  0.12677020010E+03  0.33677225056E+03 -0.55292155373E+03  0.11173280275E+04  0.90178347954E+03 0.  0.
         23    2    4    4    0    0 -0.14337589947E+03  0.20558622546E+03  0.17882982340E+03  0.32106134155E+03  0.90983155855E+02 0.  0.
         23    2    4    4    0    0  0.27014609957E+03  0.13118602510E+03 -0.73175137713E+03  0.79626668590E+03  0.91607144128E+02 0.  0.
          3    1    3    3  502    0 -0.93334788379E+02 -0.20253349658E+03 -0.53711166222E+02  0.22938197256E+03  0.00000000000E+00 0. -1.
         -4    1    3    3    0  502 -0.33435411721E+02 -0.13423875398E+03  0.24027544164E+02  0.14041115592E+03  0.00000000000E+00 0.  1.
         13    1    5    5    0    0 -0.68728702056E+02  0.10254066043E+03  0.33516677837E+02  0.12791242794E+03  0.00000000000E+00 0. -1.
        -13    1    5    5    0    0 -0.74647197417E+02  0.10304556503E+03  0.14531314557E+03  0.19314891361E+03  0.00000000000E+00 0.  1.
          3    1    6    6  503    0  0.23338196188E+03  0.72300656810E+02 -0.58222664203E+03  0.63141300889E+03  0.00000000000E+00 0. -1.
         -3    1    6    6    0  503  0.36764137693E+02  0.58885368288E+02 -0.14952473510E+03  0.16485367702E+03  0.00000000000E+00 0.  1.
<mgrwt>
<rscale>  0 0.13682473E+04</rscale>
<asrwt>0</asrwt>
<pdfrwt beam="1">  1        1 0.15920972E+00 0.13682473E+04</pdfrwt>
<pdfrwt beam="2">  1       -2 0.69578152E-01 0.13682473E+04</pdfrwt>
<totfact> 0.22948760E+01</totfact>
</mgrwt>
</event>
<event>
12    5  0.5041746E-008  0.1165940E+04  0.7818608E-02  0.9143203E-01
         -2   -1    0    0    0  501 -0.00000000000E+00  0.00000000000E+00  0.30644064404E+03  0.30644064404E+03  0.00000000000E+00 0.  1.
          1   -1    0    0  501    0  0.00000000000E+00 -0.00000000000E+00 -0.11090371782E+04  0.11090371782E+04  0.00000000000E+00 0. -1.
        -24    2    1    2    0    0 -0.18749152004E+02 -0.22928064467E+03 -0.13549707631E+03  0.27872028488E+03  0.80027462748E+02 0.  0.
        254    2    1    2    0    0  0.18749152004E+02  0.22928064467E+03 -0.66709945782E+03  0.11367575373E+04  0.89122099803E+03 0.  0.
         23    2    4    4    0    0  0.17785413605E+03  0.51797448958E+03 -0.53435826974E+03  0.76922310163E+03  0.78966790973E+02 0.  0.
         23    2    4    4    0    0 -0.15910498405E+03 -0.28869384491E+03 -0.13274118807E+03  0.36753443569E+03  0.93823272001E+02 0.  0.
          3    1    3    3  502    0  0.12764403815E+02 -0.17886170649E+03 -0.12438375430E+03  0.21823326600E+03  0.00000000000E+00 0. -1.
         -4    1    3    3    0  502 -0.31513555819E+02 -0.50418938178E+02 -0.11113322012E+02  0.60487018884E+02  0.00000000000E+00 0.  1.
         13    1    5    5    0    0  0.11551900845E+03  0.41572351558E+03 -0.38951212108E+03  0.58128338630E+03  0.00000000000E+00 0. -1.
        -13    1    5    5    0    0  0.62335127606E+02  0.10225097400E+03 -0.14484614866E+03  0.18793971534E+03  0.00000000000E+00 0.  1.
          2    1    6    6  503    0 -0.30863547397E+02 -0.11871785622E+03 -0.85241752056E+02  0.14937417527E+03  0.00000000000E+00 0.  1.
         -2    1    6    6    0  503 -0.12824143665E+03 -0.16997598869E+03 -0.47499436019E+02  0.21816026042E+03  0.00000000000E+00 0. -1.
<mgrwt>
<rscale>  0 0.11659401E+04</rscale>
<asrwt>0</asrwt>
<pdfrwt beam="1">  1        1 0.17062110E+00 0.11659401E+04</pdfrwt>
<pdfrwt beam="2">  1       -2 0.47144715E-01 0.11659401E+04</pdfrwt>
<totfact> 0.46295711E+01</totfact>
</mgrwt>
</event>
<event>
12    5  0.5041746E-008  0.3414455E+04  0.7818608E-02  0.8134368E-01
         -2   -1    0    0    0  501 -0.00000000000E+00  0.00000000000E+00  0.15222574991E+04  0.15222574991E+04  0.00000000000E+00 0.  1.
          1   -1    0    0  501    0  0.00000000000E+00 -0.00000000000E+00 -0.19146728839E+04  0.19146728839E+04  0.00000000000E+00 0. -1.
        -24    2    1    2    0    0 -0.15178711120E+04  0.22094143973E+03 -0.51087582427E+03  0.16186872929E+04  0.80041312982E+02 0.  0.
        254    2    1    2    0    0  0.15178711120E+04 -0.22094143973E+03  0.11846043946E+03  0.18182430901E+04  0.96913736194E+03 0.  0.
         23    2    4    4    0    0  0.23544648731E+03 -0.19557835470E+03 -0.32693992578E+03  0.45739705005E+03  0.92932260861E+02 0.  0.
         23    2    4    4    0    0  0.12824246247E+04 -0.25363085026E+02  0.44540036524E+03  0.13608460400E+04  0.90907948473E+02 0.  0.
          1    1    3    3  502    0 -0.61598815542E+03  0.76509145619E+02 -0.24589165778E+03  0.66765093002E+03  0.00000000000E+00 0. -1.
         -2    1    3    3    0  502 -0.90188295662E+03  0.14443229411E+03 -0.26498416649E+03  0.95103636287E+03  0.00000000000E+00 0.  1.
         13    1    5    5    0    0  0.20690314927E+03 -0.20330507342E+03 -0.29140265828E+03  0.41116587323E+03  0.00000000000E+00 0.  1.
        -13    1    5    5    0    0  0.28543338039E+02  0.77267187186E+01 -0.35537267496E+02  0.46231176814E+02  0.00000000000E+00 0. -1.
          2    1    6    6  503    0  0.37721004068E+03 -0.40521455786E+02  0.10520042240E+03  0.39369598936E+03  0.00000000000E+00 0. -1.
         -2    1    6    6    0  503  0.90521458406E+03  0.15158370760E+02  0.34019994284E+03  0.96715005066E+03  0.00000000000E+00 0.  1.
<mgrwt>
<rscale>  0 0.34144547E+04</rscale>
<asrwt>0</asrwt>
<pdfrwt beam="1">  1        1 0.29456506E+00 0.34144547E+04</pdfrwt>
<pdfrwt beam="2">  1       -2 0.23419346E+00 0.34144547E+04</pdfrwt>
<totfact> 0.19799152E-01</totfact>
</mgrwt>
</event>
<event>
12    5  0.5041746E-008  0.1783427E+04  0.7818608E-02  0.8715163E-01
          1   -1    0    0  501    0  0.00000000000E+00  0.00000000000E+00  0.96111894418E+03  0.96111894418E+03  0.00000000000E+00 0. -1.
         -2   -1    0    0    0  501 -0.00000000000E+00 -0.00000000000E+00 -0.82732007961E+03  0.82732007961E+03  0.00000000000E+00 0.  1.
        -24    2    1    2    0    0  0.43309494778E+02  0.11351410364E+03  0.71934134239E+03  0.73339878039E+03  0.75237225770E+02 0.  0.
        254    2    1    2    0    0 -0.43309494778E+02 -0.11351410364E+03 -0.58554247782E+03  0.10550402434E+04  0.86918856285E+03 0.  0.
         23    2    4    4    0    0 -0.24089326478E+03 -0.53921020676E+02 -0.73780666732E+03  0.78295060516E+03  0.87840368236E+02 0.  0.
         23    2    4    4    0    0  0.19758377000E+03 -0.59593082967E+02  0.15226418950E+03  0.27208963823E+03  0.90871921542E+02 0.  0.
          3    1    3    3  502    0  0.12888551609E+02  0.78225203705E+02  0.60115898676E+03  0.60636410235E+03  0.00000000000E+00 0. -1.
         -4    1    3    3    0  502  0.30420943169E+02  0.35288899938E+02  0.11818235563E+03  0.12703467804E+03  0.00000000000E+00 0.  1.
         13    1    5    5    0    0 -0.14518319083E+03 -0.85238041964E+00 -0.50928985153E+03  0.52958005847E+03  0.00000000000E+00 0. -1.
        -13    1    5    5    0    0 -0.95710073948E+02 -0.53068640256E+02 -0.22851681579E+03  0.25337054669E+03  0.00000000000E+00 0.  1.
          1    1    6    6  503    0  0.58403812093E+02 -0.62938938184E+02  0.66151692868E+02  0.10838985965E+03  0.00000000000E+00 0. -1.
         -1    1    6    6    0  503  0.13917995791E+03  0.33458552163E+01  0.86112496628E+02  0.16369977858E+03  0.00000000000E+00 0.  1.
<mgrwt>
<rscale>  0 0.17834270E+04</rscale>
<asrwt>0</asrwt>
<pdfrwt beam="1">  1        1 0.14786445E+00 0.17834270E+04</pdfrwt>
<pdfrwt beam="2">  1       -2 0.12728001E+00 0.17834270E+04</pdfrwt>
<totfact> 0.61618307E+00</totfact>
</mgrwt>
</event>
<event>
12    5  0.5041746E-008  0.2617721E+04  0.7818608E-02  0.8362207E-01
          1   -1    0    0  501    0  0.00000000000E+00  0.00000000000E+00  0.13880214558E+04  0.13880214558E+04  0.00000000000E+00 0. -1.
         -2   -1    0    0    0  501 -0.00000000000E+00 -0.00000000000E+00 -0.12342143228E+04  0.12342143228E+04  0.00000000000E+00 0.  1.
        -24    2    1    2    0    0  0.76529943496E+03 -0.26442486460E+03 -0.75484984822E+03  0.11098868828E+04  0.80292373017E+02 0.  0.
        254    2    1    2    0    0 -0.76529943496E+03  0.26442486460E+03  0.90865698122E+03  0.15123488958E+04  0.89774046307E+03 0.  0.
         23    2    4    4    0    0 -0.85897587956E+02 -0.94938074776E+02 -0.13856495208E+03  0.21013375828E+03  0.92543593854E+02 0.  0.
         23    2    4    4    0    0 -0.67940184700E+03  0.35936293938E+03  0.10472219333E+04  0.13022151376E+04  0.91443397695E+02 0.  0.
          1    1    3    3  502    0  0.26963160701E+03 -0.53282523077E+02 -0.26106683595E+03  0.37907271545E+03  0.00000000000E+00 0. -1.
         -2    1    3    3    0  502  0.49566782796E+03 -0.21114234152E+03 -0.49378301226E+03  0.73081416739E+03  0.00000000000E+00 0.  1.
         13    1    5    5    0    0 -0.44611224574E+02 -0.10110105026E+03 -0.73112965947E+02  0.13250316793E+03  0.00000000000E+00 0. -1.
        -13    1    5    5    0    0 -0.41286363382E+02  0.61629754892E+01 -0.65451986136E+02  0.77630590345E+02  0.00000000000E+00 0.  1.
          3    1    6    6  503    0 -0.64693481941E+03  0.33490090747E+03  0.95251943512E+03  0.11991566006E+04  0.00000000000E+00 0. -1.
         -3    1    6    6    0  503 -0.32467027599E+02  0.24462031909E+02  0.94702498182E+02  0.10305853700E+03  0.00000000000E+00 0.  1.
<mgrwt>
<rscale>  0 0.26177211E+04</rscale>
<asrwt>0</asrwt>
<pdfrwt beam="1">  1        1 0.21354176E+00 0.26177211E+04</pdfrwt>
<pdfrwt beam="2">  1       -2 0.18987913E+00 0.26177211E+04</pdfrwt>
<totfact> 0.93917080E-01</totfact>
</mgrwt>
</event>
<event>
12    5  0.5041746E-008  0.2274533E+04  0.7818608E-02  0.8488030E-01
          1   -1    0    0  501    0  0.00000000000E+00  0.00000000000E+00  0.16477884797E+04  0.16477884797E+04  0.00000000000E+00 0. -1.
         -2   -1    0    0    0  501 -0.00000000000E+00 -0.00000000000E+00 -0.78491587602E+03  0.78491587602E+03  0.00000000000E+00 0.  1.
        -24    2    1    2    0    0  0.37450381977E+03 -0.87849430097E+03  0.40782856790E+03  0.10415716156E+04  0.80882271123E+02 0.  0.
        254    2    1    2    0    0 -0.37450381977E+03  0.87849430097E+03  0.45504403576E+03  0.13911327401E+04  0.90342674202E+03 0.  0.
         23    2    4    4    0    0 -0.49304225515E+03  0.99965440219E+03  0.34520483493E+03  0.11703086749E+04  0.89757603115E+02 0.  0.
         23    2    4    4    0    0  0.11853843538E+03 -0.12116010122E+03  0.10983920083E+03  0.22082406519E+03  0.89260780502E+02 0.  0.
          3    1    3    3  502    0  0.24351442848E+03 -0.62167623810E+03  0.31857242498E+03  0.73977632556E+03  0.00000000000E+00 0. -1.
         -4    1    3    3    0  502  0.13098939129E+03 -0.25681806288E+03  0.89256142911E+02  0.30179529005E+03  0.00000000000E+00 0.  1.
         13    1    5    5    0    0 -0.47452885874E+03  0.90816688004E+03  0.30978684555E+03  0.10704730774E+04  0.00000000000E+00 0. -1.
        -13    1    5    5    0    0 -0.18513396409E+02  0.91487522152E+02  0.35417989382E+02  0.99835597499E+02  0.00000000000E+00 0.  1.
          4    1    6    6  503    0  0.11561078879E+03 -0.90218347359E+02  0.11852187727E+03  0.18855407733E+03  0.00000000000E+00 0. -1.
         -4    1    6    6    0  503  0.29276465935E+01 -0.30941753858E+02 -0.86826764369E+01  0.32269987860E+02  0.00000000000E+00 0.  1.
<mgrwt>
<rscale>  0 0.22745332E+04</rscale>
<asrwt>0</asrwt>
<pdfrwt beam="1">  1        1 0.25350592E+00 0.22745332E+04</pdfrwt>
<pdfrwt beam="2">  1       -2 0.12075629E+00 0.22745332E+04</pdfrwt>
<totfact> 0.21518198E+00</totfact>
</mgrwt>
</event>
<event>
12    5  0.5041746E-008  0.1003930E+04  0.7818608E-02  0.9304245E-01
         -4   -1    0    0    0  501 -0.00000000000E+00  0.00000000000E+00  0.16537763064E+03  0.16537763064E+03  0.00000000000E+00 0.  1.
          1   -1    0    0  501    0  0.00000000000E+00 -0.00000000000E+00 -0.15235973973E+04  0.15235973973E+04  0.00000000000E+00 0. -1.
        -24    2    1    2    0    0  0.13189229892E+02 -0.26198067866E+02 -0.31229333151E+02  0.92190422079E+02  0.81630313788E+02 0.  0.
        254    2    1    2    0    0 -0.13189229892E+02  0.26198067866E+02 -0.13269904335E+04  0.15967846059E+04  0.88766951753E+03 0.  0.
         23    2    4    4    0    0  0.22992616739E+03  0.37708481746E+03 -0.63246855957E+03  0.77684648600E+03  0.91733210825E+02 0.  0.
         23    2    4    4    0    0 -0.24311539728E+03 -0.35088674959E+03 -0.69452187393E+03  0.81993811985E+03  0.87813891740E+02 0.  0.
          1    1    3    3  502    0 -0.59963177181E+01  0.18875828419E+01 -0.51972391774E+02  0.52351201532E+02  0.00000000000E+00 0. -1.
         -2    1    3    3    0  502  0.19185547610E+02 -0.28085650708E+02  0.20743058623E+02  0.39839220547E+02  0.00000000000E+00 0.  1.
         13    1    5    5    0    0  0.11946365767E+03  0.11141029746E+03 -0.22721697232E+03  0.27984169166E+03  0.00000000000E+00 0.  1.
        -13    1    5    5    0    0  0.11046250972E+03  0.26567451999E+03 -0.40525158725E+03  0.49700479434E+03  0.00000000000E+00 0. -1.
          3    1    6    6  503    0 -0.20707245328E+03 -0.30801391790E+03 -0.53720485998E+03  0.65294765189E+03  0.00000000000E+00 0. -1.
         -3    1    6    6    0  503 -0.36042943999E+02 -0.42872831686E+02 -0.15731701396E+03  0.16699046796E+03  0.00000000000E+00 0.  1.
<mgrwt>
<rscale>  0 0.10039301E+04</rscale>
<asrwt>0</asrwt>
<pdfrwt beam="1">  1        1 0.23439959E+00 0.10039301E+04</pdfrwt>
<pdfrwt beam="2">  1       -4 0.25442713E-01 0.10039301E+04</pdfrwt>
<totfact> 0.46067251E+01</totfact>
</mgrwt>
</event>
<event>
12    5  0.5041746E-008  0.1134869E+04  0.7818608E-02  0.9171857E-01
         -2   -1    0    0    0  501 -0.00000000000E+00  0.00000000000E+00  0.98821160259E+03  0.98821160259E+03  0.00000000000E+00 0.  1.
          1   -1    0    0  501    0  0.00000000000E+00 -0.00000000000E+00 -0.32582263818E+03  0.32582263818E+03  0.00000000000E+00 0. -1.
        -24    2    1    2    0    0  0.14796395774E+03 -0.90019719307E+02  0.26425035679E+03  0.32583735441E+03  0.79654552972E+02 0.  0.
        254    2    1    2    0    0 -0.14796395774E+03  0.90019719307E+02  0.39813860761E+03  0.98819688636E+03  0.88770594945E+03 0.  0.
         23    2    4    4    0    0  0.71720222150E+02 -0.32270800677E+03  0.37866730052E+03  0.51103061680E+03  0.92082131391E+02 0.  0.
         23    2    4    4    0    0 -0.21968417989E+03  0.41272772607E+03  0.19471307090E+02  0.47716626957E+03  0.93290954794E+02 0.  0.
          1    1    3    3  502    0  0.23304707511E+02  0.12979698361E+02  0.57275829790E+02  0.63183088243E+02  0.00000000000E+00 0. -1.
         -2    1    3    3    0  502  0.12465925023E+03 -0.10299941767E+03  0.20697452700E+03  0.26265426617E+03  0.00000000000E+00 0.  1.
         13    1    5    5    0    0  0.35345735668E+02 -0.34879353104E+02  0.83540574223E+02  0.97184967173E+02  0.00000000000E+00 0.  1.
        -13    1    5    5    0    0  0.36374486482E+02 -0.28782865366E+03  0.29512672630E+03  0.41384564962E+03  0.00000000000E+00 0. -1.
          4    1    6    6  503    0 -0.87810604070E+02  0.23303005267E+03 -0.23625634515E+02  0.25014371518E+03  0.00000000000E+00 0. -1.
         -4    1    6    6    0  503 -0.13187357582E+03  0.17969767340E+03  0.43096941605E+02  0.22702255439E+03  0.00000000000E+00 0.  1.
<mgrwt>
<rscale>  0 0.11348686E+04</rscale>
<asrwt>0</asrwt>
<pdfrwt beam="1">  1        1 0.50126560E-01 0.11348686E+04</pdfrwt>
<pdfrwt beam="2">  1       -2 0.15203255E+00 0.11348686E+04</pdfrwt>
<totfact> 0.19720098E+01</totfact>
</mgrwt>
</event>
<event>
12    5  0.5041746E-008  0.2084753E+04  0.7818608E-02  0.8567990E-01
          1   -1    0    0  501    0  0.00000000000E+00  0.00000000000E+00  0.29210465483E+04  0.29210465483E+04  0.00000000000E+00 0. -1.
         -2   -1    0    0    0  501 -0.00000000000E+00 -0.00000000000E+00 -0.37197239851E+03  0.37197239851E+03  0.00000000000E+00 0.  1.
        -24    2    1    2    0    0  0.41356924078E+03 -0.65970964218E+03  0.15210891518E+04  0.17106680758E+04  0.80104487867E+02 0.  0.
        254    2    1    2    0    0 -0.41356924078E+03  0.65970964218E+03  0.10279849981E+04  0.15823508711E+04  0.91696499061E+03 0.  0.
         23    2    4    4    0    0 -0.41966133772E+03  0.62634318083E+03  0.11800180156E+04  0.14037693492E+04  0.98511166452E+02 0.  0.
         23    2    4    4    0    0  0.60920969414E+01  0.33366461347E+02 -0.15203301755E+03  0.17858152190E+03  0.87332051113E+02 0.  0.
          1    1    3    3  502    0  0.35547962991E+03 -0.50724874270E+03  0.11891466042E+04  0.13407970393E+04  0.00000000000E+00 0. -1.
         -2    1    3    3    0  502  0.58089610868E+02 -0.15246089948E+03  0.33194254757E+03  0.36987103651E+03  0.00000000000E+00 0.  1.
         13    1    5    5    0    0 -0.26781187925E+03  0.45124183265E+03  0.75115818131E+03  0.91628653136E+03  0.00000000000E+00 0. -1.
        -13    1    5    5    0    0 -0.15184945848E+03  0.17510134819E+03  0.42885983430E+03  0.48748281780E+03  0.00000000000E+00 0.  1.
          2    1    6    6  503    0 -0.19837422767E+02 -0.23519462690E+02 -0.42590340729E+02  0.52541655767E+02  0.00000000000E+00 0. -1.
         -2    1    6    6    0  503  0.25929519708E+02  0.56885924037E+02 -0.10944267682E+03  0.12603986614E+03  0.00000000000E+00 0.  1.
<mgrwt>
<rscale>  0 0.20847529E+04</rscale>
<asrwt>0</asrwt>
<pdfrwt beam="1">  1        1 0.44939176E+00 0.20847529E+04</pdfrwt>
<pdfrwt beam="2">  1       -2 0.57226525E-01 0.20847529E+04</pdfrwt>
<totfact> 0.15814550E+00</totfact>
</mgrwt>
</event>
<event>
12    5  0.5041746E-008  0.1168884E+04  0.7818608E-02  0.9140537E-01
         -2   -1    0    0    0  501 -0.00000000000E+00  0.00000000000E+00  0.55961821156E+03  0.55961821156E+03  0.00000000000E+00 0.  1.
          1   -1    0    0  501    0  0.00000000000E+00 -0.00000000000E+00 -0.61036727339E+03  0.61036727339E+03  0.00000000000E+00 0. -1.
        -24    2    1    2    0    0  0.46403302145E+02  0.73896872557E+02 -0.22021872431E+03  0.24934453954E+03  0.77861406612E+02 0.  0.
        254    2    1    2    0    0 -0.46403302145E+02 -0.73896872557E+02  0.16946966248E+03  0.92064094540E+03  0.90069182833E+03 0.  0.
         23    2    4    4    0    0 -0.23970738172E+03 -0.21353133395E+03  0.43916693663E+03  0.55146974063E+03  0.90531857212E+02 0.  0.
         23    2    4    4    0    0  0.19330407958E+03  0.13963446139E+03 -0.26969727415E+03  0.36917120477E+03  0.81771075340E+02 0.  0.
          1    1    3    3  502    0  0.56488460064E+02  0.62318331591E+02 -0.11212729012E+03  0.14016793415E+03  0.00000000000E+00 0. -1.
         -2    1    3    3    0  502 -0.10085157919E+02  0.11578540966E+02 -0.10809143419E+03  0.10917660540E+03  0.00000000000E+00 0.  1.
         13    1    5    5    0    0 -0.18989071906E+03 -0.12635459059E+03  0.34652373836E+03  0.41485258706E+03  0.00000000000E+00 0. -1.
        -13    1    5    5    0    0 -0.49816662664E+02 -0.87176743364E+02  0.92643198266E+02  0.13661715356E+03  0.00000000000E+00 0.  1.
          1    1    6    6  503    0  0.23790069447E+02 -0.10139433899E+02 -0.29434021743E+02  0.39180826434E+02  0.00000000000E+00 0. -1.
         -1    1    6    6    0  503  0.16951401013E+03  0.14977389529E+03 -0.24026325240E+03  0.32999037834E+03  0.00000000000E+00 0.  1.
<mgrwt>
<rscale>  0 0.11688843E+04</rscale>
<asrwt>0</asrwt>
<pdfrwt beam="1">  1        1 0.93902657E-01 0.11688843E+04</pdfrwt>
<pdfrwt beam="2">  1       -2 0.86095110E-01 0.11688843E+04</pdfrwt>
<totfact> 0.33948757E+01</totfact>
</mgrwt>
</event>
<event>
12    5  0.5041746E-008  0.1917658E+04  0.7818608E-02  0.8646117E-01
         -2   -1    0    0    0  501 -0.00000000000E+00  0.00000000000E+00  0.65928523753E+03  0.65928523753E+03  0.00000000000E+00 0.  1.
          1   -1    0    0  501    0  0.00000000000E+00 -0.00000000000E+00 -0.13944689663E+04  0.13944689663E+04  0.00000000000E+00 0. -1.
        -24    2    1    2    0    0 -0.15089821270E+02  0.73610626830E+03 -0.41450169921E+03  0.84953926963E+03  0.88459996872E+02 0.  0.
        254    2    1    2    0    0  0.15089821270E+02 -0.73610626830E+03 -0.32068202954E+03  0.12042149342E+04  0.89733856638E+03 0.  0.
         23    2    4    4    0    0  0.80862438697E+02 -0.62503880477E+01 -0.43963557498E+03  0.45639174418E+03  0.91848701850E+02 0.  0.
         23    2    4    4    0    0 -0.65772617427E+02 -0.72985588025E+03  0.11895354543E+03  0.74782319001E+03  0.89855074419E+02 0.  0.
          1    1    3    3  502    0  0.19143736737E+01  0.94488693606E+02 -0.89251654233E+02  0.12999090672E+03  0.00000000000E+00 0. -1.
         -2    1    3    3    0  502 -0.17004194944E+02  0.64161757470E+03 -0.32525004498E+03  0.71954836291E+03  0.00000000000E+00 0.  1.
         13    1    5    5    0    0  0.33610443117E+02 -0.20335460464E+02 -0.36393827112E+03  0.36605226133E+03  0.00000000000E+00 0.  1.
        -13    1    5    5    0    0  0.47251995580E+02  0.14085072416E+02 -0.75697303859E+02  0.90339482856E+02  0.00000000000E+00 0. -1.
          4    1    6    6  503    0 -0.12458920641E+02 -0.13241675233E+02 -0.44288320436E+01  0.18713129610E+02  0.00000000000E+00 0. -1.
         -4    1    6    6    0  503 -0.53313696785E+02 -0.71661420502E+03  0.12338237748E+03  0.72911006040E+03  0.00000000000E+00 0.  1.
<mgrwt>
<rscale>  0 0.19176577E+04</rscale>
<asrwt>0</asrwt>
<pdfrwt beam="1">  1        1 0.21453369E+00 0.19176577E+04</pdfrwt>
<pdfrwt beam="2">  1       -2 0.10142850E+00 0.19176577E+04</pdfrwt>
<totfact> 0.50750765E+00</totfact>
</mgrwt>
</event>
<event>
12    5  0.5041746E-008  0.1076968E+04  0.7818608E-02  0.9227936E-01
         -2   -1    0    0    0  501 -0.00000000000E+00  0.00000000000E+00  0.50370232211E+03  0.50370232211E+03  0.00000000000E+00 0.  1.
          1   -1    0    0  501    0  0.00000000000E+00 -0.00000000000E+00 -0.57566743000E+03  0.57566743000E+03  0.00000000000E+00 0. -1.
        -24    2    1    2    0    0 -0.14229461858E+03 -0.38505587081E+01 -0.45632437578E+02  0.16970939830E+03  0.80351572683E+02 0.  0.
        254    2    1    2    0    0  0.14229461858E+03  0.38505587081E+01 -0.26332670316E+02  0.90966035381E+03  0.89806790639E+03 0.  0.
         23    2    4    4    0    0 -0.35509987647E+03  0.84155634657E+02 -0.10515721873E+03  0.39199738447E+03  0.97086639996E+02 0.  0.
         23    2    4    4    0    0  0.49739449505E+03 -0.80305075949E+02  0.78824548410E+02  0.51766296935E+03  0.88946340426E+02 0.  0.
          3    1    3    3  502    0 -0.37837828762E+01  0.77449367907E+01 -0.28364726505E+02  0.29645552254E+02  0.00000000000E+00 0. -1.
         -4    1    3    3    0  502 -0.13851083570E+03 -0.11595495499E+02 -0.17267711073E+02  0.14006384604E+03  0.00000000000E+00 0.  1.
         13    1    5    5    0    0  0.25065546329E+01  0.90898013844E+01  0.45692825533E+01  0.10477864686E+02  0.00000000000E+00 0. -1.
        -13    1    5    5    0    0 -0.35760643110E+03  0.75065833272E+02 -0.10972650128E+03  0.38151951978E+03  0.00000000000E+00 0.  1.
          3    1    6    6  503    0  0.18925634654E+02 -0.29856720860E+01  0.22766758858E+02  0.29755994249E+02  0.00000000000E+00 0. -1.
         -3    1    6    6    0  503  0.47846886039E+03 -0.77319403863E+02  0.56057789552E+02  0.48790697510E+03  0.00000000000E+00 0.  1.
<mgrwt>
<rscale>  0 0.10769680E+04</rscale>
<asrwt>0</asrwt>
<pdfrwt beam="1">  1        1 0.88564219E-01 0.10769680E+04</pdfrwt>
<pdfrwt beam="2">  1       -2 0.77492666E-01 0.10769680E+04</pdfrwt>
<totfact> 0.47155253E+01</totfact>
</mgrwt>
</event>
<event>
12    5  0.5135724E-008  0.1658735E+04  0.7818608E-02  0.8785255E-01
         -2   -1    0    0    0  501 -0.00000000000E+00  0.00000000000E+00  0.75327143559E+03  0.75327143559E+03  0.00000000000E+00 0.  1.
          1   -1    0    0  501    0  0.00000000000E+00 -0.00000000000E+00 -0.91315138809E+03  0.91315138809E+03  0.00000000000E+00 0. -1.
        -24    2    1    2    0    0 -0.33439909339E+03  0.32776550275E+02 -0.56415473683E+03  0.66137027006E+03  0.79012727594E+02 0.  0.
        254    2    1    2    0    0  0.33439909339E+03 -0.32776550275E+02  0.40427478433E+03  0.10050525536E+04  0.85661863066E+03 0.  0.
         23    2    4    4    0    0  0.34495636342E+03  0.23793038058E+03  0.53801723259E+03  0.68909430071E+03  0.98907300215E+02 0.  0.
         23    2    4    4    0    0 -0.10557270031E+02 -0.27070693085E+03 -0.13374244826E+03  0.31595825292E+03  0.92460136057E+02 0.  0.
          1    1    3    3  502    0 -0.20869862772E+03 -0.17534222356E+02 -0.32823628346E+03  0.38936053208E+03  0.00000000000E+00 0. -1.
         -2    1    3    3    0  502 -0.12570046568E+03  0.50310772631E+02 -0.23591845337E+03  0.27200973798E+03  0.00000000000E+00 0.  1.
         13    1    5    5    0    0  0.35172029971E+03  0.23544088676E+03  0.53089101365E+03  0.67895865026E+03  0.00000000000E+00 0. -1.
        -13    1    5    5    0    0 -0.67639362902E+01  0.24894938160E+01  0.71262189395E+01  0.10135650446E+02  0.00000000000E+00 0.  1.
          2    1    6    6  503    0 -0.22588631683E+02 -0.27150800645E+03 -0.12007731036E+03  0.29773378093E+03  0.00000000000E+00 0. -1.
         -2    1    6    6    0  503  0.12031361652E+02  0.80107559596E+00 -0.13665137898E+02  0.18224471984E+02  0.00000000000E+00 0.  1.
<mgrwt>
<rscale>  0 0.16587355E+04</rscale>
<asrwt>0</asrwt>
<pdfrwt beam="1">  1        1 0.14048483E+00 0.16587355E+04</pdfrwt>
<pdfrwt beam="2">  1       -2 0.11588791E+00 0.16587355E+04</pdfrwt>
<totfact> 0.85954419E+00</totfact>
</mgrwt>
</event>
<event>
12    5  0.5041746E-008  0.2048691E+04  0.7818608E-02  0.8584188E-01
          3   -1    0    0  501    0  0.00000000000E+00  0.00000000000E+00  0.65427486026E+03  0.65427486026E+03  0.00000000000E+00 0. -1.
         -4   -1    0    0    0  501 -0.00000000000E+00 -0.00000000000E+00 -0.16037358686E+04  0.16037358686E+04  0.00000000000E+00 0.  1.
        -24    2    1    2    0    0 -0.78426231477E+03 -0.92518040256E+02 -0.58896186937E+03  0.98814695039E+03  0.77015231239E+02 0.  0.
        254    2    1    2    0    0  0.78426231477E+03  0.92518040256E+02 -0.36049913899E+03  0.12698637785E+04  0.92680495283E+03 0.  0.
         23    2    4    4    0    0 -0.58280393474E+02 -0.64459158125E+02  0.20379711602E+03  0.23977002980E+03  0.91677780088E+02 0.  0.
         23    2    4    4    0    0  0.84254270825E+03  0.15697719838E+03 -0.56429625501E+03  0.10300937487E+04  0.90237529167E+02 0.  0.
          1    1    3    3  502    0 -0.47453181946E+02 -0.19288003927E+02 -0.55667940689E+02  0.75648867756E+02  0.00000000000E+00 0. -1.
         -2    1    3    3    0  502 -0.73680913282E+03 -0.73230036328E+02 -0.53329392869E+03  0.91249808263E+03  0.00000000000E+00 0.  1.
         13    1    5    5    0    0 -0.74919137070E+02 -0.65300346902E+02  0.19899450530E+03  0.22243161993E+03  0.00000000000E+00 0. -1.
        -13    1    5    5    0    0  0.16638743596E+02  0.84118877717E+00  0.48026107185E+01  0.17338409868E+02  0.00000000000E+00 0.  1.
          2    1    6    6  503    0  0.36886876753E+03  0.23400924657E+02 -0.23850222142E+03  0.43988075720E+03  0.00000000000E+00 0. -1.
         -2    1    6    6    0  503  0.47367394072E+03  0.13357627372E+03 -0.32579403358E+03  0.59021299150E+03  0.00000000000E+00 0.  1.
<mgrwt>
<rscale>  0 0.20486913E+04</rscale>
<asrwt>0</asrwt>
<pdfrwt beam="1">  1        3 0.10065767E+00 0.20486913E+04</pdfrwt>
<pdfrwt beam="2">  1       -4 0.24672859E+00 0.20486913E+04</pdfrwt>
<totfact> 0.12051122E-01</totfact>
</mgrwt>
</event>
<event>
12    5  0.5041746E-008  0.2076624E+04  0.7818608E-02  0.8571611E-01
          1   -1    0    0  501    0  0.00000000000E+00  0.00000000000E+00  0.13333322977E+04  0.13333322977E+04  0.00000000000E+00 0. -1.
         -2   -1    0    0    0  501 -0.00000000000E+00 -0.00000000000E+00 -0.80856957531E+03  0.80856957531E+03  0.00000000000E+00 0.  1.
        -24    2    1    2    0    0  0.40355159931E+03  0.65298973505E+03  0.56919243823E+03  0.95910079643E+03  0.81515756671E+02 0.  0.
        254    2    1    2    0    0 -0.40355159931E+03 -0.65298973505E+03 -0.44429715873E+02  0.11828010765E+04  0.89877410935E+03 0.  0.
         23    2    4    4    0    0  0.18467704160E+03 -0.51690294921E+03  0.73037688524E+02  0.56138295999E+03  0.92314978353E+02 0.  0.
         23    2    4    4    0    0 -0.58822864091E+03 -0.13608678585E+03 -0.11746740440E+03  0.62141811656E+03  0.88483542110E+02 0.  0.
          3    1    3    3  502    0  0.33947530010E+03  0.53695458796E+03  0.43137950413E+03  0.76788800322E+03  0.00000000000E+00 0. -1.
         -4    1    3    3    0  502  0.64076299206E+02  0.11603514710E+03  0.13781293410E+03  0.19121279321E+03  0.00000000000E+00 0.  1.
         13    1    5    5    0    0  0.13882293764E+03 -0.38850388835E+03  0.13974049702E+02  0.41279819930E+03  0.00000000000E+00 0.  1.
        -13    1    5    5    0    0  0.45854103955E+02 -0.12839906086E+03  0.59063638822E+02  0.14858476069E+03  0.00000000000E+00 0. -1.
          1    1    6    6  503    0 -0.14261365539E+02 -0.20058571650E+02 -0.36244235610E+01  0.24877083627E+02  0.00000000000E+00 0. -1.
         -1    1    6    6    0  503 -0.57396727537E+03 -0.11602821420E+03 -0.11384298084E+03  0.59654103293E+03  0.00000000000E+00 0.  1.
<mgrwt>
<rscale>  0 0.20766241E+04</rscale>
<asrwt>0</asrwt>
<pdfrwt beam="1">  1        1 0.20512805E+00 0.20766241E+04</pdfrwt>
<pdfrwt beam="2">  1       -2 0.12439532E+00 0.20766241E+04</pdfrwt>
<totfact> 0.33612344E+00</totfact>
</mgrwt>
</event>
<event>
12    5  0.5041746E-008  0.1156432E+04  0.7818608E-02  0.9151870E-01
          3   -1    0    0  501    0  0.00000000000E+00  0.00000000000E+00  0.72360966488E+03  0.72360966488E+03  0.00000000000E+00 0. -1.
         -4   -1    0    0    0  501 -0.00000000000E+00 -0.00000000000E+00 -0.46203600718E+03  0.46203600718E+03  0.00000000000E+00 0.  1.
        -24    2    1    2    0    0  0.10053018270E+03 -0.80918121716E+02  0.23783844722E+03  0.28183477371E+03  0.78801349225E+02 0.  0.
        254    2    1    2    0    0 -0.10053018270E+03  0.80918121716E+02  0.23735210474E+02  0.90381089835E+03  0.89423527089E+03 0.  0.
         23    2    4    4    0    0  0.20836542041E+03  0.23232256881E+03 -0.28574090012E+03  0.43227371650E+03  0.88446478610E+02 0.  0.
         23    2    4    4    0    0 -0.30889560311E+03 -0.15140444709E+03  0.30947611059E+03  0.47153718185E+03  0.90730648742E+02 0.  0.
          1    1    3    3  502    0  0.65438088544E+02 -0.90105529472E+02  0.20300639236E+03  0.23154426189E+03  0.00000000000E+00 0. -1.
         -2    1    3    3    0  502  0.35092094158E+02  0.91874077557E+01  0.34832054864E+02  0.50290511826E+02  0.00000000000E+00 0.  1.
         13    1    5    5    0    0 -0.64379579586E+01  0.18317968957E+02 -0.77259066847E+01  0.20897007525E+02  0.00000000000E+00 0.  1.
        -13    1    5    5    0    0  0.21480337837E+03  0.21400459985E+03 -0.27801499343E+03  0.41137670898E+03  0.00000000000E+00 0. -1.
          3    1    6    6  503    0 -0.38244721900E+02 -0.49374931451E+02  0.29824010061E+02  0.69209928371E+02  0.00000000000E+00 0. -1.
         -3    1    6    6    0  503 -0.27065088121E+03 -0.10202951564E+03  0.27965210053E+03  0.40232725348E+03  0.00000000000E+00 0.  1.
<mgrwt>
<rscale>  0 0.11564320E+04</rscale>
<asrwt>0</asrwt>
<pdfrwt beam="1">  1        3 0.11132456E+00 0.11564320E+04</pdfrwt>
<pdfrwt beam="2">  1       -4 0.71082462E-01 0.11564320E+04</pdfrwt>
<totfact> 0.27796413E+00</totfact>
</mgrwt>
</event>
<event>
12    5  0.5041746E-008  0.2814973E+04  0.7818608E-02  0.8298635E-01
         -2   -1    0    0    0  501 -0.00000000000E+00  0.00000000000E+00  0.11699148567E+04  0.11699148567E+04  0.00000000000E+00 0.  1.
          1   -1    0    0  501    0  0.00000000000E+00 -0.00000000000E+00 -0.16933013277E+04  0.16933013277E+04  0.00000000000E+00 0. -1.
        -24    2    1    2    0    0 -0.71570914382E+03  0.10220199831E+04 -0.43322714081E+02  0.12512969006E+04  0.84277229488E+02 0.  0.
        254    2    1    2    0    0  0.71570914382E+03 -0.10220199831E+04 -0.48006375693E+03  0.16119192838E+04  0.90058766506E+03 0.  0.
         23    2    4    4    0    0  0.70778567247E+03 -0.58093217653E+03  0.44862168458E+02  0.92062788600E+03  0.84263505975E+02 0.  0.
         23    2    4    4    0    0  0.79234713458E+01 -0.44108780658E+03 -0.52492592538E+03  0.69129139783E+03  0.87836980041E+02 0.  0.
          1    1    3    3  502    0 -0.15095179070E+02  0.38123375510E+02  0.10215303061E+02  0.42256462323E+02  0.00000000000E+00 0. -1.
         -2    1    3    3    0  502 -0.70061396475E+03  0.98389660760E+03 -0.53538017142E+02  0.12090404382E+04  0.00000000000E+00 0.  1.
         13    1    5    5    0    0  0.81013159701E+02 -0.47120149919E+02 -0.16081667293E+02  0.95089750215E+02  0.00000000000E+00 0. -1.
        -13    1    5    5    0    0  0.62677251277E+03 -0.53381202661E+03  0.60943835751E+02  0.82553813578E+03  0.00000000000E+00 0.  1.
          1    1    6    6  503    0  0.15816841289E+02 -0.18983225315E+02 -0.13611974670E+02  0.28210302482E+02  0.00000000000E+00 0. -1.
         -1    1    6    6    0  503 -0.78933699428E+01 -0.42210458127E+03 -0.51131395071E+03  0.66308109535E+03  0.00000000000E+00 0.  1.
<mgrwt>
<rscale>  0 0.28149731E+04</rscale>
<asrwt>0</asrwt>
<pdfrwt beam="1">  1        1 0.26050790E+00 0.28149731E+04</pdfrwt>
<pdfrwt beam="2">  1       -2 0.17998690E+00 0.28149731E+04</pdfrwt>
<totfact> 0.66360194E-01</totfact>
</mgrwt>
</event>
<event>
12    5  0.5041746E-008  0.1358242E+04  0.7818608E-02  0.8984613E-01
         -2   -1    0    0    0  501 -0.00000000000E+00  0.00000000000E+00  0.32844591968E+03  0.32844591968E+03  0.00000000000E+00 0.  1.
          1   -1    0    0  501    0  0.00000000000E+00 -0.00000000000E+00 -0.14042042527E+04  0.14042042527E+04  0.00000000000E+00 0. -1.
        -24    2    1    2    0    0  0.16801073552E+03 -0.24436988219E+03 -0.87342850923E+00  0.30695783926E+03  0.79234497767E+02 0.  0.
        254    2    1    2    0    0 -0.16801073552E+03  0.24436988219E+03 -0.10748849045E+04  0.14256923331E+04  0.88841253039E+03 0.  0.
         23    2    4    4    0    0  0.14126707873E+03  0.22715603023E+03 -0.10659066778E+04  0.11026534046E+04  0.90173362095E+02 0.  0.
         23    2    4    4    0    0 -0.30927781424E+03  0.17213851966E+02 -0.89782266866E+01  0.32303892852E+03  0.91238466119E+02 0.  0.
          1    1    3    3  502    0  0.61753083631E+02 -0.57048931050E+02 -0.30785221559E+02  0.89530741862E+02  0.00000000000E+00 0. -1.
         -2    1    3    3    0  502  0.10625765189E+03 -0.18732095114E+03  0.29911793050E+02  0.21742709740E+03  0.00000000000E+00 0.  1.
         13    1    5    5    0    0  0.59820172176E+02  0.30344310550E+02 -0.20061572214E+03  0.21153226267E+03  0.00000000000E+00 0. -1.
        -13    1    5    5    0    0  0.81446906550E+02  0.19681171968E+03 -0.86529095566E+03  0.89112114190E+03  0.00000000000E+00 0.  1.
          3    1    6    6  503    0  0.52444190530E+01  0.40394276039E+01 -0.48630121943E+01  0.82139998888E+01  0.00000000000E+00 0. -1.
         -3    1    6    6    0  503 -0.31452223330E+03  0.13174424362E+02 -0.41152144922E+01  0.31482492863E+03  0.00000000000E+00 0.  1.
<mgrwt>
<rscale>  0 0.13582417E+04</rscale>
<asrwt>0</asrwt>
<pdfrwt beam="1">  1        1 0.21603142E+00 0.13582417E+04</pdfrwt>
<pdfrwt beam="2">  1       -2 0.50530142E-01 0.13582417E+04</pdfrwt>
<totfact> 0.24252039E+01</totfact>
</mgrwt>
</event>
<event>
12    5  0.5041746E-008  0.1372182E+04  0.7818608E-02  0.8974205E-01
          1   -1    0    0  501    0  0.00000000000E+00  0.00000000000E+00  0.28893322724E+03  0.28893322724E+03  0.00000000000E+00 0. -1.
         -2   -1    0    0    0  501 -0.00000000000E+00 -0.00000000000E+00 -0.16291677146E+04  0.16291677146E+04  0.00000000000E+00 0.  1.
        -24    2    1    2    0    0  0.59522790871E+02  0.15880047313E+03 -0.85555555319E+03  0.87658476165E+03  0.87549910746E+02 0.  0.
        254    2    1    2    0    0 -0.59522790871E+02 -0.15880047313E+03 -0.48467893415E+03  0.10415161802E+04  0.90613560323E+03 0.  0.
         23    2    4    4    0    0 -0.14181417904E+03  0.10346897715E+03 -0.66931118468E+03  0.69796390569E+03  0.91427901063E+02 0.  0.
         23    2    4    4    0    0  0.82291388172E+02 -0.26226945028E+03  0.18463225053E+03  0.34355227448E+03  0.91553046070E+02 0.  0.
          3    1    3    3  502    0  0.43515786924E+02  0.15480182392E+02 -0.23457792264E+03  0.23908170475E+03  0.00000000000E+00 0. -1.
         -4    1    3    3    0  502  0.16007003947E+02  0.14332029074E+03 -0.62097763055E+03  0.63750305690E+03  0.00000000000E+00 0.  1.
         13    1    5    5    0    0 -0.52763654171E+02  0.68699458429E+02 -0.18457594903E+03  0.20389188250E+03  0.00000000000E+00 0. -1.
        -13    1    5    5    0    0 -0.89050524872E+02  0.34769518717E+02 -0.48473523565E+03  0.49407202319E+03  0.00000000000E+00 0.  1.
          4    1    6    6  503    0  0.61529087219E+02 -0.19702583587E+03  0.18175055348E+03  0.27502413033E+03  0.00000000000E+00 0.  1.
         -4    1    6    6    0  503  0.20762300953E+02 -0.65243614411E+02  0.28816970520E+01  0.68528144147E+02  0.00000000000E+00 0. -1.
<mgrwt>
<rscale>  0 0.13721817E+04</rscale>
<asrwt>0</asrwt>
<pdfrwt beam="1">  1        1 0.44451267E-01 0.13721817E+04</pdfrwt>
<pdfrwt beam="2">  1       -2 0.25064118E+00 0.13721817E+04</pdfrwt>
<totfact> 0.50088150E+00</totfact>
</mgrwt>
</event>
<event>
12    5  0.5041746E-008  0.2598861E+04  0.7818608E-02  0.8368588E-01
          1   -1    0    0  501    0  0.00000000000E+00  0.00000000000E+00  0.31847103235E+04  0.31847103235E+04  0.00000000000E+00 0. -1.
         -2   -1    0    0    0  501 -0.00000000000E+00 -0.00000000000E+00 -0.53019584497E+03  0.53019584497E+03  0.00000000000E+00 0.  1.
        -24    2    1    2    0    0 -0.10829726779E+03  0.45979120061E+03  0.26501114744E+04  0.26929346837E+04  0.75300318480E+02 0.  0.
        254    2    1    2    0    0  0.10829726779E+03 -0.45979120061E+03  0.44030041635E+01  0.10219714847E+04  0.90623952838E+03 0.  0.
         23    2    4    4    0    0  0.20536059921E+03  0.13251663066E+03  0.25536907677E+03  0.36513865091E+03  0.91538166391E+02 0.  0.
         23    2    4    4    0    0 -0.97063331418E+02 -0.59230783127E+03 -0.25096607261E+03  0.65683283383E+03  0.90529247758E+02 0.  0.
          3    1    3    3  502    0 -0.87072095360E+02  0.20637375177E+03  0.12588942308E+04  0.12786658514E+04  0.00000000000E+00 0. -1.
         -4    1    3    3    0  502 -0.21225172430E+02  0.25341744884E+03  0.13912172436E+04  0.14142688324E+04  0.00000000000E+00 0.  1.
         13    1    5    5    0    0  0.78930296725E+01  0.34146478033E+02  0.64549205610E+02  0.73449859253E+02  0.00000000000E+00 0.  1.
        -13    1    5    5    0    0  0.19746756954E+03  0.98370152629E+02  0.19081987116E+03  0.29168879166E+03  0.00000000000E+00 0. -1.
          4    1    6    6  503    0  0.45169638066E+01 -0.24681120324E+03 -0.99174473684E+02  0.26602960218E+03  0.00000000000E+00 0.  1.
         -4    1    6    6    0  503 -0.10158029522E+03 -0.34549662803E+03 -0.15179159893E+03  0.39080323165E+03  0.00000000000E+00 0. -1.
<mgrwt>
<rscale>  0 0.25988614E+04</rscale>
<asrwt>0</asrwt>
<pdfrwt beam="1">  1        1 0.48995542E+00 0.25988614E+04</pdfrwt>
<pdfrwt beam="2">  1       -2 0.81568593E-01 0.25988614E+04</pdfrwt>
<totfact> 0.44731420E-01</totfact>
</mgrwt>
</event>
<event>
12    5  0.5041746E-008  0.2212683E+04  0.7818608E-02  0.8513168E-01
          1   -1    0    0  501    0  0.00000000000E+00  0.00000000000E+00  0.14395481166E+04  0.14395481166E+04  0.00000000000E+00 0. -1.
         -2   -1    0    0    0  501 -0.00000000000E+00 -0.00000000000E+00 -0.85026118956E+03  0.85026118956E+03  0.00000000000E+00 0.  1.
        -24    2    1    2    0    0 -0.18629284519E+02 -0.27369927900E+03  0.11543609333E+04  0.11891657001E+04  0.79420100639E+02 0.  0.
        254    2    1    2    0    0  0.18629284519E+02  0.27369927900E+03 -0.56507400627E+03  0.11006436060E+04  0.90379719484E+03 0.  0.
         23    2    4    4    0    0 -0.31763317769E+03  0.38170504011E+03 -0.53353545236E+03  0.73471118623E+03  0.92470941629E+02 0.  0.
         23    2    4    4    0    0  0.33626246220E+03 -0.10800576111E+03 -0.31538553919E+02  0.36593241981E+03  0.90411103107E+02 0.  0.
          3    1    3    3  502    0 -0.25329187306E+02 -0.22000921173E+03  0.10300785499E+04  0.10536163628E+04  0.00000000000E+00 0. -1.
         -4    1    3    3    0  502  0.66999027869E+01 -0.53690067266E+02  0.12428238344E+03  0.13554933734E+03  0.00000000000E+00 0.  1.
         13    1    5    5    0    0 -0.17921402204E+03  0.24190066710E+03 -0.26007602465E+03  0.39783556532E+03  0.00000000000E+00 0. -1.
        -13    1    5    5    0    0 -0.13841915564E+03  0.13980437301E+03 -0.27345942771E+03  0.33687562091E+03  0.00000000000E+00 0.  1.
          4    1    6    6  503    0  0.39851248811E+02 -0.34857183726E+01  0.24164219384E+02  0.46735230424E+02  0.00000000000E+00 0. -1.
         -4    1    6    6    0  503  0.29641121339E+03 -0.10452004274E+03 -0.55702773302E+02  0.31919718939E+03  0.00000000000E+00 0.  1.
<mgrwt>
<rscale>  0 0.22126833E+04</rscale>
<asrwt>0</asrwt>
<pdfrwt beam="1">  1        1 0.22146894E+00 0.22126833E+04</pdfrwt>
<pdfrwt beam="2">  1       -2 0.13080941E+00 0.22126833E+04</pdfrwt>
<totfact> 0.24634273E+00</totfact>
</mgrwt>
</event>
<event>
12    5  0.5041746E-008  0.1500665E+04  0.7818608E-02  0.8884011E-01
          1   -1    0    0  501    0  0.00000000000E+00  0.00000000000E+00  0.78453731111E+03  0.78453731111E+03  0.00000000000E+00 0. -1.
         -2   -1    0    0    0  501 -0.00000000000E+00 -0.00000000000E+00 -0.71761926112E+03  0.71761926112E+03  0.00000000000E+00 0.  1.
        -24    2    1    2    0    0  0.45721399023E+02  0.47411547167E+03  0.57078943958E+02  0.48630324927E+03  0.79730280317E+02 0.  0.
        254    2    1    2    0    0 -0.45721399023E+02 -0.47411547167E+03  0.98391060254E+01  0.10158533230E+04  0.89720969621E+03 0.  0.
         23    2    4    4    0    0  0.19248249960E+03 -0.50271279629E+03 -0.29262053057E+03  0.61933231037E+03  0.90421610012E+02 0.  0.
         23    2    4    4    0    0 -0.23820389862E+03  0.28597324619E+02  0.30245963659E+03  0.39652101259E+03  0.90488548258E+02 0.  0.
          3    1    3    3  502    0 -0.20886320030E+02  0.65167695755E+02  0.12637293953E+02  0.69590000236E+02  0.00000000000E+00 0. -1.
         -4    1    3    3    0  502  0.66607719053E+02  0.40894777591E+03  0.44441650005E+02  0.41671324903E+03  0.00000000000E+00 0.  1.
         13    1    5    5    0    0  0.15307373774E+03 -0.42159084713E+03 -0.20345450455E+03  0.49250801718E+03  0.00000000000E+00 0. -1.
        -13    1    5    5    0    0  0.39408761854E+02 -0.81121949159E+02 -0.89166026021E+02  0.12682429319E+03  0.00000000000E+00 0.  1.
          4    1    6    6  503    0 -0.17551172971E+03  0.60368626983E+02  0.23043207303E+03  0.29588456985E+03  0.00000000000E+00 0. -1.
         -4    1    6    6    0  503 -0.62692168910E+02 -0.31771302364E+02  0.72027563559E+02  0.10063644275E+03  0.00000000000E+00 0.  1.
<mgrwt>
<rscale>  0 0.15006653E+04</rscale>
<asrwt>0</asrwt>
<pdfrwt beam="1">  1        1 0.12069805E+00 0.15006653E+04</pdfrwt>
<pdfrwt beam="2">  1       -2 0.11040296E+00 0.15006653E+04</pdfrwt>
<totfact> 0.12586507E+01</totfact>
</mgrwt>
</event>
<event>
12    5  0.5041746E-008  0.1754498E+04  0.7818608E-02  0.8730878E-01
         -2   -1    0    0    0  501 -0.00000000000E+00  0.00000000000E+00  0.57135038073E+03  0.57135038073E+03  0.00000000000E+00 0.  1.
          1   -1    0    0  501    0  0.00000000000E+00 -0.00000000000E+00 -0.13469246588E+04  0.13469246588E+04  0.00000000000E+00 0. -1.
        -24    2    1    2    0    0  0.14597248159E+03  0.53280686589E+03 -0.64839241180E+03  0.85572599741E+03  0.81628066488E+02 0.  0.
        254    2    1    2    0    0 -0.14597248159E+03 -0.53280686589E+03 -0.12718186624E+03  0.10625490421E+04  0.89869022363E+03 0.  0.
         23    2    4    4    0    0 -0.79744840396E+02  0.21694911697E+03  0.10541817044E+03  0.26959755691E+03  0.90242413013E+02 0.  0.
         23    2    4    4    0    0 -0.66227641198E+02 -0.74975598286E+03 -0.23260003668E+03  0.79295148519E+03  0.90272623284E+02 0.  0.
          3    1    3    3  502    0  0.14093630557E+03  0.50470587181E+03 -0.63736552201E+03  0.82512172915E+03  0.00000000000E+00 0. -1.
         -4    1    3    3    0  502  0.50361760259E+01  0.28100994078E+02 -0.11026889789E+02  0.30604268257E+02  0.00000000000E+00 0.  1.
         13    1    5    5    0    0 -0.11915110768E+02  0.56526920573E+02  0.71893642509E+02  0.92227753130E+02  0.00000000000E+00 0. -1.
        -13    1    5    5    0    0 -0.67829729628E+02  0.16042219640E+03  0.33524527931E+02  0.17736980378E+03  0.00000000000E+00 0.  1.
          4    1    6    6  503    0 -0.38839363044E+02 -0.24591318454E+03 -0.11802233643E+03  0.27551962244E+03  0.00000000000E+00 0. -1.
         -4    1    6    6    0  503 -0.27388278154E+02 -0.50384279832E+03 -0.11457770025E+03  0.51743186276E+03  0.00000000000E+00 0.  1.
<mgrwt>
<rscale>  0 0.17544981E+04</rscale>
<asrwt>0</asrwt>
<pdfrwt beam="1">  1        1 0.20721918E+00 0.17544981E+04</pdfrwt>
<pdfrwt beam="2">  1       -2 0.87900059E-01 0.17544981E+04</pdfrwt>
<totfact> 0.77672430E+00</totfact>
</mgrwt>
</event>
<event>
12    5  0.5041746E-008  0.3597070E+04  0.7818608E-02  0.8091163E-01
         -2   -1    0    0    0  501 -0.00000000000E+00  0.00000000000E+00  0.26691734231E+04  0.26691734231E+04  0.00000000000E+00 0.  1.
          1   -1    0    0  501    0  0.00000000000E+00 -0.00000000000E+00 -0.12118835672E+04  0.12118835672E+04  0.00000000000E+00 0. -1.
        -24    2    1    2    0    0  0.83145718135E+03  0.11165779119E+04 -0.33941088353E+03  0.14351640560E+04  0.80180058863E+02 0.  0.
        254    2    1    2    0    0 -0.83145718135E+03 -0.11165779119E+04  0.17967007394E+04  0.24458929344E+04  0.90343313070E+03 0.  0.
         23    2    4    4    0    0 -0.39249019307E+03 -0.20565830477E+03  0.11660954440E+04  0.12506835869E+04  0.89927526371E+02 0.  0.
         23    2    4    4    0    0 -0.43896698829E+03 -0.91091960715E+03  0.63060529535E+03  0.11952093474E+04  0.91628588394E+02 0.  0.
          3    1    3    3  502    0  0.75299133117E+03  0.10463169965E+04 -0.31137832815E+03  0.13261718083E+04  0.00000000000E+00 0. -1.
         -4    1    3    3    0  502  0.78465850186E+02  0.70260915431E+02 -0.28032555377E+02  0.10899224763E+03  0.00000000000E+00 0.  1.
         13    1    5    5    0    0 -0.33840435609E+03 -0.17878846773E+03  0.90328147732E+03  0.98102000575E+03  0.00000000000E+00 0.  1.
        -13    1    5    5    0    0 -0.54085836974E+02 -0.26869837039E+02  0.26281396672E+03  0.26966358117E+03  0.00000000000E+00 0. -1.
          2    1    6    6  503    0 -0.11327056843E+03 -0.15887482475E+03  0.13840766397E+03  0.23922398094E+03  0.00000000000E+00 0. -1.
         -2    1    6    6    0  503 -0.32569641986E+03 -0.75204478240E+03  0.49219763138E+03  0.95598536651E+03  0.00000000000E+00 0.  1.
<mgrwt>
<rscale>  0 0.35970696E+04</rscale>
<asrwt>0</asrwt>
<pdfrwt beam="1">  1        1 0.18644363E+00 0.35970696E+04</pdfrwt>
<pdfrwt beam="2">  1       -2 0.41064206E+00 0.35970696E+04</pdfrwt>
<totfact> 0.46981947E-02</totfact>
</mgrwt>
</event>
<event>
12    5  0.5041746E-008  0.2517412E+04  0.7818608E-02  0.8396809E-01
          1   -1    0    0  501    0  0.00000000000E+00  0.00000000000E+00  0.16702250195E+04  0.16702250195E+04  0.00000000000E+00 0. -1.
         -2   -1    0    0    0  501 -0.00000000000E+00 -0.00000000000E+00 -0.94857931965E+03  0.94857931965E+03  0.00000000000E+00 0.  1.
        -24    2    1    2    0    0 -0.20385064398E+03  0.98823778378E+03 -0.15531840639E+03  0.10241185208E+04  0.80783258855E+02 0.  0.
        254    2    1    2    0    0  0.20385064398E+03 -0.98823778378E+03  0.87696410624E+03  0.15946858184E+04  0.86936057728E+03 0.  0.
         23    2    4    4    0    0  0.86790817203E+02 -0.14903963246E+03 -0.16040009656E+03  0.25265029321E+03  0.91424951131E+02 0.  0.
         23    2    4    4    0    0  0.11705982678E+03 -0.83919815131E+03  0.10373642028E+04  0.13420355252E+04  0.83536347218E+02 0.  0.
          1    1    3    3  502    0 -0.12139174748E+03  0.56483658248E+03 -0.12899841954E+03  0.59196022967E+03  0.00000000000E+00 0. -1.
         -2    1    3    3    0  502 -0.82458896496E+02  0.42340120129E+03 -0.26319986846E+02  0.43215829111E+03  0.00000000000E+00 0.  1.
         13    1    5    5    0    0  0.10180378813E+03 -0.12579688834E+03 -0.11169184894E+03  0.19663147640E+03  0.00000000000E+00 0.  1.
        -13    1    5    5    0    0 -0.15012970928E+02 -0.23242744125E+02 -0.48708247619E+02  0.56018816809E+02  0.00000000000E+00 0. -1.
          1    1    6    6  503    0 -0.86148504404E+01 -0.74693398063E+02  0.70728418287E+02  0.10322707259E+03  0.00000000000E+00 0. -1.
         -1    1    6    6    0  503  0.12567467722E+03 -0.76450475325E+03  0.96663578451E+03  0.12388084526E+04  0.00000000000E+00 0.  1.
<mgrwt>
<rscale>  0 0.25174121E+04</rscale>
<asrwt>0</asrwt>
<pdfrwt beam="1">  1        1 0.25695770E+00 0.25174121E+04</pdfrwt>
<pdfrwt beam="2">  1       -2 0.14593528E+00 0.25174121E+04</pdfrwt>
<totfact> 0.12538736E+00</totfact>
</mgrwt>
</event>
<event>
12    5  0.5041746E-008  0.1970269E+04  0.7818608E-02  0.8620648E-01
         -2   -1    0    0    0  501 -0.00000000000E+00  0.00000000000E+00  0.99039184574E+03  0.99039184574E+03  0.00000000000E+00 0.  1.
          1   -1    0    0  501    0  0.00000000000E+00 -0.00000000000E+00 -0.97990536360E+03  0.97990536360E+03  0.00000000000E+00 0. -1.
        -24    2    1    2    0    0  0.17310742936E+03  0.38226354472E+03  0.65477164431E+03  0.78130290569E+03  0.74944809810E+02 0.  0.
        254    2    1    2    0    0 -0.17310742936E+03 -0.38226354472E+03 -0.64428516217E+03  0.11889943036E+04  0.90692474009E+03 0.  0.
         23    2    4    4    0    0 -0.43220770656E+02  0.26038044500E+03 -0.39146272097E+03  0.47984468747E+03  0.85684602058E+02 0.  0.
         23    2    4    4    0    0 -0.12988665871E+03 -0.64264398972E+03 -0.25282244121E+03  0.70914961618E+03  0.95457580711E+02 0.  0.
          3    1    3    3  502    0  0.35688192916E+01  0.39153178991E+02  0.98863495343E+02  0.10639407224E+03  0.00000000000E+00 0. -1.
         -4    1    3    3    0  502  0.16953861007E+03  0.34311036573E+03  0.55590814897E+03  0.67490883345E+03  0.00000000000E+00 0.  1.
         13    1    5    5    0    0 -0.26944589375E+02  0.85337323628E+02 -0.70628570424E+02  0.11400379231E+03  0.00000000000E+00 0.  1.
        -13    1    5    5    0    0 -0.16276181282E+02  0.17504312137E+03 -0.32083415054E+03  0.36584089516E+03  0.00000000000E+00 0. -1.
          4    1    6    6  503    0 -0.13682639986E+03 -0.55487234352E+03 -0.19513831569E+03  0.60389050626E+03  0.00000000000E+00 0. -1.
         -4    1    6    6    0  503  0.69397411515E+01 -0.87771646202E+02 -0.57684125520E+02  0.10525910992E+03  0.00000000000E+00 0.  1.
<mgrwt>
<rscale>  0 0.19702693E+04</rscale>
<asrwt>0</asrwt>
<pdfrwt beam="1">  1        1 0.15075467E+00 0.19702693E+04</pdfrwt>
<pdfrwt beam="2">  1       -2 0.15236798E+00 0.19702693E+04</pdfrwt>
<totfact> 0.36759916E+00</totfact>
</mgrwt>
</event>
<event>
12    5  0.5041746E-008  0.1506837E+04  0.7818608E-02  0.8879919E-01
         -2   -1    0    0    0  501 -0.00000000000E+00  0.00000000000E+00  0.81080303617E+03  0.81080303617E+03  0.00000000000E+00 0.  1.
          1   -1    0    0  501    0  0.00000000000E+00 -0.00000000000E+00 -0.70009517479E+03  0.70009517479E+03  0.00000000000E+00 0. -1.
        -24    2    1    2    0    0 -0.40898980271E+03  0.14318677485E+03 -0.95610159966E+02  0.45083976866E+03  0.79624638772E+02 0.  0.
        254    2    1    2    0    0  0.40898980271E+03 -0.14318677485E+03  0.20631802135E+03  0.10600584423E+04  0.94518869225E+03 0.  0.
         23    2    4    4    0    0  0.14362937922E+03  0.21013702763E+03  0.46652364558E+03  0.53933100736E+03  0.91905683514E+02 0.  0.
         23    2    4    4    0    0  0.26536042350E+03 -0.35332380248E+03 -0.26020562423E+03  0.52072743495E+03  0.90533037467E+02 0.  0.
          3    1    3    3  502    0 -0.29575095026E+03  0.65316210721E+02 -0.73165962599E+02  0.31158961800E+03  0.00000000000E+00 0. -1.
         -4    1    3    3    0  502 -0.11323885245E+03  0.77870564126E+02 -0.22444197367E+02  0.13925015065E+03  0.00000000000E+00 0.  1.
         13    1    5    5    0    0  0.10217492058E+03  0.17898716363E+03  0.29299684812E+03  0.35822237807E+03  0.00000000000E+00 0. -1.
        -13    1    5    5    0    0  0.41454458635E+02  0.31149863996E+02  0.17352679746E+03  0.18110862929E+03  0.00000000000E+00 0.  1.
          1    1    6    6  503    0  0.10162230882E+03 -0.11110676725E+03 -0.13661013792E+03  0.20330798598E+03  0.00000000000E+00 0.  1.
         -1    1    6    6    0  503  0.16373811467E+03 -0.24221703522E+03 -0.12359548631E+03  0.31741944897E+03  0.00000000000E+00 0. -1.
<mgrwt>
<rscale>  0 0.15068368E+04</rscale>
<asrwt>0</asrwt>
<pdfrwt beam="1">  1        1 0.10770695E+00 0.15068368E+04</pdfrwt>
<pdfrwt beam="2">  1       -2 0.12473893E+00 0.15068368E+04</pdfrwt>
<totfact> 0.11111379E+01</totfact>
</mgrwt>
</event>
<event>
12    5  0.5041746E-008  0.2114692E+04  0.7818608E-02  0.8554799E-01
          1   -1    0    0  501    0  0.00000000000E+00  0.00000000000E+00  0.36131477784E+04  0.36131477784E+04  0.00000000000E+00 0. -1.
         -2   -1    0    0    0  501 -0.00000000000E+00 -0.00000000000E+00 -0.30942006407E+03  0.30942006407E+03  0.00000000000E+00 0.  1.
        -24    2    1    2    0    0 -0.44943023345E+03  0.73801901442E+03  0.12985870620E+04  0.15618475369E+04  0.79873464927E+02 0.  0.
        254    2    1    2    0    0  0.44943023345E+03 -0.73801901442E+03  0.20051406523E+04  0.23607203056E+04  0.89763674461E+03 0.  0.
         23    2    4    4    0    0  0.23178309209E+03 -0.56940164266E+02  0.13891234200E+04  0.14123825780E+04  0.90526717667E+02 0.  0.
         23    2    4    4    0    0  0.21764714136E+03 -0.68107885016E+03  0.61601723229E+03  0.94833772755E+03  0.92889917352E+02 0.  0.
          3    1    3    3  502    0 -0.69814078562E+02  0.16738794398E+03  0.24141246801E+03  0.30194818938E+03  0.00000000000E+00 0. -1.
         -4    1    3    3    0  502 -0.37961615489E+03  0.57063107044E+03  0.10571745940E+04  0.12598993475E+04  0.00000000000E+00 0.  1.
         13    1    5    5    0    0  0.93014875400E+02  0.17676511949E+02  0.63063295890E+03  0.63770067820E+03  0.00000000000E+00 0.  1.
        -13    1    5    5    0    0  0.13876821669E+03 -0.74616676215E+02  0.75849046110E+03  0.77468189982E+03  0.00000000000E+00 0. -1.
          3    1    6    6  503    0  0.14015531423E+03 -0.55910724464E+03  0.49897683855E+03  0.76237937310E+03  0.00000000000E+00 0. -1.
         -3    1    6    6    0  503  0.77491827126E+02 -0.12197160551E+03  0.11704039374E+03  0.18595835445E+03  0.00000000000E+00 0.  1.
<mgrwt>
<rscale>  0 0.21146919E+04</rscale>
<asrwt>0</asrwt>
<pdfrwt beam="1">  1        1 0.55586886E+00 0.21146919E+04</pdfrwt>
<pdfrwt beam="2">  1       -2 0.47603089E-01 0.21146919E+04</pdfrwt>
<totfact> 0.68798514E-01</totfact>
</mgrwt>
</event>
<event>
12    5  0.5041746E-008  0.1110744E+04  0.7818608E-02  0.9194783E-01
          1   -1    0    0  501    0  0.00000000000E+00  0.00000000000E+00  0.20448651183E+04  0.20448651183E+04  0.00000000000E+00 0. -1.
         -2   -1    0    0    0  501 -0.00000000000E+00 -0.00000000000E+00 -0.15083534446E+03  0.15083534446E+03  0.00000000000E+00 0.  1.
        -24    2    1    2    0    0  0.94559009979E+02  0.64950360126E+02  0.67080752998E+03  0.68523483039E+03  0.80025463817E+02 0.  0.
        254    2    1    2    0    0 -0.94559009979E+02 -0.64950360126E+02  0.12232222438E+04  0.15104656323E+04  0.87867730881E+03 0.  0.
         23    2    4    4    0    0  0.35172451450E+03 -0.69091871198E+02  0.82897983735E+03  0.90794192922E+03  0.93097558160E+02 0.  0.
         23    2    4    4    0    0 -0.44628352448E+03  0.41415110717E+01  0.39424240648E+03  0.60252370312E+03  0.91769283614E+02 0.  0.
          1    1    3    3  502    0  0.10847605266E+03  0.63939022528E+02  0.60364641364E+03  0.61663947757E+03  0.00000000000E+00 0. -1.
         -2    1    3    3    0  502 -0.13917042677E+02  0.10113375980E+01  0.67161116338E+02  0.68595352819E+02  0.00000000000E+00 0.  1.
         13    1    5    5    0    0  0.54329640266E+02 -0.14578672895E+01  0.22315629847E+03  0.22967927363E+03  0.00000000000E+00 0. -1.
        -13    1    5    5    0    0  0.29739487423E+03 -0.67634003909E+02  0.60582353888E+03  0.67826265559E+03  0.00000000000E+00 0.  1.
          1    1    6    6  503    0 -0.60917063206E+02  0.91426460734E+00  0.17031900006E+02  0.63259861581E+02  0.00000000000E+00 0. -1.
         -1    1    6    6    0  503 -0.38536646127E+03  0.32272464643E+01  0.37721050647E+03  0.53926384153E+03  0.00000000000E+00 0.  1.
<mgrwt>
<rscale>  0 0.11107438E+04</rscale>
<asrwt>0</asrwt>
<pdfrwt beam="1">  1        1 0.31459461E+00 0.11107438E+04</pdfrwt>
<pdfrwt beam="2">  1       -2 0.23205439E-01 0.11107438E+04</pdfrwt>
<totfact> 0.39983501E+01</totfact>
</mgrwt>
</event>
<event>
12    5  0.5041746E-008  0.2586892E+04  0.7818608E-02  0.8372667E-01
          1   -1    0    0  501    0  0.00000000000E+00  0.00000000000E+00  0.24884944230E+04  0.24884944230E+04  0.00000000000E+00 0. -1.
         -2   -1    0    0    0  501 -0.00000000000E+00 -0.00000000000E+00 -0.67229507867E+03  0.67229507867E+03  0.00000000000E+00 0.  1.
        -24    2    1    2    0    0 -0.49504356932E+03  0.52973292926E+03  0.19049781341E+04  0.20398031515E+04  0.78549944191E+02 0.  0.
        254    2    1    2    0    0  0.49504356932E+03 -0.52973292926E+03 -0.88778789799E+02  0.11209863501E+04  0.85031971149E+03 0.  0.
         23    2    4    4    0    0  0.69034024550E+03 -0.50263137905E+03  0.55924554871E+02  0.86024878569E+03  0.87706668374E+02 0.  0.
         23    2    4    4    0    0 -0.19529667618E+03 -0.27101550204E+02 -0.14470334467E+03  0.26073756442E+03  0.90386579703E+02 0.  0.
          3    1    3    3  502    0 -0.45471590659E+03  0.48701828749E+03  0.16806179973E+04  0.18078800350E+04  0.00000000000E+00 0. -1.
         -4    1    3    3    0  502 -0.40327662737E+02  0.42714641768E+02  0.22436013682E+03  0.23192311656E+03  0.00000000000E+00 0.  1.
         13    1    5    5    0    0  0.57809032082E+03 -0.38217494375E+03  0.30703159545E+02  0.69367772825E+03  0.00000000000E+00 0.  1.
        -13    1    5    5    0    0  0.11224992468E+03 -0.12045643530E+03  0.25221395326E+02  0.16657105744E+03  0.00000000000E+00 0. -1.
          4    1    6    6  503    0 -0.15319387389E+03 -0.30243239317E+02 -0.62245953889E+02  0.16809989678E+03  0.00000000000E+00 0. -1.
         -4    1    6    6    0  503 -0.42102802287E+02  0.31416891132E+01 -0.82457390781E+02  0.92637667637E+02  0.00000000000E+00 0.  1.
<mgrwt>
<rscale>  0 0.25868920E+04</rscale>
<asrwt>0</asrwt>
<pdfrwt beam="1">  1        1 0.38284529E+00 0.25868920E+04</pdfrwt>
<pdfrwt beam="2">  1       -2 0.10343001E+00 0.25868920E+04</pdfrwt>
<totfact> 0.81510233E-01</totfact>
</mgrwt>
</event>
<event>
12    5  0.5041746E-008  0.1680519E+04  0.7818608E-02  0.8772554E-01
          1   -1    0    0  501    0  0.00000000000E+00  0.00000000000E+00  0.94196626339E+03  0.94196626339E+03  0.00000000000E+00 0. -1.
         -2   -1    0    0    0  501 -0.00000000000E+00 -0.00000000000E+00 -0.74953457714E+03  0.74953457714E+03  0.00000000000E+00 0.  1.
        -24    2    1    2    0    0  0.58558468525E+03 -0.18588210159E+02  0.22574403177E+03  0.63291054652E+03  0.79752409725E+02 0.  0.
        254    2    1    2    0    0 -0.58558468525E+03  0.18588210159E+02 -0.33312345521E+02  0.10585902940E+04  0.88104980168E+03 0.  0.
         23    2    4    4    0    0  0.18049764229E+03  0.48710615477E+02  0.16011557882E+03  0.26267730473E+03  0.91707387421E+02 0.  0.
         23    2    4    4    0    0 -0.76608232754E+03 -0.30122405318E+02 -0.19342792434E+03  0.79591298928E+03  0.90959511409E+02 0.  0.
          3    1    3    3  502    0  0.31258337909E+03 -0.48474038354E+02  0.11026512552E+03  0.33498731198E+03  0.00000000000E+00 0. -1.
         -4    1    3    3    0  502  0.27300130616E+03  0.29885828195E+02  0.11547890625E+03  0.29792323454E+03  0.00000000000E+00 0.  1.
         13    1    5    5    0    0 -0.99534857030E+01  0.31368892153E+01  0.17669918754E+02  0.20521646629E+02  0.00000000000E+00 0.  1.
        -13    1    5    5    0    0  0.19045112799E+03  0.45573726262E+02  0.14244566006E+03  0.24215565810E+03  0.00000000000E+00 0. -1.
          4    1    6    6  503    0 -0.21448195974E+03 -0.49148536529E+02 -0.49915009370E+02  0.22563155333E+03  0.00000000000E+00 0.  1.
         -4    1    6    6    0  503 -0.55160036780E+03  0.19026131211E+02 -0.14351291497E+03  0.57028143595E+03  0.00000000000E+00 0. -1.
<mgrwt>
<rscale>  0 0.16805193E+04</rscale>
<asrwt>0</asrwt>
<pdfrwt beam="1">  1        1 0.14491789E+00 0.16805193E+04</pdfrwt>
<pdfrwt beam="2">  1       -2 0.11531301E+00 0.16805193E+04</pdfrwt>
<totfact> 0.82315685E+00</totfact>
</mgrwt>
</event>
<event>
12    5  0.5041746E-008  0.1666220E+04  0.7818608E-02  0.8780868E-01
          1   -1    0    0  501    0  0.00000000000E+00  0.00000000000E+00  0.27892630228E+04  0.27892630228E+04  0.00000000000E+00 0. -1.
         -2   -1    0    0    0  501 -0.00000000000E+00 -0.00000000000E+00 -0.24883712267E+03  0.24883712267E+03  0.00000000000E+00 0.  1.
        -24    2    1    2    0    0  0.19852759227E+03 -0.26783564702E+03  0.23519075337E+02  0.34339436732E+03  0.78850528811E+02 0.  0.
        254    2    1    2    0    0 -0.19852759227E+03  0.26783564702E+03  0.25169068248E+04  0.26947057781E+04  0.90303384617E+03 0.  0.
         23    2    4    4    0    0  0.44510044234E+02 -0.26316242215E+03  0.14240119633E+04  0.14519801388E+04  0.95920004523E+02 0.  0.
         23    2    4    4    0    0 -0.24303763651E+03  0.53099806918E+03  0.10928948615E+04  0.12427256394E+04  0.94454191313E+02 0.  0.
          3    1    3    3  502    0  0.76544718023E+02 -0.89588186859E+02  0.45442413649E+02  0.12629390342E+03  0.00000000000E+00 0. -1.
         -4    1    3    3    0  502  0.12198287425E+03 -0.17824746017E+03 -0.21923338312E+02  0.21710046391E+03  0.00000000000E+00 0.  1.
         13    1    5    5    0    0 -0.15806652715E+01 -0.11854825406E+03  0.85048536921E+03  0.85870923500E+03  0.00000000000E+00 0. -1.
        -13    1    5    5    0    0  0.46090709505E+02 -0.14461416810E+03  0.57352659410E+03  0.59327090377E+03  0.00000000000E+00 0.  1.
          1    1    6    6  503    0 -0.62604792546E+02  0.70716396974E+02  0.13475555853E+03  0.16455767805E+03  0.00000000000E+00 0. -1.
         -1    1    6    6    0  503 -0.18043284396E+03  0.46028167220E+03  0.95813930296E+03  0.10781679613E+04  0.00000000000E+00 0.  1.
<mgrwt>
<rscale>  0 0.16662199E+04</rscale>
<asrwt>0</asrwt>
<pdfrwt beam="1">  1        1 0.42911737E+00 0.16662199E+04</pdfrwt>
<pdfrwt beam="2">  1       -2 0.38282636E-01 0.16662199E+04</pdfrwt>
<totfact> 0.45944838E+00</totfact>
</mgrwt>
</event>
<event>
12    5  0.5041746E-008  0.1693292E+04  0.7818608E-02  0.8765200E-01
         -2   -1    0    0    0  501 -0.00000000000E+00  0.00000000000E+00  0.93033708962E+03  0.93033708962E+03  0.00000000000E+00 0.  1.
          1   -1    0    0  501    0  0.00000000000E+00 -0.00000000000E+00 -0.77048325375E+03  0.77048325375E+03  0.00000000000E+00 0. -1.
        -24    2    1    2    0    0  0.10779381803E+03 -0.25768562484E+03  0.57553609235E+03  0.64490032744E+03  0.81444768269E+02 0.  0.
        254    2    1    2    0    0 -0.10779381803E+03  0.25768562484E+03 -0.41568225649E+03  0.10559200159E+04  0.92959881305E+03 0.  0.
         23    2    4    4    0    0 -0.33937456532E+03  0.49813368888E+03 -0.17618798667E+03  0.63514411058E+03  0.95150233723E+02 0.  0.
         23    2    4    4    0    0  0.23158074729E+03 -0.24044806404E+03 -0.23949426981E+03  0.42077590535E+03  0.90829198155E+02 0.  0.
          1    1    3    3  502    0  0.87050309028E+02 -0.18024612350E+03  0.32348207963E+03  0.38040383434E+03  0.00000000000E+00 0. -1.
         -2    1    3    3    0  502  0.20743509004E+02 -0.77439501342E+02  0.25205401272E+03  0.26449649310E+03  0.00000000000E+00 0.  1.
         13    1    5    5    0    0 -0.17219640757E+03  0.32423735803E+03 -0.13051644794E+03  0.38963574053E+03  0.00000000000E+00 0.  1.
        -13    1    5    5    0    0 -0.16717815775E+03  0.17389633085E+03 -0.45671538738E+02  0.24550837005E+03  0.00000000000E+00 0. -1.
          1    1    6    6  503    0  0.94957251326E+02 -0.47067487521E+02 -0.10138122095E+03  0.14666417395E+03  0.00000000000E+00 0. -1.
         -1    1    6    6    0  503  0.13662349596E+03 -0.19338057652E+03 -0.13811304887E+03  0.27411173140E+03  0.00000000000E+00 0.  1.
<mgrwt>
<rscale>  0 0.16932916E+04</rscale>
<asrwt>0</asrwt>
<pdfrwt beam="1">  1        1 0.11853588E+00 0.16932916E+04</pdfrwt>
<pdfrwt beam="2">  1       -2 0.14312878E+00 0.16932916E+04</pdfrwt>
<totfact> 0.66353741E+00</totfact>
</mgrwt>
</event>
<event>
12    5  0.5041746E-008  0.2371325E+04  0.7818608E-02  0.8450318E-01
         -2   -1    0    0    0  501 -0.00000000000E+00  0.00000000000E+00  0.13706722624E+04  0.13706722624E+04  0.00000000000E+00 0.  1.
          1   -1    0    0  501    0  0.00000000000E+00 -0.00000000000E+00 -0.10256247100E+04  0.10256247100E+04  0.00000000000E+00 0. -1.
        -24    2    1    2    0    0  0.23708862155E+03  0.32273836298E+03 -0.79293284842E+03  0.89355470735E+03  0.96573534257E+02 0.  0.
        254    2    1    2    0    0 -0.23708862155E+03 -0.32273836298E+03  0.11379804008E+04  0.15027422650E+04  0.89602670555E+03 0.  0.
         23    2    4    4    0    0  0.24539319758E+03 -0.43050676686E+01  0.76280922982E+03  0.80644279480E+03  0.90750785958E+02 0.  0.
         23    2    4    4    0    0 -0.48248181913E+03 -0.31843329531E+03  0.37517117100E+03  0.69629947024E+03  0.99453885522E+02 0.  0.
          1    1    3    3  502    0  0.19668319258E+03  0.22308599126E+03 -0.64889935439E+03  0.71380810437E+03  0.00000000000E+00 0. -1.
         -2    1    3    3    0  502  0.40405428962E+02  0.99652371723E+02 -0.14403349403E+03  0.17974660298E+03  0.00000000000E+00 0.  1.
         13    1    5    5    0    0  0.16937940424E+03 -0.44776659348E+02  0.53087367194E+03  0.55903594461E+03  0.00000000000E+00 0.  1.
        -13    1    5    5    0    0  0.76013793346E+02  0.40471591680E+02  0.23193555788E+03  0.24740685019E+03  0.00000000000E+00 0. -1.
          3    1    6    6  503    0 -0.10120981651E+03 -0.31201946604E+02  0.98077243087E+02  0.14434726891E+03  0.00000000000E+00 0.  1.
         -3    1    6    6    0  503 -0.38127200262E+03 -0.28723134871E+03  0.27709392791E+03  0.55195220133E+03  0.00000000000E+00 0. -1.
<mgrwt>
<rscale>  0 0.23713248E+04</rscale>
<asrwt>0</asrwt>
<pdfrwt beam="1">  1        1 0.15778842E+00 0.23713248E+04</pdfrwt>
<pdfrwt beam="2">  1       -2 0.21087266E+00 0.23713248E+04</pdfrwt>
<totfact> 0.12867990E+00</totfact>
</mgrwt>
</event>
<event>
12    5  0.5041746E-008  0.2209998E+04  0.7818608E-02  0.8514278E-01
          1   -1    0    0  501    0  0.00000000000E+00  0.00000000000E+00  0.13645424937E+04  0.13645424937E+04  0.00000000000E+00 0. -1.
         -2   -1    0    0    0  501 -0.00000000000E+00 -0.00000000000E+00 -0.89482217330E+03  0.89482217330E+03  0.00000000000E+00 0.  1.
        -24    2    1    2    0    0  0.10032607685E+03 -0.37327225517E+03  0.10482479190E+04  0.11224554962E+04  0.10809784060E+03 0.  0.
        254    2    1    2    0    0 -0.10032607685E+03  0.37327225517E+03 -0.57852759859E+03  0.11369091708E+04  0.89915003314E+03 0.  0.
         23    2    4    4    0    0  0.25365961584E+02 -0.10245635169E+03  0.18037374331E+03  0.22800224710E+03  0.91157015075E+02 0.  0.
         23    2    4    4    0    0 -0.12569203843E+03  0.47572860686E+03 -0.75890134190E+03  0.90890692369E+03  0.89801744302E+02 0.  0.
          1    1    3    3  502    0  0.10217639559E+03 -0.37255696768E+03  0.96879322176E+03  0.10429760383E+04  0.00000000000E+00 0. -1.
         -2    1    3    3    0  502 -0.18503187419E+01 -0.71528749132E+00  0.79454697207E+02  0.79479457874E+02  0.00000000000E+00 0.  1.
         13    1    5    5    0    0  0.29622596823E+02  0.54706747563E+00  0.15206010197E+02  0.33301955971E+02  0.00000000000E+00 0.  1.
        -13    1    5    5    0    0 -0.42566352397E+01 -0.10300341916E+03  0.16516773311E+03  0.19470029113E+03  0.00000000000E+00 0. -1.
          4    1    6    6  503    0 -0.12583224929E+03  0.39290733464E+03 -0.67440369144E+03  0.79058855772E+03  0.00000000000E+00 0. -1.
         -4    1    6    6    0  503  0.14021086213E+00  0.82821272217E+02 -0.84497650460E+02  0.11831836596E+03  0.00000000000E+00 0.  1.
<mgrwt>
<rscale>  0 0.22099981E+04</rscale>
<asrwt>0</asrwt>
<pdfrwt beam="1">  1        1 0.20992961E+00 0.22099981E+04</pdfrwt>
<pdfrwt beam="2">  1       -2 0.13766495E+00 0.22099981E+04</pdfrwt>
<totfact> 0.24411420E+00</totfact>
</mgrwt>
</event>
<event>
12    5  0.5041746E-008  0.1400259E+04  0.7818608E-02  0.8953631E-01
         -2   -1    0    0    0  501 -0.00000000000E+00  0.00000000000E+00  0.34109486774E+03  0.34109486774E+03  0.00000000000E+00 0.  1.
          1   -1    0    0  501    0  0.00000000000E+00 -0.00000000000E+00 -0.14370822602E+04  0.14370822602E+04  0.00000000000E+00 0. -1.
        -24    2    1    2    0    0 -0.38650978374E+03 -0.13154220174E+03 -0.39311794918E+03  0.57298939103E+03  0.84154361091E+02 0.  0.
        254    2    1    2    0    0  0.38650978374E+03  0.13154220174E+03 -0.70286944332E+03  0.12051877370E+04  0.88980832946E+03 0.  0.
         23    2    4    4    0    0  0.15861554390E+03  0.31058790467E+03 -0.80630833900E+03  0.88372269174E+03  0.95963123449E+02 0.  0.
         23    2    4    4    0    0  0.22789423984E+03 -0.17904570294E+03  0.10343889568E+03  0.32146504521E+03  0.92989364227E+02 0.  0.
          3    1    3    3  502    0 -0.33110323898E+03 -0.13925656728E+03 -0.32108514202E+03  0.48178565236E+03  0.00000000000E+00 0. -1.
         -4    1    3    3    0  502 -0.55406544763E+02  0.77143655491E+01 -0.72032807167E+02  0.91203738667E+02  0.00000000000E+00 0.  1.
         13    1    5    5    0    0 -0.37641416972E+01  0.74101310170E+02 -0.14522692385E+03  0.16308290022E+03  0.00000000000E+00 0.  1.
        -13    1    5    5    0    0  0.16237968560E+03  0.23648659450E+03 -0.66108141515E+03  0.72063979153E+03  0.00000000000E+00 0. -1.
          2    1    6    6  503    0  0.78403305701E+02 -0.10281415235E+03  0.79960548443E+02  0.15202472686E+03  0.00000000000E+00 0. -1.
         -2    1    6    6    0  503  0.14949093414E+03 -0.76231550583E+02  0.23478347241E+02  0.16944031835E+03  0.00000000000E+00 0.  1.
<mgrwt>
<rscale>  0 0.14002591E+04</rscale>
<asrwt>0</asrwt>
<pdfrwt beam="1">  1        1 0.22108958E+00 0.14002591E+04</pdfrwt>
<pdfrwt beam="2">  1       -2 0.52476134E-01 0.14002591E+04</pdfrwt>
<totfact> 0.21212742E+01</totfact>
</mgrwt>
</event>
<event>
12    5  0.5041746E-008  0.2410525E+04  0.7818608E-02  0.8435574E-01
         -2   -1    0    0    0  501 -0.00000000000E+00  0.00000000000E+00  0.11774325007E+04  0.11774325007E+04  0.00000000000E+00 0.  1.
          1   -1    0    0  501    0  0.00000000000E+00 -0.00000000000E+00 -0.12337498062E+04  0.12337498062E+04  0.00000000000E+00 0. -1.
        -24    2    1    2    0    0  0.87568546966E+03  0.28038640341E+03 -0.49815060858E+03  0.10487810111E+04  0.79661806968E+02 0.  0.
        254    2    1    2    0    0 -0.87568546966E+03 -0.28038640341E+03  0.44183330307E+03  0.13624012957E+04  0.90303878429E+03 0.  0.
         23    2    4    4    0    0 -0.84699087161E+03 -0.15675486153E+03 -0.28306590535E+02  0.86651253901E+03  0.89872654299E+02 0.  0.
         23    2    4    4    0    0 -0.28694598050E+02 -0.12363154188E+03  0.47013989360E+03  0.49588875673E+03  0.93626926597E+02 0.  0.
          1    1    3    3  502    0  0.20784675153E+03  0.79044533816E+02 -0.15762515784E+03  0.27256925878E+03  0.00000000000E+00 0. -1.
         -2    1    3    3    0  502  0.66783871813E+03  0.20134186960E+03 -0.34052545073E+03  0.77621175234E+03  0.00000000000E+00 0.  1.
         13    1    5    5    0    0 -0.48672501839E+01  0.31899439414E+01 -0.69548712750E+01  0.90684122731E+01  0.00000000000E+00 0.  1.
        -13    1    5    5    0    0 -0.84212362142E+03 -0.15994480547E+03 -0.21351719260E+02  0.85744412674E+03  0.00000000000E+00 0. -1.
          1    1    6    6  503    0 -0.19583348205E+02 -0.13237053629E+03  0.34384716386E+03  0.36896658182E+03  0.00000000000E+00 0.  1.
         -1    1    6    6    0  503 -0.91112498449E+01  0.87389944081E+01  0.12629272974E+03  0.12692217490E+03  0.00000000000E+00 0. -1.
<mgrwt>
<rscale>  0 0.24105245E+04</rscale>
<asrwt>0</asrwt>
<pdfrwt beam="1">  1        1 0.18980766E+00 0.24105245E+04</pdfrwt>
<pdfrwt beam="2">  1       -2 0.18114346E+00 0.24105245E+04</pdfrwt>
<totfact> 0.14124131E+00</totfact>
</mgrwt>
</event>
<event>
12    5  0.5041746E-008  0.1746920E+04  0.7818608E-02  0.8735047E-01
         -2   -1    0    0    0  501 -0.00000000000E+00  0.00000000000E+00  0.40609078153E+03  0.40609078153E+03  0.00000000000E+00 0.  1.
          1   -1    0    0  501    0  0.00000000000E+00 -0.00000000000E+00 -0.18787244151E+04  0.18787244151E+04  0.00000000000E+00 0. -1.
        -24    2    1    2    0    0 -0.43004738004E+03 -0.33916980173E+03 -0.95597730413E+03  0.11044434860E+04  0.76979895772E+02 0.  0.
        254    2    1    2    0    0  0.43004738004E+03  0.33916980173E+03 -0.51665632942E+03  0.11803717106E+04  0.90904714338E+03 0.  0.
         23    2    4    4    0    0  0.64276204023E+03  0.52544993347E+01 -0.25677180276E+03  0.69805185446E+03  0.90410080736E+02 0.  0.
         23    2    4    4    0    0 -0.21271466019E+03  0.33391530239E+03 -0.25988452665E+03  0.48231985610E+03  0.91353820754E+02 0.  0.
          1    1    3    3  502    0 -0.30225740781E+03 -0.24474494947E+03 -0.60571199392E+03  0.71982404131E+03  0.00000000000E+00 0. -1.
         -2    1    3    3    0  502 -0.12778997223E+03 -0.94424852255E+02 -0.35026531020E+03  0.38461944472E+03  0.00000000000E+00 0.  1.
         13    1    5    5    0    0  0.38010946794E+03 -0.33448349948E+02 -0.17850219034E+03  0.42126598686E+03  0.00000000000E+00 0.  1.
        -13    1    5    5    0    0  0.26265257229E+03  0.38702849283E+02 -0.78269612424E+02  0.27678586760E+03  0.00000000000E+00 0. -1.
          1    1    6    6  503    0 -0.10467304946E+03  0.10356051765E+03 -0.13109687328E+03  0.19714872123E+03  0.00000000000E+00 0. -1.
         -1    1    6    6    0  503 -0.10804161073E+03  0.23035478474E+03 -0.12878765337E+03  0.28517113488E+03  0.00000000000E+00 0.  1.
<mgrwt>
<rscale>  0 0.17469203E+04</rscale>
<asrwt>0</asrwt>
<pdfrwt beam="1">  1        1 0.28903454E+00 0.17469203E+04</pdfrwt>
<pdfrwt beam="2">  1       -2 0.62475503E-01 0.17469203E+04</pdfrwt>
<totfact> 0.71242438E+00</totfact>
</mgrwt>
</event>
<event>
12    5  0.5041746E-008  0.2078917E+04  0.7818608E-02  0.8570588E-01
          1   -1    0    0  501    0  0.00000000000E+00  0.00000000000E+00  0.10157377232E+04  0.10157377232E+04  0.00000000000E+00 0. -1.
         -2   -1    0    0    0  501 -0.00000000000E+00 -0.00000000000E+00 -0.10637335795E+04  0.10637335795E+04  0.00000000000E+00 0.  1.
        -24    2    1    2    0    0  0.75793440647E+03 -0.31527913429E+03  0.18584861587E+03  0.84543475049E+03  0.79716449225E+02 0.  0.
        254    2    1    2    0    0 -0.75793440647E+03  0.31527913429E+03 -0.23384447216E+03  0.12340365522E+04  0.89123368308E+03 0.  0.
         23    2    4    4    0    0 -0.45792407604E+03  0.17219108189E+03 -0.56745341611E+03  0.75477001939E+03  0.91269790294E+02 0.  0.
         23    2    4    4    0    0 -0.30001033044E+03  0.14308805241E+03  0.33360894395E+03  0.47926653276E+03  0.89000521547E+02 0.  0.
          1    1    3    3  502    0  0.58565156708E+03 -0.27694532829E+03  0.15715547954E+03  0.66662157004E+03  0.00000000000E+00 0. -1.
         -2    1    3    3    0  502  0.17228283939E+03 -0.38333806002E+02  0.28693136328E+02  0.17881318045E+03  0.00000000000E+00 0.  1.
         13    1    5    5    0    0 -0.28287826732E+03  0.12330310386E+03 -0.41741976829E+03  0.51909828790E+03  0.00000000000E+00 0. -1.
        -13    1    5    5    0    0 -0.17504580871E+03  0.48887978029E+02 -0.15003364782E+03  0.23567173149E+03  0.00000000000E+00 0.  1.
          4    1    6    6  503    0 -0.18925888296E+03  0.47852700509E+02  0.16016889717E+03  0.25251313104E+03  0.00000000000E+00 0. -1.
         -4    1    6    6    0  503 -0.11075144748E+03  0.95235351897E+02  0.17344004677E+03  0.22675340172E+03  0.00000000000E+00 0.  1.
<mgrwt>
<rscale>  0 0.20789173E+04</rscale>
<asrwt>0</asrwt>
<pdfrwt beam="1">  1        1 0.15626734E+00 0.20789173E+04</pdfrwt>
<pdfrwt beam="2">  1       -2 0.16365132E+00 0.20789173E+04</pdfrwt>
<totfact> 0.28133997E+00</totfact>
</mgrwt>
</event>
<event>
12    5  0.5041746E-008  0.1319168E+04  0.7818608E-02  0.9014502E-01
         -2   -1    0    0    0  501 -0.00000000000E+00  0.00000000000E+00  0.54317027153E+03  0.54317027153E+03  0.00000000000E+00 0.  1.
          1   -1    0    0  501    0  0.00000000000E+00 -0.00000000000E+00 -0.80094756888E+03  0.80094756888E+03  0.00000000000E+00 0. -1.
        -24    2    1    2    0    0 -0.42814527824E+02 -0.29128291015E+03 -0.25288611638E+03  0.39629398255E+03  0.80116884659E+02 0.  0.
        254    2    1    2    0    0  0.42814527824E+02  0.29128291015E+03 -0.48911809769E+01  0.94782385787E+03  0.90092581512E+03 0.  0.
         23    2    4    4    0    0  0.45683911265E+03  0.17817244124E+03 -0.68166715956E+02  0.50394057793E+03  0.94138256072E+02 0.  0.
         23    2    4    4    0    0 -0.41402458482E+03  0.11311046891E+03  0.63275534979E+02  0.44388327994E+03  0.93905473047E+02 0.  0.
          3    1    3    3  502    0 -0.48041483779E+02 -0.21364700340E+03 -0.22410355723E+03  0.31332958780E+03  0.00000000000E+00 0. -1.
         -4    1    3    3    0  502  0.52269559544E+01 -0.77635906749E+02 -0.28782559152E+02  0.82964394753E+02  0.00000000000E+00 0.  1.
         13    1    5    5    0    0  0.45519011692E+03  0.18437546016E+03 -0.61950327701E+02  0.49500524841E+03  0.00000000000E+00 0. -1.
        -13    1    5    5    0    0  0.16489957218E+01 -0.62030189178E+01 -0.62163882552E+01  0.89353295140E+01  0.00000000000E+00 0.  1.
          3    1    6    6  503    0 -0.41776829845E+03  0.10846147308E+03  0.57244217206E+02  0.43539768343E+03  0.00000000000E+00 0. -1.
         -3    1    6    6    0  503  0.37437136316E+01  0.46489958284E+01  0.60313177730E+01  0.84855965051E+01  0.00000000000E+00 0.  1.
<mgrwt>
<rscale>  0 0.13191678E+04</rscale>
<asrwt>0</asrwt>
<pdfrwt beam="1">  1        1 0.12322270E+00 0.13191678E+04</pdfrwt>
<pdfrwt beam="2">  1       -2 0.83564658E-01 0.13191678E+04</pdfrwt>
<totfact> 0.23761386E+01</totfact>
</mgrwt>
</event>
<event>
12    5  0.5041746E-008  0.1597532E+04  0.7818608E-02  0.8822065E-01
          1   -1    0    0  501    0  0.00000000000E+00  0.00000000000E+00  0.72592345186E+03  0.72592345186E+03  0.00000000000E+00 0. -1.
         -2   -1    0    0    0  501 -0.00000000000E+00 -0.00000000000E+00 -0.87891840737E+03  0.87891840737E+03  0.00000000000E+00 0.  1.
        -24    2    1    2    0    0 -0.22022643845E+03  0.33129228589E+03  0.32096492966E+03  0.51718326617E+03  0.78776784999E+02 0.  0.
        254    2    1    2    0    0  0.22022643845E+03 -0.33129228589E+03 -0.47395988516E+03  0.10876585931E+04  0.89448811028E+03 0.  0.
         23    2    4    4    0    0  0.58900660986E+02 -0.36363514911E+03 -0.69844399962E+03  0.79474153039E+03  0.89945928142E+02 0.  0.
         23    2    4    4    0    0  0.16132577747E+03  0.32342863224E+02  0.22448411445E+03  0.29291706268E+03  0.91297429799E+02 0.  0.
          3    1    3    3  502    0 -0.22313544313E+03  0.31586029059E+03  0.31907891309E+03  0.50136663424E+03  0.00000000000E+00 0. -1.
         -4    1    3    3    0  502  0.29090046776E+01  0.15431995297E+02  0.18860165673E+01  0.15816631928E+02  0.00000000000E+00 0.  1.
         13    1    5    5    0    0  0.31352283593E+02 -0.33116959642E+03 -0.57664165942E+03  0.66571155214E+03  0.00000000000E+00 0.  1.
        -13    1    5    5    0    0  0.27548377393E+02 -0.32465552695E+02 -0.12180234019E+03  0.12902997824E+03  0.00000000000E+00 0. -1.
          3    1    6    6  503    0  0.68411812441E+01 -0.17000521761E+02  0.56614802005E+02  0.59506766901E+02  0.00000000000E+00 0. -1.
         -3    1    6    6    0  503  0.15448459622E+03  0.49343384984E+02  0.16786931245E+03  0.23341029577E+03  0.00000000000E+00 0.  1.
<mgrwt>
<rscale>  0 0.15975325E+04</rscale>
<asrwt>0</asrwt>
<pdfrwt beam="1">  1        1 0.11168053E+00 0.15975325E+04</pdfrwt>
<pdfrwt beam="2">  1       -2 0.13521822E+00 0.15975325E+04</pdfrwt>
<totfact> 0.85048528E+00</totfact>
</mgrwt>
</event>
<event>
12    5  0.5041746E-008  0.2341582E+04  0.7818608E-02  0.8461704E-01
         -2   -1    0    0    0  501 -0.00000000000E+00  0.00000000000E+00  0.17757813933E+04  0.17757813933E+04  0.00000000000E+00 0.  1.
          1   -1    0    0  501    0  0.00000000000E+00 -0.00000000000E+00 -0.77191485242E+03  0.77191485242E+03  0.00000000000E+00 0. -1.
        -24    2    1    2    0    0 -0.53101265678E+03  0.43228331212E+03 -0.35841184743E+03  0.77707912088E+03  0.80929624529E+02 0.  0.
        254    2    1    2    0    0  0.53101265678E+03 -0.43228331212E+03  0.13622783883E+04  0.17706171249E+04  0.90024401799E+03 0.  0.
         23    2    4    4    0    0  0.59069756747E+02  0.22060805338E+03  0.94655788384E+02  0.26590190496E+03  0.97912999187E+02 0.  0.
         23    2    4    4    0    0  0.47194290003E+03 -0.65289136550E+03  0.12676226000E+04  0.15047152199E+04  0.91124097038E+02 0.  0.
          3    1    3    3  502    0 -0.35642936213E+03  0.33690296782E+03 -0.26077828426E+03  0.55547350383E+03  0.00000000000E+00 0. -1.
         -4    1    3    3    0  502 -0.17458329465E+03  0.95380344299E+02 -0.97633563172E+02  0.22160561705E+03  0.00000000000E+00 0.  1.
         13    1    5    5    0    0  0.55542831978E+02  0.22192225176E+03  0.67544214963E+02  0.23853031880E+03  0.00000000000E+00 0. -1.
        -13    1    5    5    0    0  0.35269247683E+01 -0.13141983834E+01  0.27111573420E+02  0.27371586162E+02  0.00000000000E+00 0.  1.
          4    1    6    6  503    0  0.40707075653E+03 -0.54929885503E+03  0.10110449520E+04  0.12205112568E+04  0.00000000000E+00 0. -1.
         -4    1    6    6    0  503  0.64872143505E+02 -0.10359251047E+03  0.25657764792E+03  0.28420396310E+03  0.00000000000E+00 0.  1.
<mgrwt>
<rscale>  0 0.23415824E+04</rscale>
<asrwt>0</asrwt>
<pdfrwt beam="1">  1        1 0.11875613E+00 0.23415824E+04</pdfrwt>
<pdfrwt beam="2">  1       -2 0.27319714E+00 0.23415824E+04</pdfrwt>
<totfact> 0.85628751E-01</totfact>
</mgrwt>
</event>
<event>
12    5  0.5041746E-008  0.1730908E+04  0.7818608E-02  0.8743930E-01
         -2   -1    0    0    0  501 -0.00000000000E+00  0.00000000000E+00  0.75171501958E+03  0.75171501958E+03  0.00000000000E+00 0.  1.
          1   -1    0    0  501    0  0.00000000000E+00 -0.00000000000E+00 -0.99640185512E+03  0.99640185512E+03  0.00000000000E+00 0. -1.
        -24    2    1    2    0    0 -0.11785901501E+03 -0.59996654928E+03 -0.23749738024E+03  0.66069295669E+03  0.79117442606E+02 0.  0.
        254    2    1    2    0    0  0.11785901501E+03  0.59996654928E+03 -0.71894552954E+01  0.10874239180E+04  0.89921548114E+03 0.  0.
         23    2    4    4    0    0 -0.13004893490E+03  0.31281552850E+03 -0.40199206373E+03  0.53246128896E+03  0.84564322245E+02 0.  0.
         23    2    4    4    0    0  0.24790794991E+03  0.28715102078E+03  0.39480260844E+03  0.55496262905E+03  0.90555837225E+02 0.  0.
          1    1    3    3  502    0 -0.18606463458E+02 -0.45398768668E+02  0.59792333144E+00  0.49067363810E+02  0.00000000000E+00 0. -1.
         -2    1    3    3    0  502 -0.99252551548E+02 -0.55456778061E+03 -0.23809530357E+03  0.61162559288E+03  0.00000000000E+00 0.  1.
         13    1    5    5    0    0 -0.12746302888E+01  0.16396565324E+02  0.27932737206E+00  0.16448406020E+02  0.00000000000E+00 0.  1.
        -13    1    5    5    0    0 -0.12877430461E+03  0.29641896318E+03 -0.40227139110E+03  0.51601288294E+03  0.00000000000E+00 0. -1.
          1    1    6    6  503    0  0.81155727688E+01  0.37571600173E+02  0.15396195122E+02  0.41406889344E+02  0.00000000000E+00 0. -1.
         -1    1    6    6    0  503  0.23979237714E+03  0.24957942060E+03  0.37940641332E+03  0.51355573971E+03  0.00000000000E+00 0.  1.
<mgrwt>
<rscale>  0 0.17309076E+04</rscale>
<asrwt>0</asrwt>
<pdfrwt beam="1">  1        1 0.15329259E+00 0.17309076E+04</pdfrwt>
<pdfrwt beam="2">  1       -2 0.11564846E+00 0.17309076E+04</pdfrwt>
<totfact> 0.73695980E+00</totfact>
</mgrwt>
</event>
<event>
12    5  0.5041746E-008  0.1427805E+04  0.7818608E-02  0.8933934E-01
         -2   -1    0    0    0  501 -0.00000000000E+00  0.00000000000E+00  0.19301242116E+03  0.19301242116E+03  0.00000000000E+00 0.  1.
          1   -1    0    0  501    0  0.00000000000E+00 -0.00000000000E+00 -0.26405380767E+04  0.26405380767E+04  0.00000000000E+00 0. -1.
        -24    2    1    2    0    0 -0.13976569889E+03  0.54906969765E+02  0.47188518726E+02  0.17678536992E+03  0.80480337993E+02 0.  0.
        254    2    1    2    0    0  0.13976569889E+03 -0.54906969765E+02 -0.24947141742E+04  0.26567651279E+04  0.90125074637E+03 0.  0.
         23    2    4    4    0    0 -0.16075407348E+03  0.10176733595E+03 -0.21648592937E+04  0.21751403672E+04  0.91768147523E+02 0.  0.
         23    2    4    4    0    0  0.30051977237E+03 -0.15667430571E+03 -0.32985488055E+03  0.48162476068E+03  0.91099924367E+02 0.  0.
          3    1    3    3  502    0 -0.10974290382E+03  0.22646107521E+01  0.30901990276E+02  0.11403318115E+03  0.00000000000E+00 0. -1.
         -4    1    3    3    0  502 -0.30022795069E+02  0.52642359013E+02  0.16286528449E+02  0.62752188767E+02  0.00000000000E+00 0.  1.
         13    1    5    5    0    0 -0.16156159715E+02  0.31993402223E+02 -0.16505757376E+03  0.16890412055E+03  0.00000000000E+00 0.  1.
        -13    1    5    5    0    0 -0.14459791377E+03  0.69773933727E+02 -0.19998017199E+04  0.20062362467E+04  0.00000000000E+00 0. -1.
          4    1    6    6  503    0  0.19651239367E+03 -0.93427159923E+02 -0.14936963521E+03  0.26392620749E+03  0.00000000000E+00 0. -1.
         -4    1    6    6    0  503  0.10400737870E+03 -0.63247145792E+02 -0.18048524534E+03  0.21769855319E+03  0.00000000000E+00 0.  1.
<mgrwt>
<rscale>  0 0.14278048E+04</rscale>
<asrwt>0</asrwt>
<pdfrwt beam="1">  1        1 0.40623662E+00 0.14278048E+04</pdfrwt>
<pdfrwt beam="2">  1       -2 0.29694219E-01 0.14278048E+04</pdfrwt>
<totfact> 0.96916030E+00</totfact>
</mgrwt>
</event>
<event>
12    5  0.5041746E-008  0.1734909E+04  0.7818608E-02  0.8741701E-01
          3   -1    0    0  501    0  0.00000000000E+00  0.00000000000E+00  0.15235649058E+04  0.15235649058E+04  0.00000000000E+00 0. -1.
         -4   -1    0    0    0  501 -0.00000000000E+00 -0.00000000000E+00 -0.49389257431E+03  0.49389257431E+03  0.00000000000E+00 0.  1.
        -24    2    1    2    0    0 -0.57586506564E+03  0.10960402895E+03  0.65167825532E+03  0.88019251258E+03  0.80129231640E+02 0.  0.
        254    2    1    2    0    0  0.57586506564E+03 -0.10960402895E+03  0.37799407620E+03  0.11372649676E+04  0.89825300878E+03 0.  0.
         23    2    4    4    0    0  0.43430771982E+03 -0.44639019768E+03  0.42207622321E+03  0.75788173160E+03  0.91372735633E+02 0.  0.
         23    2    4    4    0    0  0.14155734582E+03  0.33678616873E+03 -0.44082147008E+02  0.37938323595E+03  0.92330918097E+02 0.  0.
          3    1    3    3  502    0 -0.30146458398E+03  0.95586684346E+02  0.32825667200E+03  0.45581811321E+03  0.00000000000E+00 0. -1.
         -4    1    3    3    0  502 -0.27440048166E+03  0.14017344604E+02  0.32342158332E+03  0.42437439937E+03  0.00000000000E+00 0.  1.
         13    1    5    5    0    0  0.12261816529E+03 -0.76455236842E+02  0.77550505156E+02  0.16399603212E+03  0.00000000000E+00 0.  1.
        -13    1    5    5    0    0  0.31168955453E+03 -0.36993496083E+03  0.34452571805E+03  0.59388569948E+03  0.00000000000E+00 0. -1.
          4    1    6    6  503    0  0.10876693872E+03  0.32199286827E+03 -0.47827451890E+02  0.34321584947E+03  0.00000000000E+00 0. -1.
         -4    1    6    6    0  503  0.32790407100E+02  0.14793300457E+02  0.37453048815E+01  0.36167386480E+02  0.00000000000E+00 0.  1.
<mgrwt>
<rscale>  0 0.17349091E+04</rscale>
<asrwt>0</asrwt>
<pdfrwt beam="1">  1        3 0.23439460E+00 0.17349091E+04</pdfrwt>
<pdfrwt beam="2">  1       -4 0.75983474E-01 0.17349091E+04</pdfrwt>
<totfact> 0.30894907E-01</totfact>
</mgrwt>
</event>
<event>
12    5  0.5041746E-008  0.1390596E+04  0.7818608E-02  0.8960654E-01
         -4   -1    0    0    0  501 -0.00000000000E+00  0.00000000000E+00  0.51205069717E+03  0.51205069717E+03  0.00000000000E+00 0.  1.
          3   -1    0    0  501    0  0.00000000000E+00 -0.00000000000E+00 -0.94412436012E+03  0.94412436012E+03  0.00000000000E+00 0. -1.
        -24    2    1    2    0    0  0.27814741838E+03  0.64782260027E+02  0.16578573080E+03  0.34036501075E+03  0.82466383698E+02 0.  0.
        254    2    1    2    0    0 -0.27814741838E+03 -0.64782260027E+02 -0.59785939375E+03  0.11158100465E+04  0.89779367212E+03 0.  0.
         23    2    4    4    0    0  0.13797611598E+03 -0.19416108146E+02  0.17034542781E+03  0.23617919492E+03  0.85724287686E+02 0.  0.
         23    2    4    4    0    0 -0.41612353436E+03 -0.45366151881E+02 -0.76820482156E+03  0.87963085162E+03  0.91623706857E+02 0.  0.
          3    1    3    3  502    0  0.83885613377E+02  0.30594748341E+02  0.11672250001E+02  0.90050409093E+02  0.00000000000E+00 0. -1.
         -4    1    3    3    0  502  0.19426180500E+03  0.34187511686E+02  0.15411348080E+03  0.25031460166E+03  0.00000000000E+00 0.  1.
         13    1    5    5    0    0  0.51194515350E+02 -0.49713244029E+02  0.67215870639E+02  0.98031924900E+02  0.00000000000E+00 0. -1.
        -13    1    5    5    0    0  0.86781600635E+02  0.30297135884E+02  0.10312955717E+03  0.13814727002E+03  0.00000000000E+00 0.  1.
          1    1    6    6  503    0 -0.37164266088E+03 -0.12633589652E+02 -0.64292114053E+03  0.74271493045E+03  0.00000000000E+00 0. -1.
         -1    1    6    6    0  503 -0.44480873480E+02 -0.32732562229E+02 -0.12528368103E+03  0.13691592116E+03  0.00000000000E+00 0.  1.
<mgrwt>
<rscale>  0 0.13905963E+04</rscale>
<asrwt>0</asrwt>
<pdfrwt beam="1">  1        3 0.14524990E+00 0.13905963E+04</pdfrwt>
<pdfrwt beam="2">  1       -4 0.78777031E-01 0.13905963E+04</pdfrwt>
<totfact> 0.11267712E+00</totfact>
</mgrwt>
</event>
<event>
12    5  0.5041746E-008  0.2167371E+04  0.7818608E-02  0.8532133E-01
         -2   -1    0    0    0  501 -0.00000000000E+00  0.00000000000E+00  0.11832991107E+04  0.11832991107E+04  0.00000000000E+00 0.  1.
          1   -1    0    0  501    0  0.00000000000E+00 -0.00000000000E+00 -0.99245780248E+03  0.99245780248E+03  0.00000000000E+00 0. -1.
        -24    2    1    2    0    0 -0.56276947729E+03 -0.17694693324E+03  0.74932955533E+03  0.95692432616E+03  0.78674530529E+02 0.  0.
        254    2    1    2    0    0  0.56276947729E+03  0.17694693324E+03 -0.55848824712E+03  0.12188325870E+04  0.90863857020E+03 0.  0.
         23    2    4    4    0    0 -0.74652554541E+02 -0.23521317879E+03 -0.33132415905E+03  0.42152027131E+03  0.83698251965E+02 0.  0.
         23    2    4    4    0    0  0.63742203183E+03  0.41216011203E+03 -0.22716408807E+03  0.79731231570E+03  0.88997759786E+02 0.  0.
          3    1    3    3  502    0 -0.23212759366E+03 -0.77005664356E+02  0.24970127687E+03  0.34951941255E+03  0.00000000000E+00 0. -1.
         -4    1    3    3    0  502 -0.33064188363E+03 -0.99941268883E+02  0.49962827846E+03  0.60740491360E+03  0.00000000000E+00 0.  1.
         13    1    5    5    0    0  0.84393492739E+01 -0.40731710102E+01 -0.37013672559E+02  0.38181478423E+02  0.00000000000E+00 0. -1.
        -13    1    5    5    0    0 -0.83091903815E+02 -0.23114000778E+03 -0.29431048649E+03  0.38333879289E+03  0.00000000000E+00 0.  1.
          4    1    6    6  503    0  0.75920541193E+01 -0.35184737330E+01 -0.78019158819E+01  0.11440665828E+02  0.00000000000E+00 0. -1.
         -4    1    6    6    0  503  0.62982997771E+03  0.41567858577E+03 -0.21936217219E+03  0.78587164988E+03  0.00000000000E+00 0.  1.
<mgrwt>
<rscale>  0 0.21673712E+04</rscale>
<asrwt>0</asrwt>
<pdfrwt beam="1">  1        1 0.15268582E+00 0.21673712E+04</pdfrwt>
<pdfrwt beam="2">  1       -2 0.18204602E+00 0.21673712E+04</pdfrwt>
<totfact> 0.21579592E+00</totfact>
</mgrwt>
</event>
<event>
12    5  0.5041746E-008  0.1343228E+04  0.7818608E-02  0.8995970E-01
         -2   -1    0    0    0  501 -0.00000000000E+00  0.00000000000E+00  0.20774015273E+03  0.20774015273E+03  0.00000000000E+00 0.  1.
          1   -1    0    0  501    0  0.00000000000E+00 -0.00000000000E+00 -0.21712963957E+04  0.21712963957E+04  0.00000000000E+00 0. -1.
        -24    2    1    2    0    0 -0.61097297987E+02  0.51188369207E+02 -0.11746809845E+04  0.11801048889E+04  0.80118689831E+02 0.  0.
        254    2    1    2    0    0  0.61097297987E+02 -0.51188369207E+02 -0.78887525842E+03  0.11989316595E+04  0.89931074819E+03 0.  0.
         23    2    4    4    0    0  0.29099720504E+03  0.10650492853E+03  0.33242294374E+02  0.32582567631E+03  0.95050765735E+02 0.  0.
         23    2    4    4    0    0 -0.22989990705E+03 -0.15769329773E+03 -0.82211755279E+03  0.87310598318E+03  0.93357612703E+02 0.  0.
          3    1    3    3  502    0 -0.10888510374E+02  0.60498426209E+02 -0.58716850711E+03  0.59037740046E+03  0.00000000000E+00 0. -1.
         -4    1    3    3    0  502 -0.50208787613E+02 -0.93100570020E+01 -0.58751247742E+03  0.58972748846E+03  0.00000000000E+00 0.  1.
         13    1    5    5    0    0  0.15232146966E+03  0.10523434779E+03  0.26003929229E+02  0.18695534871E+03  0.00000000000E+00 0.  1.
        -13    1    5    5    0    0  0.13867573538E+03  0.12705807307E+01  0.72383651444E+01  0.13887032760E+03  0.00000000000E+00 0. -1.
          4    1    6    6  503    0 -0.20507600604E+03 -0.16700580540E+03 -0.77696627757E+03  0.82074582166E+03  0.00000000000E+00 0. -1.
         -4    1    6    6    0  503 -0.24823901008E+02  0.93125076724E+01 -0.45151275221E+02  0.52360161521E+02  0.00000000000E+00 0.  1.
<mgrwt>
<rscale>  0 0.13432281E+04</rscale>
<asrwt>0</asrwt>
<pdfrwt beam="1">  1        1 0.33404557E+00 0.13432281E+04</pdfrwt>
<pdfrwt beam="2">  1       -2 0.31960026E-01 0.13432281E+04</pdfrwt>
<totfact> 0.17876238E+01</totfact>
</mgrwt>
</event>
<event>
12    5  0.5041746E-008  0.1768748E+04  0.7818608E-02  0.8723098E-01
          1   -1    0    0  501    0  0.00000000000E+00  0.00000000000E+00  0.14471331456E+04  0.14471331456E+04  0.00000000000E+00 0. -1.
         -2   -1    0    0    0  501 -0.00000000000E+00 -0.00000000000E+00 -0.54045968529E+03  0.54045968529E+03  0.00000000000E+00 0.  1.
        -24    2    1    2    0    0  0.48262327729E+03  0.29023694781E+03  0.19085372449E+03  0.60011182253E+03  0.80909466220E+02 0.  0.
        254    2    1    2    0    0 -0.48262327729E+03 -0.29023694781E+03  0.71581973577E+03  0.13874810083E+04  0.10466818717E+04 0.  0.
         23    2    4    4    0    0 -0.25258331220E+03  0.82811835845E+02 -0.21548328594E+03  0.35416881812E+03  0.91358499604E+02 0.  0.
         23    2    4    4    0    0 -0.23003996509E+03 -0.37304878365E+03  0.93130302171E+03  0.10333121902E+04  0.91241348273E+02 0.  0.
          3    1    3    3  502    0  0.47515211616E+03  0.28768058411E+03  0.19777251766E+03  0.58961311104E+03  0.00000000000E+00 0. -1.
         -4    1    3    3    0  502  0.74711611310E+01  0.25563636970E+01 -0.69187931664E+01  0.10498711486E+02  0.00000000000E+00 0.  1.
         13    1    5    5    0    0 -0.13801917358E+03  0.89082247935E+00 -0.84500701965E+02  0.16183465164E+03  0.00000000000E+00 0. -1.
        -13    1    5    5    0    0 -0.11456413862E+03  0.81921013366E+02 -0.13098258397E+03  0.19233416647E+03  0.00000000000E+00 0.  1.
          4    1    6    6  503    0 -0.20185752977E+03 -0.32856933083E+03  0.87509517570E+03  0.95629275540E+03  0.00000000000E+00 0. -1.
         -4    1    6    6    0  503 -0.28182435319E+02 -0.44479452819E+02  0.56207846011E+02  0.77019434799E+02  0.00000000000E+00 0.  1.
<mgrwt>
<rscale>  0 0.17687477E+04</rscale>
<asrwt>0</asrwt>
<pdfrwt beam="1">  1        1 0.22263587E+00 0.17687477E+04</pdfrwt>
<pdfrwt beam="2">  1       -2 0.83147644E-01 0.17687477E+04</pdfrwt>
<totfact> 0.74884697E+00</totfact>
</mgrwt>
</event>
<event>
12    5  0.5041746E-008  0.1692030E+04  0.7818608E-02  0.8765923E-01
         -4   -1    0    0    0  501 -0.00000000000E+00  0.00000000000E+00  0.41499100032E+03  0.41499100032E+03  0.00000000000E+00 0.  1.
          3   -1    0    0  501    0  0.00000000000E+00 -0.00000000000E+00 -0.17247159845E+04  0.17247159845E+04  0.00000000000E+00 0. -1.
        -24    2    1    2    0    0  0.44738877444E+03  0.25238339582E+03 -0.89983881872E+03  0.10392529066E+04  0.80514657792E+02 0.  0.
        254    2    1    2    0    0 -0.44738877444E+03 -0.25238339582E+03 -0.40988616550E+03  0.11004540783E+04  0.88268817586E+03 0.  0.
         23    2    4    4    0    0  0.46955980209E+02  0.25962128104E+03 -0.10225768517E+02  0.27898112357E+03  0.90098986234E+02 0.  0.
         23    2    4    4    0    0 -0.49434475465E+03 -0.51200467686E+03 -0.39966039698E+03  0.82147295473E+03  0.92541109055E+02 0.  0.
          3    1    3    3  502    0  0.41030067710E+03  0.21464071942E+03 -0.76271250851E+03  0.89227106571E+03  0.00000000000E+00 0. -1.
         -4    1    3    3    0  502  0.37088097343E+02  0.37742676395E+02 -0.13712631021E+03  0.14698184084E+03  0.00000000000E+00 0.  1.
         13    1    5    5    0    0  0.43793243428E+02  0.25410080766E+03 -0.28702579998E+02  0.25943960130E+03  0.00000000000E+00 0.  1.
        -13    1    5    5    0    0  0.31627367811E+01  0.55204733840E+01  0.18476811481E+02  0.19541522275E+02  0.00000000000E+00 0. -1.
          4    1    6    6  503    0 -0.42773259609E+02 -0.81813351339E+02 -0.33274243290E+02  0.98133335118E+02  0.00000000000E+00 0. -1.
         -4    1    6    6    0  503 -0.45157149504E+03 -0.43019132552E+03 -0.36638615369E+03  0.72333961962E+03  0.00000000000E+00 0.  1.
<mgrwt>
<rscale>  0 0.16920303E+04</rscale>
<asrwt>0</asrwt>
<pdfrwt beam="1">  1        3 0.26534092E+00 0.16920303E+04</pdfrwt>
<pdfrwt beam="2">  1       -4 0.63844770E-01 0.16920303E+04</pdfrwt>
<totfact> 0.30266727E-01</totfact>
</mgrwt>
</event>
<event>
12    5  0.5041746E-008  0.2187722E+04  0.7818608E-02  0.8523556E-01
          1   -1    0    0  501    0  0.00000000000E+00  0.00000000000E+00  0.71132157505E+03  0.71132157505E+03  0.00000000000E+00 0. -1.
         -2   -1    0    0    0  501 -0.00000000000E+00 -0.00000000000E+00 -0.16821255074E+04  0.16821255074E+04  0.00000000000E+00 0.  1.
        -24    2    1    2    0    0 -0.34804684513E+03 -0.28812083155E+03 -0.12653458971E+04  0.13459768412E+04  0.80019982383E+02 0.  0.
        254    2    1    2    0    0  0.34804684513E+03  0.28812083155E+03  0.29454196475E+03  0.10474702413E+04  0.89793580921E+03 0.  0.
         23    2    4    4    0    0  0.18004125502E+03  0.49169028240E+03 -0.12221306516E+03  0.54565533994E+03  0.92895260362E+02 0.  0.
         23    2    4    4    0    0  0.16800559011E+03 -0.20356945085E+03  0.41675502991E+03  0.50181490138E+03  0.92016523871E+02 0.  0.
          1    1    3    3  502    0 -0.28062201380E+03 -0.24922027313E+03 -0.95715948500E+03  0.10281117346E+04  0.00000000000E+00 0. -1.
         -2    1    3    3    0  502 -0.67424831334E+02 -0.38900558416E+02 -0.30818641214E+03  0.31786510653E+03  0.00000000000E+00 0.  1.
         13    1    5    5    0    0  0.57496000370E+02  0.80542846355E+02  0.21155779859E+01  0.98981896465E+02  0.00000000000E+00 0. -1.
        -13    1    5    5    0    0  0.12254525465E+03  0.41114743604E+03 -0.12432864314E+03  0.44667344348E+03  0.00000000000E+00 0.  1.
          3    1    6    6  503    0 -0.49316023217E+01 -0.20465932314E+02  0.97864696426E+01  0.23215298297E+02  0.00000000000E+00 0. -1.
         -3    1    6    6    0  503  0.17293719243E+03 -0.18310351853E+03  0.40696856026E+03  0.47859960308E+03  0.00000000000E+00 0.  1.
<mgrwt>
<rscale>  0 0.21877223E+04</rscale>
<asrwt>0</asrwt>
<pdfrwt beam="1">  1        1 0.10943409E+00 0.21877223E+04</pdfrwt>
<pdfrwt beam="2">  1       -2 0.25878854E+00 0.21877223E+04</pdfrwt>
<totfact> 0.12064974E+00</totfact>
</mgrwt>
</event>
<event>
12    5  0.5041746E-008  0.3971046E+04  0.7818608E-02  0.8010413E-01
         -2   -1    0    0    0  501 -0.00000000000E+00  0.00000000000E+00  0.12924763329E+04  0.12924763329E+04  0.00000000000E+00 0.  1.
          1   -1    0    0  501    0  0.00000000000E+00 -0.00000000000E+00 -0.30501931482E+04  0.30501931482E+04  0.00000000000E+00 0. -1.
        -24    2    1    2    0    0  0.13502388804E+04  0.91099390702E+03 -0.18656614242E+04  0.24777924370E+04  0.75550504246E+02 0.  0.
        254    2    1    2    0    0 -0.13502388804E+04 -0.91099390702E+03  0.10794460893E+03  0.18648770440E+04  0.90169807482E+03 0.  0.
         23    2    4    4    0    0 -0.86586744484E+03 -0.40246084358E+03 -0.35017763358E+03  0.10210450971E+04  0.90595543875E+02 0.  0.
         23    2    4    4    0    0 -0.48437143552E+03 -0.50853306344E+03  0.45812224251E+03  0.84383194696E+03  0.94629812805E+02 0.  0.
          1    1    3    3  502    0  0.21413304470E+03  0.12796950696E+03 -0.25093427261E+03  0.35383211374E+03  0.00000000000E+00 0. -1.
         -2    1    3    3    0  502  0.11361058357E+04  0.78302440006E+03 -0.16147271516E+04  0.21239603233E+04  0.00000000000E+00 0.  1.
         13    1    5    5    0    0 -0.13534519029E+03 -0.28016732873E+02 -0.51894959913E+02  0.14763585175E+03  0.00000000000E+00 0.  1.
        -13    1    5    5    0    0 -0.73052225455E+03 -0.37444411071E+03 -0.29828267367E+03  0.87340924534E+03  0.00000000000E+00 0. -1.
          4    1    6    6  503    0 -0.13099938728E+03 -0.13689923537E+03  0.17561267723E+03  0.25834483257E+03  0.00000000000E+00 0. -1.
         -4    1    6    6    0  503 -0.35337204824E+03 -0.37163382807E+03  0.28250956528E+03  0.58548711439E+03  0.00000000000E+00 0.  1.
<mgrwt>
<rscale>  0 0.39710464E+04</rscale>
<asrwt>0</asrwt>
<pdfrwt beam="1">  1        1 0.46926048E+00 0.39710464E+04</pdfrwt>
<pdfrwt beam="2">  1       -2 0.19884251E+00 0.39710464E+04</pdfrwt>
<totfact> 0.51324439E-02</totfact>
</mgrwt>
</event>
<event>
12    5  0.5041746E-008  0.1185048E+04  0.7818608E-02  0.9126045E-01
         -2   -1    0    0    0  501 -0.00000000000E+00  0.00000000000E+00  0.46797325846E+03  0.46797325846E+03  0.00000000000E+00 0.  1.
          1   -1    0    0  501    0  0.00000000000E+00 -0.00000000000E+00 -0.75022406094E+03  0.75022406094E+03  0.00000000000E+00 0. -1.
        -24    2    1    2    0    0  0.14844104144E+03 -0.94904433570E+02 -0.25417523936E+03  0.31922295841E+03  0.79098992262E+02 0.  0.
        254    2    1    2    0    0 -0.14844104144E+03  0.94904433570E+02 -0.28075563117E+02  0.89897436099E+03  0.88109311096E+03 0.  0.
         23    2    4    4    0    0 -0.43871854776E+03 -0.17719875999E+03  0.49843315500E+02  0.48447248577E+03  0.91410440756E+02 0.  0.
         23    2    4    4    0    0  0.29027750632E+03  0.27210319356E+03 -0.77918878617E+02  0.41450187522E+03  0.86251227821E+02 0.  0.
          3    1    3    3  502    0  0.82165076188E+02 -0.10756123308E+02 -0.13986182044E+03  0.16256728684E+03  0.00000000000E+00 0. -1.
         -2    1    3    3    0  502  0.66275965253E+02 -0.84148310261E+02 -0.11431341893E+03  0.15665567158E+03  0.00000000000E+00 0.  1.
         13    1    5    5    0    0 -0.71824090343E+02 -0.12409740514E+02 -0.21496185500E+02  0.75992023294E+02  0.00000000000E+00 0. -1.
        -13    1    5    5    0    0 -0.36689445742E+03 -0.16478901948E+03  0.71339501000E+02  0.40848046248E+03  0.00000000000E+00 0.  1.
          3    1    6    6  503    0  0.25616841740E+02  0.24155601779E+02  0.17754904559E+02  0.39432883662E+02  0.00000000000E+00 0. -1.
         -3    1    6    6    0  503  0.26466066458E+03  0.24794759178E+03 -0.95673783175E+02  0.37506899156E+03  0.00000000000E+00 0.  1.
<mgrwt>
<rscale>  0 0.11850482E+04</rscale>
<asrwt>0</asrwt>
<pdfrwt beam="1">  1        1 0.11541909E+00 0.11850482E+04</pdfrwt>
<pdfrwt beam="2">  1       -2 0.71995886E-01 0.11850482E+04</pdfrwt>
<totfact> 0.37143112E+01</totfact>
</mgrwt>
</event>
<event>
12    5  0.5041746E-008  0.1364499E+04  0.7818608E-02  0.8979924E-01
         -2   -1    0    0    0  501 -0.00000000000E+00  0.00000000000E+00  0.28101871305E+03  0.28101871305E+03  0.00000000000E+00 0.  1.
          1   -1    0    0  501    0  0.00000000000E+00 -0.00000000000E+00 -0.16563470318E+04  0.16563470318E+04  0.00000000000E+00 0. -1.
        -24    2    1    2    0    0 -0.95390681781E+02 -0.14369955008E+02  0.12901311867E+03  0.18050983538E+03  0.81446535256E+02 0.  0.
        254    2    1    2    0    0  0.95390681781E+02  0.14369955008E+02 -0.15043414375E+04  0.17568559095E+04  0.90232679697E+03 0.  0.
         23    2    4    4    0    0 -0.10092980989E+03  0.32432739606E+03 -0.21326384971E+03  0.41156719610E+03  0.92363417815E+02 0.  0.
         23    2    4    4    0    0  0.19632049168E+03 -0.30995744105E+03 -0.12910775877E+04  0.13452887134E+04  0.91131959934E+02 0.  0.
          1    1    3    3  502    0 -0.16063771316E+02  0.22087353521E+01  0.88375984965E+02  0.89851199098E+02  0.00000000000E+00 0. -1.
         -2    1    3    3    0  502 -0.79326910465E+02 -0.16578690360E+02  0.40637133700E+02  0.90658636287E+02  0.00000000000E+00 0.  1.
         13    1    5    5    0    0  0.12495631760E+02  0.73382968543E+02 -0.64892204752E+02  0.98753223354E+02  0.00000000000E+00 0. -1.
        -13    1    5    5    0    0 -0.11342544165E+03  0.25094442752E+03 -0.14837164496E+03  0.31281397274E+03  0.00000000000E+00 0.  1.
          1    1    6    6  503    0  0.18403706869E+02  0.23000633134E+01 -0.56561736139E+02  0.59524925140E+02  0.00000000000E+00 0. -1.
         -1    1    6    6    0  503  0.17791678481E+03 -0.31225750437E+03 -0.12345158516E+04  0.12857637883E+04  0.00000000000E+00 0.  1.
<mgrwt>
<rscale>  0 0.13644992E+04</rscale>
<asrwt>0</asrwt>
<pdfrwt beam="1">  1        1 0.25482262E+00 0.13644992E+04</pdfrwt>
<pdfrwt beam="2">  1       -2 0.43233649E-01 0.13644992E+04</pdfrwt>
<totfact> 0.22224113E+01</totfact>
</mgrwt>
</event>
<event>
12    5  0.5041746E-008  0.2301067E+04  0.7818608E-02  0.8477501E-01
         -2   -1    0    0    0  501 -0.00000000000E+00  0.00000000000E+00  0.13819285764E+04  0.13819285764E+04  0.00000000000E+00 0.  1.
          1   -1    0    0  501    0  0.00000000000E+00 -0.00000000000E+00 -0.95788400906E+03  0.95788400906E+03  0.00000000000E+00 0. -1.
        -24    2    1    2    0    0  0.93280493121E+03  0.54908840490E+02 -0.90816373553E+02  0.94220902358E+03  0.79813595093E+02 0.  0.
        254    2    1    2    0    0 -0.93280493121E+03 -0.54908840490E+02  0.51486094090E+03  0.13976035619E+04  0.90281443678E+03 0.  0.
         23    2    4    4    0    0 -0.98480680534E+03  0.11699151746E+03  0.61916331934E+03  0.11728286563E+04  0.92910612497E+02 0.  0.
         23    2    4    4    0    0  0.52001874135E+02 -0.17190035795E+03 -0.10430237845E+03  0.22477490562E+03  0.85970018423E+02 0.  0.
          3    1    3    3  502    0  0.91174043007E+03  0.61064499420E+02 -0.98223988841E+02  0.91904702648E+03  0.00000000000E+00 0. -1.
         -4    1    3    3    0  502  0.21064501144E+02 -0.61556589300E+01  0.74076152884E+01  0.23161997098E+02  0.00000000000E+00 0.  1.
         13    1    5    5    0    0 -0.48165234116E+03  0.32017282256E+02  0.25498235170E+03  0.54592131648E+03  0.00000000000E+00 0.  1.
        -13    1    5    5    0    0 -0.50315446418E+03  0.84974235209E+02  0.36418096764E+03  0.62690733978E+03  0.00000000000E+00 0. -1.
          1    1    6    6  503    0 -0.99552306667E+01 -0.11352617381E+03 -0.61405949785E+02  0.12945265322E+03  0.00000000000E+00 0. -1.
         -1    1    6    6    0  503  0.61957104802E+02 -0.58374184148E+02 -0.42896428661E+02  0.95322252398E+02  0.00000000000E+00 0.  1.
<mgrwt>
<rscale>  0 0.23010670E+04</rscale>
<asrwt>0</asrwt>
<pdfrwt beam="1">  1        1 0.14736677E+00 0.23010670E+04</pdfrwt>
<pdfrwt beam="2">  1       -2 0.21260440E+00 0.23010670E+04</pdfrwt>
<totfact> 0.14260118E+00</totfact>
</mgrwt>
</event>
<event>
12    5  0.5041746E-008  0.2229435E+04  0.7818608E-02  0.8506276E-01
         -2   -1    0    0    0  501 -0.00000000000E+00  0.00000000000E+00  0.98857664646E+03  0.98857664646E+03  0.00000000000E+00 0.  1.
          1   -1    0    0  501    0  0.00000000000E+00 -0.00000000000E+00 -0.12569538326E+04  0.12569538326E+04  0.00000000000E+00 0. -1.
        -24    2    1    2    0    0  0.36711191040E+03 -0.73277493669E+02 -0.97952907679E+03  0.10514743211E+04  0.77332333245E+02 0.  0.
        254    2    1    2    0    0 -0.36711191040E+03  0.73277493669E+02  0.71115189060E+03  0.11940561580E+04  0.88311514039E+03 0.  0.
         23    2    4    4    0    0  0.24683224003E+03  0.22709270791E+02  0.21605873437E+02  0.26490811418E+03  0.90926506000E+02 0.  0.
         23    2    4    4    0    0 -0.61394415043E+03  0.50568222878E+02  0.68954601716E+03  0.92914804385E+03  0.91421073095E+02 0.  0.
          3    1    3    3  502    0  0.29513600045E+03 -0.27566908179E+02 -0.73591586571E+03  0.79337088086E+03  0.00000000000E+00 0. -1.
         -4    1    3    3    0  502  0.71975909947E+02 -0.45710585490E+02 -0.24361321108E+03  0.25810344022E+03  0.00000000000E+00 0.  1.
         13    1    5    5    0    0  0.16096318520E+03 -0.23054096240E+02 -0.91431295483E+01  0.16286262666E+03  0.00000000000E+00 0. -1.
        -13    1    5    5    0    0  0.85869054825E+02  0.45763367031E+02  0.30749002985E+02  0.10204548752E+03  0.00000000000E+00 0.  1.
          1    1    6    6  503    0 -0.58899886081E+03  0.29507978894E+02  0.64568629945E+03  0.87447194132E+03  0.00000000000E+00 0. -1.
         -1    1    6    6    0  503 -0.24945289614E+02  0.21060243984E+02  0.43859717715E+02  0.54676102537E+02  0.00000000000E+00 0.  1.
<mgrwt>
<rscale>  0 0.22294351E+04</rscale>
<asrwt>0</asrwt>
<pdfrwt beam="1">  1        1 0.19337751E+00 0.22294351E+04</pdfrwt>
<pdfrwt beam="2">  1       -2 0.15208871E+00 0.22294351E+04</pdfrwt>
<totfact> 0.22384992E+00</totfact>
</mgrwt>
</event>
<event>
12    5  0.5041746E-008  0.2806520E+04  0.7818608E-02  0.8301247E-01
          1   -1    0    0  501    0  0.00000000000E+00  0.00000000000E+00  0.12727009774E+04  0.12727009774E+04  0.00000000000E+00 0. -1.
         -2   -1    0    0    0  501 -0.00000000000E+00 -0.00000000000E+00 -0.15472126767E+04  0.15472126767E+04  0.00000000000E+00 0.  1.
        -24    2    1    2    0    0  0.59587425819E+03  0.39973709297E+03 -0.11374572514E+04  0.13471073281E+04  0.77674187753E+02 0.  0.
        254    2    1    2    0    0 -0.59587425819E+03 -0.39973709297E+03  0.86294555218E+03  0.14728063260E+04  0.95374397661E+03 0.  0.
         23    2    4    4    0    0  0.18472798302E+03  0.10753604208E+03  0.30352970088E+03  0.38250406779E+03  0.92144747541E+02 0.  0.
         23    2    4    4    0    0 -0.78060224121E+03 -0.50727313505E+03  0.55941585130E+03  0.10903022582E+04  0.95640091593E+02 0.  0.
          1    1    3    3  502    0  0.23423961630E+03  0.14540451867E+03 -0.50645363423E+03  0.57663329380E+03  0.00000000000E+00 0. -1.
         -2    1    3    3    0  502  0.36163464189E+03  0.25433257430E+03 -0.63100361718E+03  0.77047403426E+03  0.00000000000E+00 0.  1.
         13    1    5    5    0    0  0.76394962060E+01 -0.53614650690E+01 -0.39600378817E+01  0.10138496436E+02  0.00000000000E+00 0. -1.
        -13    1    5    5    0    0  0.17708848682E+03  0.11289750715E+03  0.30748973876E+03  0.37236557135E+03  0.00000000000E+00 0.  1.
          1    1    6    6  503    0 -0.12203568094E+03 -0.11338787054E+03  0.73902770536E+02  0.18223922767E+03  0.00000000000E+00 0. -1.
         -1    1    6    6    0  503 -0.65856656027E+03 -0.39388526451E+03  0.48551308077E+03  0.90806303058E+03  0.00000000000E+00 0.  1.
<mgrwt>
<rscale>  0 0.28065203E+04</rscale>
<asrwt>0</asrwt>
<pdfrwt beam="1">  1        1 0.19580015E+00 0.28065203E+04</pdfrwt>
<pdfrwt beam="2">  1       -2 0.23803272E+00 0.28065203E+04</pdfrwt>
<totfact> 0.54755413E-01</totfact>
</mgrwt>
</event>
<event>
12    5  0.5041746E-008  0.2891180E+04  0.7818608E-02  0.8275507E-01
         -2   -1    0    0    0  501 -0.00000000000E+00  0.00000000000E+00  0.56492144612E+03  0.56492144612E+03  0.00000000000E+00 0.  1.
          1   -1    0    0  501    0  0.00000000000E+00 -0.00000000000E+00 -0.36991511794E+04  0.36991511794E+04  0.00000000000E+00 0. -1.
        -24    2    1    2    0    0 -0.29594908477E+03 -0.98773771710E+03 -0.23883084174E+03  0.10614467606E+04  0.80108651715E+02 0.  0.
        254    2    1    2    0    0  0.29594908477E+03  0.98773771710E+03 -0.28953988915E+04  0.32026258649E+04  0.90014778286E+03 0.  0.
         23    2    4    4    0    0  0.59088150292E+03  0.64869340129E+03 -0.15808556791E+04  0.18103332322E+04  0.90871636899E+02 0.  0.
         23    2    4    4    0    0 -0.29493241815E+03  0.33904431581E+03 -0.13145432125E+04  0.13922926327E+04  0.92297010642E+02 0.  0.
          1    1    3    3  502    0 -0.97032401250E+02 -0.44931046674E+03 -0.12363741948E+03  0.47600566584E+03  0.00000000000E+00 0. -1.
         -2    1    3    3    0  502 -0.19891668352E+03 -0.53842725036E+03 -0.11519342226E+03  0.58544109477E+03  0.00000000000E+00 0.  1.
         13    1    5    5    0    0  0.13661922445E+01  0.10498539535E+02 -0.72890815328E+01  0.12853657970E+02  0.00000000000E+00 0. -1.
        -13    1    5    5    0    0  0.58951531067E+03  0.63819486175E+03 -0.15735665975E+04  0.17974795743E+04  0.00000000000E+00 0.  1.
          3    1    6    6  503    0 -0.21325371298E+02 -0.19746955430E+01 -0.54855661805E+02  0.58888152590E+02  0.00000000000E+00 0. -1.
         -3    1    6    6    0  503 -0.27360704685E+03  0.34101901135E+03 -0.12596875507E+04  0.13334044801E+04  0.00000000000E+00 0.  1.
<mgrwt>
<rscale>  0 0.28911796E+04</rscale>
<asrwt>0</asrwt>
<pdfrwt beam="1">  1        1 0.56910020E+00 0.28911796E+04</pdfrwt>
<pdfrwt beam="2">  1       -2 0.86910989E-01 0.28911796E+04</pdfrwt>
<totfact> 0.14953985E-01</totfact>
</mgrwt>
</event>
<event>
12    5  0.5041746E-008  0.1078424E+04  0.7818608E-02  0.9226480E-01
          1   -1    0    0  501    0  0.00000000000E+00  0.00000000000E+00  0.79824090883E+03  0.79824090883E+03  0.00000000000E+00 0. -1.
         -2   -1    0    0    0  501 -0.00000000000E+00 -0.00000000000E+00 -0.36423787407E+03  0.36423787407E+03  0.00000000000E+00 0.  1.
        -24    2    1    2    0    0  0.57071422039E+02 -0.21611513505E+02 -0.66953637109E+02  0.11731639679E+03  0.74539537858E+02 0.  0.
        254    2    1    2    0    0 -0.57071422039E+02  0.21611513505E+02  0.50095667186E+03  0.10451623861E+04  0.91525003224E+03 0.  0.
         23    2    4    4    0    0  0.23042486081E+03  0.95724634159E+02  0.64944834744E+03  0.70161746429E+03  0.90692271674E+02 0.  0.
         23    2    4    4    0    0 -0.28749628285E+03 -0.74113120654E+02 -0.14849167558E+03  0.34354492181E+03  0.88467328881E+02 0.  0.
          1    1    3    3  502    0  0.33527911783E+02 -0.50353932663E+01  0.98393491144E+01  0.35302816387E+02  0.00000000000E+00 0. -1.
         -2    1    3    3    0  502  0.23543510256E+02 -0.16576120239E+02 -0.76792986224E+02  0.82013580403E+02  0.00000000000E+00 0.  1.
         13    1    5    5    0    0  0.14676555748E+01  0.71173321490E+01  0.94625607061E+02  0.94904246172E+02  0.00000000000E+00 0. -1.
        -13    1    5    5    0    0  0.22895720524E+03  0.88607302010E+02  0.55482274038E+03  0.60671321812E+03  0.00000000000E+00 0.  1.
          4    1    6    6  503    0 -0.10569943159E+03 -0.69759608235E+02 -0.76553414907E+02  0.14798377652E+03  0.00000000000E+00 0. -1.
         -4    1    6    6    0  503 -0.18179685126E+03 -0.43535124192E+01 -0.71938260675E+02  0.19556114529E+03  0.00000000000E+00 0.  1.
<mgrwt>
<rscale>  0 0.10784240E+04</rscale>
<asrwt>0</asrwt>
<pdfrwt beam="1">  1        1 0.12280629E+00 0.10784240E+04</pdfrwt>
<pdfrwt beam="2">  1       -2 0.56036596E-01 0.10784240E+04</pdfrwt>
<totfact> 0.58014750E+01</totfact>
</mgrwt>
</event>
<event>
12    5  0.5041746E-008  0.2137247E+04  0.7818608E-02  0.8545011E-01
         -2   -1    0    0    0  501 -0.00000000000E+00  0.00000000000E+00  0.11641486577E+04  0.11641486577E+04  0.00000000000E+00 0.  1.
          1   -1    0    0  501    0  0.00000000000E+00 -0.00000000000E+00 -0.98093705737E+03  0.98093705737E+03  0.00000000000E+00 0. -1.
        -24    2    1    2    0    0 -0.73076362713E+03  0.26965752043E+03 -0.33676886009E+03  0.85243599519E+03  0.80642443654E+02 0.  0.
        254    2    1    2    0    0  0.73076362713E+03 -0.26965752043E+03  0.51998046039E+03  0.12926497199E+04  0.89097304223E+03 0.  0.
         23    2    4    4    0    0  0.66380532371E+02 -0.17130102563E+03  0.57710372665E+03  0.61229832358E+03  0.90056145149E+02 0.  0.
         23    2    4    4    0    0  0.66438309476E+03 -0.98356494794E+02 -0.57123266259E+02  0.68035139627E+03  0.92390790659E+02 0.  0.
          3    1    3    3  502    0 -0.14113533638E+03  0.79390184876E+02 -0.48128536698E+02  0.16893294727E+03  0.00000000000E+00 0. -1.
         -4    1    3    3    0  502 -0.58962829075E+03  0.19026733555E+03 -0.28864032339E+03  0.68350304792E+03  0.00000000000E+00 0.  1.
         13    1    5    5    0    0  0.16676966470E+02 -0.12174823584E+03  0.26079189739E+03  0.28829354465E+03  0.00000000000E+00 0.  1.
        -13    1    5    5    0    0  0.49703565901E+02 -0.49552789798E+02  0.31631182926E+03  0.32400477893E+03  0.00000000000E+00 0. -1.
          2    1    6    6  503    0  0.47898018452E+03 -0.95405784432E+02 -0.74800096594E+02  0.49408434029E+03  0.00000000000E+00 0. -1.
         -2    1    6    6    0  503  0.18540291023E+03 -0.29507103617E+01  0.17676830336E+02  0.18626705599E+03  0.00000000000E+00 0.  1.
<mgrwt>
<rscale>  0 0.21372473E+04</rscale>
<asrwt>0</asrwt>
<pdfrwt beam="1">  1        1 0.15091339E+00 0.21372473E+04</pdfrwt>
<pdfrwt beam="2">  1       -2 0.17909979E+00 0.21372473E+04</pdfrwt>
<totfact> 0.23150453E+00</totfact>
</mgrwt>
</event>
<event>
12    5  0.5041746E-008  0.3598874E+04  0.7818608E-02  0.8090750E-01
          1   -1    0    0  501    0  0.00000000000E+00  0.00000000000E+00  0.20625447151E+04  0.20625447151E+04  0.00000000000E+00 0. -1.
         -2   -1    0    0    0  501 -0.00000000000E+00 -0.00000000000E+00 -0.15698929534E+04  0.15698929534E+04  0.00000000000E+00 0.  1.
        -24    2    1    2    0    0  0.13977638872E+04  0.67341639325E+03  0.89445372905E+03  0.17938009347E+04  0.10218021648E+03 0.  0.
        254    2    1    2    0    0 -0.13977638872E+04 -0.67341639325E+03 -0.40180196733E+03  0.18386367338E+04  0.90105865218E+03 0.  0.
         23    2    4    4    0    0  0.31649107331E+01 -0.22487387080E+03  0.12462593934E+03  0.27334417524E+03  0.92774667606E+02 0.  0.
         23    2    4    4    0    0 -0.14009287980E+04 -0.44854252245E+03 -0.52642790668E+03  0.15652925585E+04  0.96034168263E+02 0.  0.
          1    1    3    3  502    0  0.11096745186E+04  0.52649774329E+03  0.65976026580E+03  0.13942241639E+04  0.00000000000E+00 0. -1.
         -2    1    3    3    0  502  0.28808936858E+03  0.14691864996E+03  0.23469346325E+03  0.39957677071E+03  0.00000000000E+00 0.  1.
         13    1    5    5    0    0 -0.16806168872E+02 -0.17227011041E+03  0.50544349014E+02  0.18031685853E+03  0.00000000000E+00 0. -1.
        -13    1    5    5    0    0  0.19971079605E+02 -0.52603760390E+02  0.74081590329E+02  0.93027316705E+02  0.00000000000E+00 0.  1.
          3    1    6    6  503    0 -0.20090881606E+03 -0.56424064485E+02 -0.11017638751E+03  0.23598064282E+03  0.00000000000E+00 0. -1.
         -3    1    6    6    0  503 -0.12000199819E+04 -0.39211845797E+03 -0.41625151917E+03  0.13293119157E+04  0.00000000000E+00 0.  1.
<mgrwt>
<rscale>  0 0.35988745E+04</rscale>
<asrwt>0</asrwt>
<pdfrwt beam="1">  1        1 0.31731457E+00 0.35988745E+04</pdfrwt>
<pdfrwt beam="2">  1       -2 0.24152199E+00 0.35988745E+04</pdfrwt>
<totfact> 0.13936657E-01</totfact>
</mgrwt>
</event>
<event>
12    5  0.5041746E-008  0.2491227E+04  0.7818608E-02  0.8406118E-01
          1   -1    0    0  501    0  0.00000000000E+00  0.00000000000E+00  0.59458918828E+03  0.59458918828E+03  0.00000000000E+00 0. -1.
         -2   -1    0    0    0  501 -0.00000000000E+00 -0.00000000000E+00 -0.26094537279E+04  0.26094537279E+04  0.00000000000E+00 0.  1.
        -24    2    1    2    0    0  0.33313570922E+03 -0.10256585308E+04 -0.85485027376E+03  0.13784475629E+04  0.79961681976E+02 0.  0.
        254    2    1    2    0    0 -0.33313570922E+03  0.10256585308E+04 -0.11600142659E+04  0.18255953533E+04  0.90786038269E+03 0.  0.
         23    2    4    4    0    0 -0.38529430286E+03  0.10931255787E+04 -0.71853538452E+03  0.13667314094E+04  0.91029753104E+02 0.  0.
         23    2    4    4    0    0  0.52158593646E+02 -0.67467047895E+02 -0.44147888134E+03  0.45886394394E+03  0.91543404651E+02 0.  0.
          3    1    3    3  502    0 -0.12984605745E+01 -0.47065260820E+02 -0.41488523618E+02  0.62754460940E+02  0.00000000000E+00 0. -1.
         -4    1    3    3    0  502  0.33443416979E+03 -0.97859326995E+03 -0.81336175014E+03  0.13156931019E+04  0.00000000000E+00 0.  1.
         13    1    5    5    0    0 -0.38718470578E+03  0.10552238440E+04 -0.68656627923E+03  0.13171114657E+04  0.00000000000E+00 0. -1.
        -13    1    5    5    0    0  0.18904029144E+01  0.37901734692E+02 -0.31969105295E+02  0.49619943663E+02  0.00000000000E+00 0.  1.
          4    1    6    6  503    0  0.39905198047E+02 -0.44316557161E+01 -0.30948341240E+03  0.31207698882E+03  0.00000000000E+00 0. -1.
         -4    1    6    6    0  503  0.12253395599E+02 -0.63035392179E+02 -0.13199546894E+03  0.14678695512E+03  0.00000000000E+00 0.  1.
<mgrwt>
<rscale>  0 0.24912270E+04</rscale>
<asrwt>0</asrwt>
<pdfrwt beam="1">  1        1 0.91475260E-01 0.24912270E+04</pdfrwt>
<pdfrwt beam="2">  1       -2 0.40145442E+00 0.24912270E+04</pdfrwt>
<totfact> 0.19639596E-01</totfact>
</mgrwt>
</event>
<event>
12    5  0.5041746E-008  0.2050939E+04  0.7818608E-02  0.8583169E-01
          3   -1    0    0  501    0  0.00000000000E+00  0.00000000000E+00  0.14840143451E+04  0.14840143451E+04  0.00000000000E+00 0. -1.
         -4   -1    0    0    0  501 -0.00000000000E+00 -0.00000000000E+00 -0.70860989064E+03  0.70860989064E+03  0.00000000000E+00 0.  1.
        -24    2    1    2    0    0  0.63478821992E+03  0.51636480567E+03  0.40520815338E+03  0.91601486140E+03  0.72807156651E+02 0.  0.
        254    2    1    2    0    0 -0.63478821992E+03 -0.51636480567E+03  0.37019630105E+03  0.12766093743E+04  0.90724720807E+03 0.  0.
         23    2    4    4    0    0 -0.13113110888E+03 -0.65680596962E+03  0.30536357762E+03  0.74174294984E+03  0.91357756416E+02 0.  0.
         23    2    4    4    0    0 -0.50365711104E+03  0.14044116394E+03  0.64832723428E+02  0.53486642446E+03  0.92111909966E+02 0.  0.
          3    1    3    3  502    0  0.46154791942E+03  0.36096923729E+03  0.32385098263E+03  0.66948094159E+03  0.00000000000E+00 0. -1.
         -4    1    3    3    0  502  0.17324030049E+03  0.15539556838E+03  0.81357170748E+02  0.24653391982E+03  0.00000000000E+00 0.  1.
         13    1    5    5    0    0 -0.30511434931E+02 -0.38337040499E+02  0.15890430180E+02  0.51509048788E+02  0.00000000000E+00 0. -1.
        -13    1    5    5    0    0 -0.10061967395E+03 -0.61846892912E+03  0.28947314744E+03  0.69023390105E+03  0.00000000000E+00 0.  1.
          2    1    6    6  503    0 -0.58100917065E+02  0.35115210491E+02 -0.16494570827E+02  0.69863190870E+02  0.00000000000E+00 0. -1.
         -2    1    6    6    0  503 -0.44555619397E+03  0.10532595345E+03  0.81327294255E+02  0.46500323359E+03  0.00000000000E+00 0.  1.
<mgrwt>
<rscale>  0 0.20509386E+04</rscale>
<asrwt>0</asrwt>
<pdfrwt beam="1">  1        3 0.22830990E+00 0.20509386E+04</pdfrwt>
<pdfrwt beam="2">  1       -4 0.10901691E+00 0.20509386E+04</pdfrwt>
<totfact> 0.14047401E-01</totfact>
</mgrwt>
</event>
<event>
12    5  0.5041746E-008  0.1687444E+04  0.7818608E-02  0.8768558E-01
          1   -1    0    0  501    0  0.00000000000E+00  0.00000000000E+00  0.10456735231E+04  0.10456735231E+04  0.00000000000E+00 0. -1.
         -2   -1    0    0    0  501 -0.00000000000E+00 -0.00000000000E+00 -0.68077332800E+03  0.68077332800E+03  0.00000000000E+00 0.  1.
        -24    2    1    2    0    0  0.18563899619E+03  0.35916386721E+03  0.58879521605E+03  0.71870565974E+03  0.79984364024E+02 0.  0.
        254    2    1    2    0    0 -0.18563899619E+03 -0.35916386721E+03 -0.22389502094E+03  0.10077411914E+04  0.89551817848E+03 0.  0.
         23    2    4    4    0    0  0.20400668177E+03 -0.30772198254E+03 -0.41530849092E+03  0.56303050930E+03  0.90612731015E+02 0.  0.
         23    2    4    4    0    0 -0.38964567796E+03 -0.51441884667E+02  0.19141346998E+03  0.44471068208E+03  0.81599340781E+02 0.  0.
          3    1    3    3  502    0  0.98992778641E+02  0.16674182859E+03  0.34917839962E+03  0.39940951714E+03  0.00000000000E+00 0. -1.
         -4    1    3    3    0  502  0.86646217544E+02  0.19242203862E+03  0.23961681643E+03  0.31929614260E+03  0.00000000000E+00 0.  1.
         13    1    5    5    0    0  0.45310393901E+02 -0.33412846086E+02 -0.10693518566E+03  0.12084942702E+03  0.00000000000E+00 0.  1.
        -13    1    5    5    0    0  0.15869628787E+03 -0.27430913645E+03 -0.30837330526E+03  0.44218108228E+03  0.00000000000E+00 0. -1.
          1    1    6    6  503    0 -0.36397131630E+03 -0.28292544718E+02  0.18599439724E+03  0.40971880965E+03  0.00000000000E+00 0. -1.
         -1    1    6    6    0  503 -0.25674361658E+02 -0.23149339950E+02  0.54190727336E+01  0.34991872427E+02  0.00000000000E+00 0.  1.
<mgrwt>
<rscale>  0 0.16874438E+04</rscale>
<asrwt>0</asrwt>
<pdfrwt beam="1">  1        1 0.16087285E+00 0.16874438E+04</pdfrwt>
<pdfrwt beam="2">  1       -2 0.10473436E+00 0.16874438E+04</pdfrwt>
<totfact> 0.86142318E+00</totfact>
</mgrwt>
</event>
<event>
12    5  0.5041746E-008  0.1321509E+04  0.7818608E-02  0.9012680E-01
         -2   -1    0    0    0  501 -0.00000000000E+00  0.00000000000E+00  0.36770046665E+03  0.36770046665E+03  0.00000000000E+00 0.  1.
          1   -1    0    0  501    0  0.00000000000E+00 -0.00000000000E+00 -0.11873697008E+04  0.11873697008E+04  0.00000000000E+00 0. -1.
        -24    2    1    2    0    0  0.19498317897E+02  0.60389215524E+02  0.18843706400E+03  0.21463207472E+03  0.80816821608E+02 0.  0.
        254    2    1    2    0    0 -0.19498317897E+02 -0.60389215524E+02 -0.10081062982E+04  0.13404380928E+04  0.88117474450E+03 0.  0.
         23    2    4    4    0    0 -0.24223137006E+03  0.11193652408E+02 -0.10546511668E+04  0.10854660094E+04  0.84534249036E+02 0.  0.
         23    2    4    4    0    0  0.22273305216E+03 -0.71582867932E+02  0.46544868650E+02  0.25497208341E+03  0.90056754408E+02 0.  0.
          3    1    3    3  502    0 -0.15254029587E+02  0.17593341141E+02  0.59979632940E+01  0.24045511740E+02  0.00000000000E+00 0. -1.
         -4    1    3    3    0  502  0.34752347484E+02  0.42795874383E+02  0.18243910071E+03  0.19058656298E+03  0.00000000000E+00 0.  1.
         13    1    5    5    0    0 -0.14362555559E+03  0.90048915645E+01 -0.79070802189E+03  0.80369681110E+03  0.00000000000E+00 0. -1.
        -13    1    5    5    0    0 -0.98605814470E+02  0.21887608438E+01 -0.26394314495E+03  0.28176919826E+03  0.00000000000E+00 0.  1.
          1    1    6    6  503    0  0.12050262433E+03 -0.42027756313E+02  0.70631855541E+02  0.14586320231E+03  0.00000000000E+00 0. -1.
         -1    1    6    6    0  503  0.10223042783E+03 -0.29555111619E+02 -0.24086986891E+02  0.10910888110E+03  0.00000000000E+00 0.  1.
<mgrwt>
<rscale>  0 0.13215088E+04</rscale>
<asrwt>0</asrwt>
<pdfrwt beam="1">  1        1 0.18267226E+00 0.13215088E+04</pdfrwt>
<pdfrwt beam="2">  1       -2 0.56569302E-01 0.13215088E+04</pdfrwt>
<totfact> 0.27530632E+01</totfact>
</mgrwt>
</event>
<event>
12    5  0.5041746E-008  0.1775713E+04  0.7818608E-02  0.8719323E-01
          1   -1    0    0  501    0  0.00000000000E+00  0.00000000000E+00  0.31315400088E+04  0.31315400088E+04  0.00000000000E+00 0. -1.
         -2   -1    0    0    0  501 -0.00000000000E+00 -0.00000000000E+00 -0.25172571056E+03  0.25172571056E+03  0.00000000000E+00 0.  1.
        -24    2    1    2    0    0 -0.79278201032E+02  0.45391448029E+03  0.19316380608E+04  0.19875748014E+04  0.83093950339E+02 0.  0.
        254    2    1    2    0    0  0.79278201032E+02 -0.45391448029E+03  0.94817623740E+03  0.13956909179E+04  0.91465379936E+03 0.  0.
         23    2    4    4    0    0 -0.18041481684E+03 -0.62899032304E+03  0.79972251428E+03  0.10369671885E+04  0.86985731954E+02 0.  0.
         23    2    4    4    0    0  0.25969301787E+03  0.17507584275E+03  0.14845372312E+03  0.35872372944E+03  0.92478061780E+02 0.  0.
          1    1    3    3  502    0 -0.12910864308E+02  0.14165176106E+03  0.76153343478E+03  0.77470322326E+03  0.00000000000E+00 0. -1.
         -2    1    3    3    0  502 -0.66367336723E+02  0.31226271923E+03  0.11701046260E+04  0.12128715781E+04  0.00000000000E+00 0.  1.
         13    1    5    5    0    0 -0.11646807597E+03 -0.28584074124E+03  0.33143708122E+03  0.45290206544E+03  0.00000000000E+00 0.  1.
        -13    1    5    5    0    0 -0.63946740874E+02 -0.34314958180E+03  0.46828543306E+03  0.58406512306E+03  0.00000000000E+00 0. -1.
          2    1    6    6  503    0  0.22867097497E+03  0.18382081914E+03  0.12526053066E+03  0.31901521732E+03  0.00000000000E+00 0. -1.
         -2    1    6    6    0  503  0.31022042907E+02 -0.87449763938E+01  0.23193192462E+02  0.39708512121E+02  0.00000000000E+00 0.  1.
<mgrwt>
<rscale>  0 0.17757130E+04</rscale>
<asrwt>0</asrwt>
<pdfrwt beam="1">  1        1 0.48177536E+00 0.17757130E+04</pdfrwt>
<pdfrwt beam="2">  1       -2 0.38727035E-01 0.17757130E+04</pdfrwt>
<totfact> 0.25125690E+00</totfact>
</mgrwt>
</event>
<event>
12    5  0.5041746E-008  0.1753250E+04  0.7818608E-02  0.8731563E-01
         -2   -1    0    0    0  501 -0.00000000000E+00  0.00000000000E+00  0.48947930603E+03  0.48947930603E+03  0.00000000000E+00 0.  1.
          1   -1    0    0  501    0  0.00000000000E+00 -0.00000000000E+00 -0.15699776270E+04  0.15699776270E+04  0.00000000000E+00 0. -1.
        -24    2    1    2    0    0 -0.99624650109E+02 -0.62324153083E+02  0.34142039695E+03  0.36963046500E+03  0.79053287311E+02 0.  0.
        254    2    1    2    0    0  0.99624650109E+02  0.62324153083E+02 -0.14219187179E+04  0.16898264680E+04  0.90545639359E+03 0.  0.
         23    2    4    4    0    0  0.44761101933E+02 -0.35121895271E+03 -0.25037127359E+03  0.44310082686E+03  0.91072823271E+02 0.  0.
         23    2    4    4    0    0  0.54863548176E+02  0.41354310579E+03 -0.11715474443E+04  0.12467256412E+04  0.88167458550E+02 0.  0.
          1    1    3    3  502    0 -0.70519481790E+01 -0.21793927324E+02  0.13717820566E+02  0.26699884689E+02  0.00000000000E+00 0. -1.
         -2    1    3    3    0  502 -0.92572701929E+02 -0.40530225759E+02  0.32770257638E+03  0.34293058031E+03  0.00000000000E+00 0.  1.
         13    1    5    5    0    0 -0.24613637537E+01 -0.94314415325E+02 -0.23756770060E+02  0.97291579149E+02  0.00000000000E+00 0. -1.
        -13    1    5    5    0    0  0.47222465687E+02 -0.25690453738E+03 -0.22661450353E+03  0.34580924771E+03  0.00000000000E+00 0.  1.
          1    1    6    6  503    0  0.20514335847E+02  0.27597322818E+02 -0.55075762467E+02  0.64929113757E+02  0.00000000000E+00 0. -1.
         -1    1    6    6    0  503  0.34349212328E+02  0.38594578297E+03 -0.11164716819E+04  0.11817965274E+04  0.00000000000E+00 0.  1.
<mgrwt>
<rscale>  0 0.17532502E+04</rscale>
<asrwt>0</asrwt>
<pdfrwt beam="1">  1        1 0.24153502E+00 0.17532502E+04</pdfrwt>
<pdfrwt beam="2">  1       -2 0.75304507E-01 0.17532502E+04</pdfrwt>
<totfact> 0.76996217E+00</totfact>
</mgrwt>
</event>
<event>
12    5  0.5041746E-008  0.1391518E+04  0.7818608E-02  0.8959981E-01
         -4   -1    0    0    0  501 -0.00000000000E+00  0.00000000000E+00  0.50474937978E+03  0.50474937978E+03  0.00000000000E+00 0.  1.
          3   -1    0    0  501    0  0.00000000000E+00 -0.00000000000E+00 -0.95905198056E+03  0.95905198056E+03  0.00000000000E+00 0. -1.
        -24    2    1    2    0    0  0.34305773810E+03  0.23103138374E+03 -0.53972359622E+02  0.42483724281E+03  0.80681815353E+02 0.  0.
        254    2    1    2    0    0 -0.34305773810E+03 -0.23103138374E+03 -0.40033024115E+03  0.10389641175E+04  0.86493816172E+03 0.  0.
         23    2    4    4    0    0 -0.50784450375E+03 -0.37881242649E+03 -0.89155873143E+02  0.64633031601E+03  0.91592648294E+02 0.  0.
         23    2    4    4    0    0  0.16478676564E+03  0.14778104276E+03 -0.31117436801E+03  0.39263380153E+03  0.91312102517E+02 0.  0.
          1    1    3    3  502    0  0.26978336179E+03  0.15479029791E+03 -0.12609207094E+02  0.31129100650E+03  0.00000000000E+00 0. -1.
         -2    1    3    3    0  502  0.73274376316E+02  0.76241085824E+02 -0.41363152528E+02  0.11354623631E+03  0.00000000000E+00 0.  1.
         13    1    5    5    0    0 -0.49247500061E+03 -0.34963938740E+03 -0.98749042729E+02  0.61198913462E+03  0.00000000000E+00 0.  1.
        -13    1    5    5    0    0 -0.15369503134E+02 -0.29173039090E+02  0.95931695865E+01  0.34341181387E+02  0.00000000000E+00 0. -1.
          1    1    6    6  503    0  0.17329818221E+03  0.12327109159E+03 -0.26630076570E+03  0.34079923678E+03  0.00000000000E+00 0.  1.
         -1    1    6    6    0  503 -0.85114165642E+01  0.24509951166E+02 -0.44873602314E+02  0.51834564749E+02  0.00000000000E+00 0. -1.
<mgrwt>
<rscale>  0 0.13915184E+04</rscale>
<asrwt>0</asrwt>
<pdfrwt beam="1">  1        3 0.14754646E+00 0.13915184E+04</pdfrwt>
<pdfrwt beam="2">  1       -4 0.77653750E-01 0.13915184E+04</pdfrwt>
<totfact> 0.11179073E+00</totfact>
</mgrwt>
</event>
<event>
12    5  0.5041746E-008  0.2367920E+04  0.7818608E-02  0.8451612E-01
          1   -1    0    0  501    0  0.00000000000E+00  0.00000000000E+00  0.14107920682E+04  0.14107920682E+04  0.00000000000E+00 0. -1.
         -2   -1    0    0    0  501 -0.00000000000E+00 -0.00000000000E+00 -0.99359911866E+03  0.99359911866E+03  0.00000000000E+00 0.  1.
        -24    2    1    2    0    0 -0.64914061041E+03 -0.32706609073E+03  0.88353682506E+03  0.11468916238E+04  0.79795461960E+02 0.  0.
        254    2    1    2    0    0  0.64914061041E+03  0.32706609073E+03 -0.46634387551E+03  0.12574995631E+04  0.91404200181E+03 0.  0.
         23    2    4    4    0    0 -0.70257686559E+02 -0.22379424106E+03 -0.49542735319E+02  0.25595373984E+03  0.89653942803E+02 0.  0.
         23    2    4    4    0    0  0.71939829697E+03  0.55086033180E+03 -0.41680114019E+03  0.10015458232E+04  0.91596019121E+02 0.  0.
          1    1    3    3  502    0 -0.58030364465E+03 -0.31343219541E+03  0.81905168643E+03  0.10515881923E+04  0.00000000000E+00 0. -1.
         -2    1    3    3    0  502 -0.68836965766E+02 -0.13633895325E+02  0.64485138627E+02  0.95303431530E+02  0.00000000000E+00 0.  1.
         13    1    5    5    0    0 -0.24889754741E+02 -0.11820485765E+03 -0.69420967677E+02  0.13932393555E+03  0.00000000000E+00 0.  1.
        -13    1    5    5    0    0 -0.45367931818E+02 -0.10558938341E+03  0.19878232359E+02  0.11662980429E+03  0.00000000000E+00 0. -1.
          4    1    6    6  503    0  0.15159660098E+03  0.15869369829E+03 -0.12252210591E+03  0.25135012581E+03  0.00000000000E+00 0. -1.
         -4    1    6    6    0  503  0.56780169599E+03  0.39216663350E+03 -0.29427903428E+03  0.75019569741E+03  0.00000000000E+00 0.  1.
<mgrwt>
<rscale>  0 0.23679204E+04</rscale>
<asrwt>0</asrwt>
<pdfrwt beam="1">  1        1 0.21704493E+00 0.23679204E+04</pdfrwt>
<pdfrwt beam="2">  1       -2 0.15286140E+00 0.23679204E+04</pdfrwt>
<totfact> 0.16969205E+00</totfact>
</mgrwt>
</event>
<event>
12    5  0.5041746E-008  0.1645433E+04  0.7818608E-02  0.8793113E-01
          1   -1    0    0  501    0  0.00000000000E+00  0.00000000000E+00  0.87158350299E+03  0.87158350299E+03  0.00000000000E+00 0. -1.
         -2   -1    0    0    0  501 -0.00000000000E+00 -0.00000000000E+00 -0.77658903630E+03  0.77658903630E+03  0.00000000000E+00 0.  1.
        -24    2    1    2    0    0  0.54308338374E+02 -0.55092656126E+03  0.17457042945E+03  0.58621502394E+03  0.81876418679E+02 0.  0.
        254    2    1    2    0    0 -0.54308338374E+02  0.55092656126E+03 -0.79575962763E+02  0.10619575153E+04  0.90274689644E+03 0.  0.
         23    2    4    4    0    0 -0.32991747536E+03 -0.75919048500E+02  0.63217315787E+02  0.35656262331E+03  0.92364673177E+02 0.  0.
         23    2    4    4    0    0  0.27560913699E+03  0.62684560976E+03 -0.14279327855E+03  0.70539489204E+03  0.91083579451E+02 0.  0.
          3    1    3    3  502    0  0.58908857849E+02 -0.53206774645E+03  0.15207253818E+03  0.55650013226E+03  0.00000000000E+00 0. -1.
         -4    1    3    3    0  502 -0.46005194752E+01 -0.18858814817E+02  0.22497891275E+02  0.29714891681E+02  0.00000000000E+00 0.  1.
         13    1    5    5    0    0 -0.17488202605E+03 -0.79043347454E+02  0.61354995909E+02  0.20148451388E+03  0.00000000000E+00 0.  1.
        -13    1    5    5    0    0 -0.15503544931E+03  0.31242989541E+01  0.18623198777E+01  0.15507810943E+03  0.00000000000E+00 0. -1.
          1    1    6    6  503    0  0.36273806997E+02  0.14612689016E+03 -0.59864683094E+02  0.16202665640E+03  0.00000000000E+00 0. -1.
         -1    1    6    6    0  503  0.23933532999E+03  0.48071871960E+03 -0.82928595456E+02  0.54336823564E+03  0.00000000000E+00 0.  1.
<mgrwt>
<rscale>  0 0.16454327E+04</rscale>
<asrwt>0</asrwt>
<pdfrwt beam="1">  1        1 0.13408977E+00 0.16454327E+04</pdfrwt>
<pdfrwt beam="2">  1       -2 0.11947524E+00 0.16454327E+04</pdfrwt>
<totfact> 0.86367835E+00</totfact>
</mgrwt>
</event>
<event>
12    5  0.5041746E-008  0.1678452E+04  0.7818608E-02  0.8773751E-01
          3   -1    0    0  501    0  0.00000000000E+00  0.00000000000E+00  0.23262775628E+04  0.23262775628E+04  0.00000000000E+00 0. -1.
         -4   -1    0    0    0  501 -0.00000000000E+00 -0.00000000000E+00 -0.30275833006E+03  0.30275833006E+03  0.00000000000E+00 0.  1.
        -24    2    1    2    0    0  0.18742988214E+03  0.52090084350E+02  0.16077125334E+04  0.16213968249E+04  0.79653853223E+02 0.  0.
        254    2    1    2    0    0 -0.18742988214E+03 -0.52090084350E+02  0.41580669934E+03  0.10076390679E+04  0.89699383628E+03 0.  0.
         23    2    4    4    0    0  0.35115285147E+03 -0.81905674758E+02  0.18048907723E+03  0.41222948944E+03  0.85673685066E+02 0.  0.
         23    2    4    4    0    0 -0.53858273361E+03  0.29815590409E+02  0.23531762211E+03  0.59540957846E+03  0.90431479402E+02 0.  0.
          3    1    3    3  502    0  0.18458458101E+03  0.30009917962E+02  0.13835087854E+04  0.13960904777E+04  0.00000000000E+00 0. -1.
         -4    1    3    3    0  502  0.28453011328E+01  0.22080166387E+02  0.22420374799E+03  0.22530634723E+03  0.00000000000E+00 0.  1.
         13    1    5    5    0    0  0.56584582966E+02 -0.62432855721E+01 -0.30482836334E+01  0.57009522689E+02  0.00000000000E+00 0.  1.
        -13    1    5    5    0    0  0.29456826850E+03 -0.75662389186E+02  0.18353736086E+03  0.35521996675E+03  0.00000000000E+00 0. -1.
          1    1    6    6  503    0 -0.49842804352E+03  0.44250066558E+02  0.19605916941E+03  0.53742700050E+03  0.00000000000E+00 0. -1.
         -1    1    6    6    0  503 -0.40154690093E+02 -0.14434476149E+02  0.39258452701E+02  0.57982577958E+02  0.00000000000E+00 0.  1.
<mgrwt>
<rscale>  0 0.16784516E+04</rscale>
<asrwt>0</asrwt>
<pdfrwt beam="1">  1        3 0.35788884E+00 0.16784516E+04</pdfrwt>
<pdfrwt beam="2">  1       -4 0.46578206E-01 0.16784516E+04</pdfrwt>
<totfact> 0.18377779E-01</totfact>
</mgrwt>
</event>
<event>
12    5  0.5041746E-008  0.1324932E+04  0.7818608E-02  0.9010025E-01
         -2   -1    0    0    0  501 -0.00000000000E+00  0.00000000000E+00  0.51061295499E+03  0.51061295499E+03  0.00000000000E+00 0.  1.
          1   -1    0    0  501    0  0.00000000000E+00 -0.00000000000E+00 -0.85947868588E+03  0.85947868588E+03  0.00000000000E+00 0. -1.
        -24    2    1    2    0    0 -0.76496260985E+01  0.33948005486E+02 -0.44682173611E+03  0.45512182223E+03  0.79216319985E+02 0.  0.
        254    2    1    2    0    0  0.76496260985E+01 -0.33948005486E+02  0.97956005222E+02  0.91496981864E+03  0.90904532682E+03 0.  0.
         23    2    4    4    0    0 -0.34190341226E+02  0.36680513312E+03 -0.17817911910E+03  0.41787604831E+03  0.84602648604E+02 0.  0.
         23    2    4    4    0    0  0.41839967325E+02 -0.40075313861E+03  0.27613512433E+03  0.49709377033E+03  0.92184318868E+02 0.  0.
          1    1    3    3  502    0  0.13137481881E+01  0.40465268165E+02 -0.44051316533E+03  0.44236976919E+03  0.00000000000E+00 0. -1.
         -4    1    3    3    0  502 -0.89633742866E+01 -0.65172626795E+01 -0.63085707778E+01  0.12752053038E+02  0.00000000000E+00 0.  1.
         13    1    5    5    0    0  0.34990679667E+01  0.83410139853E+02 -0.50191661396E+01  0.83634244993E+02  0.00000000000E+00 0. -1.
        -13    1    5    5    0    0 -0.37689409193E+02  0.28339499327E+03 -0.17315995296E+03  0.33424180332E+03  0.00000000000E+00 0.  1.
          4    1    6    6  503    0  0.34351708348E+01 -0.30738598823E+03  0.17287324698E+03  0.35267989123E+03  0.00000000000E+00 0. -1.
         -4    1    6    6    0  503  0.38404796490E+02 -0.93367150379E+02  0.10326187734E+03  0.14441387910E+03  0.00000000000E+00 0.  1.
<mgrwt>
<rscale>  0 0.13249316E+04</rscale>
<asrwt>0</asrwt>
<pdfrwt beam="1">  1        1 0.13222749E+00 0.13249316E+04</pdfrwt>
<pdfrwt beam="2">  1       -2 0.78555840E-01 0.13249316E+04</pdfrwt>
<totfact> 0.24336931E+01</totfact>
</mgrwt>
</event>
<event>
12    5  0.5041746E-008  0.1643273E+04  0.7818608E-02  0.8794396E-01
          1   -1    0    0  501    0  0.00000000000E+00  0.00000000000E+00  0.76272869610E+03  0.76272869610E+03  0.00000000000E+00 0. -1.
         -2   -1    0    0    0  501 -0.00000000000E+00 -0.00000000000E+00 -0.88509381275E+03  0.88509381275E+03  0.00000000000E+00 0.  1.
        -24    2    1    2    0    0  0.12295827656E+03 -0.49432082486E+03  0.22886592780E+03  0.56433569687E+03  0.81383967588E+02 0.  0.
        254    2    1    2    0    0 -0.12295827656E+03  0.49432082486E+03 -0.35123104445E+03  0.10834868120E+04  0.88944286465E+03 0.  0.
         23    2    4    4    0    0 -0.45081135189E+03  0.49606727290E+03 -0.16643709641E+03  0.69650780772E+03  0.90045571331E+02 0.  0.
         23    2    4    4    0    0  0.32785307532E+03 -0.17464480394E+01 -0.18479394804E+03  0.38697900426E+03  0.90073622248E+02 0.  0.
          1    1    3    3  502    0  0.73755231990E+02 -0.29138155783E+03  0.17831867957E+03  0.34948619139E+03  0.00000000000E+00 0. -1.
         -2    1    3    3    0  502  0.49203044574E+02 -0.20293926704E+03  0.50547248234E+02  0.21484950548E+03  0.00000000000E+00 0.  1.
         13    1    5    5    0    0 -0.45183831294E+03  0.49088236916E+03 -0.15654990825E+03  0.68529645787E+03  0.00000000000E+00 0.  1.
        -13    1    5    5    0    0  0.10269610473E+01  0.51849037395E+01 -0.98871881617E+01  0.11211349853E+02  0.00000000000E+00 0. -1.
          2    1    6    6  503    0  0.11499400952E+03  0.25739892575E+02 -0.10552372403E+03  0.15818160648E+03  0.00000000000E+00 0. -1.
         -2    1    6    6    0  503  0.21285906581E+03 -0.27486340615E+02 -0.79270224008E+02  0.22879739778E+03  0.00000000000E+00 0.  1.
<mgrwt>
<rscale>  0 0.16432729E+04</rscale>
<asrwt>0</asrwt>
<pdfrwt beam="1">  1        1 0.11734288E+00 0.16432729E+04</pdfrwt>
<pdfrwt beam="2">  1       -2 0.13616828E+00 0.16432729E+04</pdfrwt>
<totfact> 0.77062693E+00</totfact>
</mgrwt>
</event>
<event>
12    5  0.5041746E-008  0.2250496E+04  0.7818608E-02  0.8497700E-01
          1   -1    0    0  501    0  0.00000000000E+00  0.00000000000E+00  0.15523712440E+04  0.15523712440E+04  0.00000000000E+00 0. -1.
         -2   -1    0    0    0  501 -0.00000000000E+00 -0.00000000000E+00 -0.81564428080E+03  0.81564428080E+03  0.00000000000E+00 0.  1.
        -24    2    1    2    0    0  0.41593173761E+03 -0.20209178493E+03 -0.55589743612E+03  0.72686933851E+03  0.74005242321E+02 0.  0.
        254    2    1    2    0    0 -0.41593173761E+03  0.20209178493E+03  0.12926243993E+04  0.16411461863E+04  0.89924561002E+03 0.  0.
         23    2    4    4    0    0 -0.31904395402E+03 -0.27705025896E+03  0.28675176786E+03  0.51893599708E+03  0.92315232280E+02 0.  0.
         23    2    4    4    0    0 -0.96887783594E+02  0.47914204389E+03  0.10058726314E+04  0.11222101892E+04  0.92798799582E+02 0.  0.
          3    1    3    3  502    0  0.29595851182E+03 -0.11907242816E+03 -0.33931388464E+03  0.46572910171E+03  0.00000000000E+00 0. -1.
         -4    1    3    3    0  502  0.11997322579E+03 -0.83019356772E+02 -0.21658355148E+03  0.26114023680E+03  0.00000000000E+00 0.  1.
         13    1    5    5    0    0 -0.53305204519E+02 -0.98404411524E+02  0.64691009545E+02  0.12926639065E+03  0.00000000000E+00 0.  1.
        -13    1    5    5    0    0 -0.26573874950E+03 -0.17864584743E+03  0.22206075831E+03  0.38966960643E+03  0.00000000000E+00 0. -1.
          1    1    6    6  503    0 -0.11287798676E+03  0.37369019970E+03  0.81098884005E+03  0.90004927861E+03  0.00000000000E+00 0. -1.
         -1    1    6    6    0  503  0.15990203170E+02  0.10545184419E+03  0.19488379139E+03  0.22216091057E+03  0.00000000000E+00 0.  1.
<mgrwt>
<rscale>  0 0.22504957E+04</rscale>
<asrwt>0</asrwt>
<pdfrwt beam="1">  1        1 0.23882634E+00 0.22504957E+04</pdfrwt>
<pdfrwt beam="2">  1       -2 0.12548374E+00 0.22504957E+04</pdfrwt>
<totfact> 0.22776000E+00</totfact>
</mgrwt>
</event>
<event>
12    5  0.5041746E-008  0.2680786E+04  0.7818608E-02  0.8341266E-01
         -2   -1    0    0    0  501 -0.00000000000E+00  0.00000000000E+00  0.25656608269E+04  0.25656608269E+04  0.00000000000E+00 0.  1.
          1   -1    0    0  501    0  0.00000000000E+00 -0.00000000000E+00 -0.70026930293E+03  0.70026930293E+03  0.00000000000E+00 0. -1.
        -24    2    1    2    0    0 -0.41682824788E+03  0.29666291978E+03 -0.47813552285E+03  0.70485172177E+03  0.80297542087E+02 0.  0.
        254    2    1    2    0    0  0.41682824788E+03 -0.29666291978E+03  0.23435270468E+04  0.25610784081E+04  0.89735662746E+03 0.  0.
         23    2    4    4    0    0  0.62263773086E+03 -0.15789477283E+03  0.21117798219E+04  0.22092028998E+04  0.91405324757E+02 0.  0.
         23    2    4    4    0    0 -0.20580948298E+03 -0.13876814695E+03  0.23174722497E+03  0.35187550824E+03  0.92170793234E+02 0.  0.
          1    1    3    3  502    0 -0.35364095949E+03  0.24833803296E+03 -0.43972360590E+03  0.61651484689E+03  0.00000000000E+00 0. -1.
         -2    1    3    3    0  502 -0.63187288393E+02  0.48324886819E+02 -0.38411916948E+02  0.88336874883E+02  0.00000000000E+00 0.  1.
         13    1    5    5    0    0  0.58998086904E+03 -0.14296296393E+03  0.19067573689E+04  0.20010595940E+04  0.00000000000E+00 0.  1.
        -13    1    5    5    0    0  0.32656861828E+02 -0.14931808897E+02  0.20502245298E+03  0.20814330584E+03  0.00000000000E+00 0. -1.
          3    1    6    6  503    0  0.21085399236E+01 -0.10670937895E+02 -0.47963212566E+01  0.11887790113E+02  0.00000000000E+00 0. -1.
         -3    1    6    6    0  503 -0.20791802291E+03 -0.12809720906E+03  0.23654354623E+03  0.33998771813E+03  0.00000000000E+00 0.  1.
<mgrwt>
<rscale>  0 0.26807861E+04</rscale>
<asrwt>0</asrwt>
<pdfrwt beam="1">  1        1 0.10773374E+00 0.26807861E+04</pdfrwt>
<pdfrwt beam="2">  1       -2 0.39471705E+00 0.26807861E+04</pdfrwt>
<totfact> 0.16776723E-01</totfact>
</mgrwt>
</event>
<event>
12    5  0.5041746E-008  0.2240190E+04  0.7818608E-02  0.8501884E-01
         -2   -1    0    0    0  501 -0.00000000000E+00  0.00000000000E+00  0.55479580688E+03  0.55479580688E+03  0.00000000000E+00 0.  1.
          1   -1    0    0  501    0  0.00000000000E+00 -0.00000000000E+00 -0.22613956913E+04  0.22613956913E+04  0.00000000000E+00 0. -1.
        -24    2    1    2    0    0 -0.27432425642E+03  0.82487879070E+03 -0.29355217547E+03  0.92148527838E+03  0.85342964196E+02 0.  0.
        254    2    1    2    0    0  0.27432425642E+03 -0.82487879070E+03 -0.14130477090E+04  0.18947062198E+04  0.91516611315E+03 0.  0.
         23    2    4    4    0    0  0.35460433333E+03 -0.98665741872E+03 -0.10894801887E+04  0.15147796033E+04  0.91395131266E+02 0.  0.
         23    2    4    4    0    0 -0.80280076914E+02  0.16177862802E+03 -0.32356752030E+03  0.37992661651E+03  0.83851526532E+02 0.  0.
          1    1    3    3  502    0  0.35782066706E+01  0.32248359851E+02 -0.24658988114E+01  0.32539836094E+02  0.00000000000E+00 0. -1.
         -2    1    3    3    0  502 -0.27790246309E+03  0.79263043085E+03 -0.29108627666E+03  0.88894544228E+03  0.00000000000E+00 0.  1.
         13    1    5    5    0    0  0.29148780213E+03 -0.73384191357E+03 -0.86061921168E+03  0.11679702566E+04  0.00000000000E+00 0. -1.
        -13    1    5    5    0    0  0.63116531205E+02 -0.25281550516E+03 -0.22886097700E+03  0.34680934669E+03  0.00000000000E+00 0.  1.
          2    1    6    6  503    0 -0.47750936741E+02  0.12256529531E+03 -0.15229480432E+03  0.20123645544E+03  0.00000000000E+00 0. -1.
         -2    1    6    6    0  503 -0.32529140173E+02  0.39213332712E+02 -0.17127271599E+03  0.17869016107E+03  0.00000000000E+00 0.  1.
<mgrwt>
<rscale>  0 0.22401900E+04</rscale>
<asrwt>0</asrwt>
<pdfrwt beam="1">  1        1 0.34790702E+00 0.22401900E+04</pdfrwt>
<pdfrwt beam="2">  1       -2 0.85353203E-01 0.22401900E+04</pdfrwt>
<totfact> 0.18845248E+00</totfact>
</mgrwt>
</event>
<event>
12    5  0.5041746E-008  0.2302964E+04  0.7818608E-02  0.8476753E-01
          1   -1    0    0  501    0  0.00000000000E+00  0.00000000000E+00  0.10896815079E+04  0.10896815079E+04  0.00000000000E+00 0. -1.
         -2   -1    0    0    0  501 -0.00000000000E+00 -0.00000000000E+00 -0.12167874379E+04  0.12167874379E+04  0.00000000000E+00 0.  1.
        -24    2    1    2    0    0 -0.45502158357E+03 -0.22718540250E+03  0.77342257553E+03  0.92915631407E+03  0.80567530665E+02 0.  0.
        254    2    1    2    0    0  0.45502158357E+03  0.22718540250E+03 -0.90052850549E+03  0.13773126317E+04  0.90960466557E+03 0.  0.
         23    2    4    4    0    0  0.70388600244E+03  0.18002241150E+03 -0.81478052975E+03  0.10956631555E+04  0.93524679361E+02 0.  0.
         23    2    4    4    0    0 -0.24886441887E+03  0.47162991007E+02 -0.85747975744E+02  0.28164947618E+03  0.88407383093E+02 0.  0.
          3    1    3    3  502    0 -0.25538014848E+03 -0.84420200607E+02  0.42519904692E+03  0.50313022172E+03  0.00000000000E+00 0. -1.
         -4    1    3    3    0  502 -0.19964143509E+03 -0.14276520190E+03  0.34822352861E+03  0.42602609234E+03  0.00000000000E+00 0.  1.
         13    1    5    5    0    0  0.31323191448E+03  0.78029223358E+02 -0.29329273572E+03  0.43614610026E+03  0.00000000000E+00 0. -1.
        -13    1    5    5    0    0  0.39065408796E+03  0.10199318814E+03 -0.52148779403E+03  0.65951705527E+03  0.00000000000E+00 0.  1.
          3    1    6    6  503    0 -0.65736775986E+02  0.18345094605E+02 -0.66469751242E+02  0.95268536482E+02  0.00000000000E+00 0. -1.
         -3    1    6    6    0  503 -0.18312764288E+03  0.28817896402E+02 -0.19278224502E+02  0.18638093969E+03  0.00000000000E+00 0.  1.
<mgrwt>
<rscale>  0 0.23029640E+04</rscale>
<asrwt>0</asrwt>
<pdfrwt beam="1">  1        1 0.16764331E+00 0.23029640E+04</pdfrwt>
<pdfrwt beam="2">  1       -2 0.18719807E+00 0.23029640E+04</pdfrwt>
<totfact> 0.16561492E+00</totfact>
</mgrwt>
</event>
<event>
12    5  0.5041746E-008  0.1319386E+04  0.7818608E-02  0.9014332E-01
         -2   -1    0    0    0  501 -0.00000000000E+00  0.00000000000E+00  0.11322754675E+04  0.11322754675E+04  0.00000000000E+00 0.  1.
          1   -1    0    0  501    0  0.00000000000E+00 -0.00000000000E+00 -0.38435406322E+03  0.38435406322E+03  0.00000000000E+00 0. -1.
        -24    2    1    2    0    0  0.34470902296E+02 -0.88496470974E+02 -0.19516984845E+03  0.23112291370E+03  0.79414501276E+02 0.  0.
        254    2    1    2    0    0 -0.34470902296E+02  0.88496470974E+02  0.94309125268E+03  0.12855066170E+04  0.86838141558E+03 0.  0.
         23    2    4    4    0    0  0.31624372510E+03  0.26794376038E+03  0.27916731746E+03  0.50813492667E+03  0.91993261573E+02 0.  0.
         23    2    4    4    0    0 -0.35071462740E+03 -0.17944728940E+03  0.66392393523E+03  0.77737169030E+03  0.91157410949E+02 0.  0.
          1    1    3    3  502    0  0.37659892773E+02 -0.10257814335E+03 -0.17510510016E+03  0.20640334086E+03  0.00000000000E+00 0. -1.
         -2    1    3    3    0  502 -0.31889904769E+01  0.14081672379E+02 -0.20064748292E+02  0.24719572838E+02  0.00000000000E+00 0.  1.
         13    1    5    5    0    0  0.30752648404E+03  0.26261894568E+03  0.28646249377E+03  0.49558249500E+03  0.00000000000E+00 0. -1.
        -13    1    5    5    0    0  0.87172410667E+01  0.53248146961E+01 -0.72951763141E+01  0.12552431670E+02  0.00000000000E+00 0.  1.
          4    1    6    6  503    0 -0.29961892215E+03 -0.16634277599E+03  0.50815382364E+03  0.61291249466E+03  0.00000000000E+00 0. -1.
         -4    1    6    6    0  503 -0.51095705254E+02 -0.13104513412E+02  0.15577011159E+03  0.16445919564E+03  0.00000000000E+00 0.  1.
<mgrwt>
<rscale>  0 0.13193857E+04</rscale>
<asrwt>0</asrwt>
<pdfrwt beam="1">  1        1 0.59131395E-01 0.13193857E+04</pdfrwt>
<pdfrwt beam="2">  1       -2 0.17419622E+00 0.13193857E+04</pdfrwt>
<totfact> 0.10782906E+01</totfact>
</mgrwt>
</event>
<event>
12    5  0.5041746E-008  0.2297944E+04  0.7818608E-02  0.8478732E-01
         -2   -1    0    0    0  501 -0.00000000000E+00  0.00000000000E+00  0.80953038151E+03  0.80953038151E+03  0.00000000000E+00 0.  1.
          1   -1    0    0  501    0  0.00000000000E+00 -0.00000000000E+00 -0.16307442331E+04  0.16307442331E+04  0.00000000000E+00 0. -1.
        -24    2    1    2    0    0  0.46097331897E+03 -0.28534136243E+03  0.50563890403E+03  0.74569749362E+03  0.80485755270E+02 0.  0.
        254    2    1    2    0    0 -0.46097331897E+03  0.28534136243E+03 -0.13268527556E+04  0.16945771210E+04  0.90395646463E+03 0.  0.
         23    2    4    4    0    0 -0.53652350782E+03  0.32933642230E+03 -0.38481760357E+03  0.74401242023E+03  0.95655318442E+02 0.  0.
         23    2    4    4    0    0  0.75550188849E+02 -0.43995059865E+02 -0.94203515202E+03  0.95056470072E+03  0.92193417876E+02 0.  0.
          1    1    3    3  502    0 -0.13453528962E+01 -0.89932054368E+01  0.51779015199E+01  0.10464147485E+02  0.00000000000E+00 0. -1.
         -2    1    3    3    0  502  0.46231867187E+03 -0.27634815699E+03  0.50046100251E+03  0.73523334613E+03  0.00000000000E+00 0.  1.
         13    1    5    5    0    0 -0.41137078686E+03  0.23882693254E+03 -0.24218781614E+03  0.53377819951E+03  0.00000000000E+00 0. -1.
        -13    1    5    5    0    0 -0.12515272097E+03  0.90509489755E+02 -0.14262978742E+03  0.21023422072E+03  0.00000000000E+00 0.  1.
          3    1    6    6  503    0  0.68330251450E+02 -0.10646008299E+02 -0.84269523809E+03  0.84552801554E+03  0.00000000000E+00 0. -1.
         -3    1    6    6    0  503  0.72199373990E+01 -0.33349051566E+02 -0.99339913924E+02  0.10503668519E+03  0.00000000000E+00 0.  1.
<mgrwt>
<rscale>  0 0.22979443E+04</rscale>
<asrwt>0</asrwt>
<pdfrwt beam="1">  1        1 0.25088373E+00 0.22979443E+04</pdfrwt>
<pdfrwt beam="2">  1       -2 0.12454313E+00 0.22979443E+04</pdfrwt>
<totfact> 0.20420815E+00</totfact>
</mgrwt>
</event>
<event>
12    5  0.5041746E-008  0.1909765E+04  0.7818608E-02  0.8650011E-01
         -2   -1    0    0    0  501 -0.00000000000E+00  0.00000000000E+00  0.79627112736E+03  0.79627112736E+03  0.00000000000E+00 0.  1.
          1   -1    0    0  501    0  0.00000000000E+00 -0.00000000000E+00 -0.11450885148E+04  0.11450885148E+04  0.00000000000E+00 0. -1.
        -24    2    1    2    0    0  0.20646208461E+02  0.44391649164E+03 -0.74467031481E+03  0.87086040589E+03  0.79848928147E+02 0.  0.
        254    2    1    2    0    0 -0.20646208461E+02 -0.44391649164E+03  0.39585292739E+03  0.10704992362E+04  0.88982074442E+03 0.  0.
         23    2    4    4    0    0 -0.33220924846E+03 -0.52159377827E+03  0.39023209608E+03  0.73813085628E+03  0.10066289234E+03 0.  0.
         23    2    4    4    0    0  0.31156304000E+03  0.77677286632E+02  0.56208313138E+01  0.33236837996E+03  0.85626266448E+02 0.  0.
          1    1    3    3  502    0 -0.14120282601E+02  0.36440078780E+03 -0.60681107885E+03  0.70795974599E+03  0.00000000000E+00 0. -1.
         -2    1    3    3    0  502  0.34766491062E+02  0.79515703832E+02 -0.13785923596E+03  0.16290065990E+03  0.00000000000E+00 0.  1.
         13    1    5    5    0    0 -0.32503344449E+03 -0.46950859317E+03  0.37582672783E+03  0.68361596562E+03  0.00000000000E+00 0. -1.
        -13    1    5    5    0    0 -0.71758039646E+01 -0.52085185097E+02  0.14405368245E+02  0.54514890658E+02  0.00000000000E+00 0.  1.
          4    1    6    6  503    0  0.11535499550E+03  0.93873497418E+01 -0.34517453799E+02  0.12077397045E+03  0.00000000000E+00 0. -1.
         -4    1    6    6    0  503  0.19620804450E+03  0.68289936890E+02  0.40138285113E+02  0.21159440951E+03  0.00000000000E+00 0.  1.
<mgrwt>
<rscale>  0 0.19097653E+04</rscale>
<asrwt>0</asrwt>
<pdfrwt beam="1">  1        1 0.17616746E+00 0.19097653E+04</pdfrwt>
<pdfrwt beam="2">  1       -2 0.12250325E+00 0.19097653E+04</pdfrwt>
<totfact> 0.48507036E+00</totfact>
</mgrwt>
</event>
<event>
12    5  0.5041746E-008  0.1300136E+04  0.7818608E-02  0.9029458E-01
         -2   -1    0    0    0  501 -0.00000000000E+00  0.00000000000E+00  0.43137768936E+03  0.43137768936E+03  0.00000000000E+00 0.  1.
          1   -1    0    0  501    0  0.00000000000E+00 -0.00000000000E+00 -0.97962440607E+03  0.97962440607E+03  0.00000000000E+00 0. -1.
        -24    2    1    2    0    0  0.50815835125E+02  0.25579891007E+03  0.47713984073E+02  0.27564242364E+03  0.75410807837E+02 0.  0.
        254    2    1    2    0    0 -0.50815835125E+02 -0.25579891007E+03 -0.59596070079E+03  0.11353596718E+04  0.93051442545E+03 0.  0.
         23    2    4    4    0    0  0.22334557863E+03 -0.19657720651E+03 -0.74282819314E+03  0.80569578551E+03  0.93947478151E+02 0.  0.
         23    2    4    4    0    0 -0.27416141376E+03 -0.59221703560E+02  0.14686749235E+03  0.32966388629E+03  0.91850566948E+02 0.  0.
          3    1    3    3  502    0  0.37009814307E+02  0.10262360478E+03 -0.13876198469E+02  0.10997217601E+03  0.00000000000E+00 0. -1.
         -4    1    3    3    0  502  0.13806020818E+02  0.15317530529E+03  0.61590182541E+02  0.16567024762E+03  0.00000000000E+00 0.  1.
         13    1    5    5    0    0  0.66462927041E+02 -0.12045100864E+03 -0.33575951760E+03  0.36285013409E+03  0.00000000000E+00 0.  1.
        -13    1    5    5    0    0  0.15688265159E+03 -0.76126197876E+02 -0.40706867554E+03  0.44284565142E+03  0.00000000000E+00 0. -1.
          2    1    6    6  503    0 -0.26731064140E+03 -0.51587482500E+02  0.15780239210E+03  0.31467100646E+03  0.00000000000E+00 0.  1.
         -2    1    6    6    0  503 -0.68507723641E+01 -0.76342210604E+01 -0.10934899748E+02  0.14992879833E+02  0.00000000000E+00 0. -1.
<mgrwt>
<rscale>  0 0.13001356E+04</rscale>
<asrwt>0</asrwt>
<pdfrwt beam="1">  1        1 0.15071145E+00 0.13001356E+04</pdfrwt>
<pdfrwt beam="2">  1       -2 0.66365798E-01 0.13001356E+04</pdfrwt>
<totfact> 0.28228145E+01</totfact>
</mgrwt>
</event>
<event>
12    5  0.5041746E-008  0.2949477E+04  0.7818608E-02  0.8258307E-01
          1   -1    0    0  501    0  0.00000000000E+00  0.00000000000E+00  0.11400163605E+04  0.11400163605E+04  0.00000000000E+00 0. -1.
         -2   -1    0    0    0  501 -0.00000000000E+00 -0.00000000000E+00 -0.19077386236E+04  0.19077386236E+04  0.00000000000E+00 0.  1.
        -24    2    1    2    0    0  0.57363148844E+03  0.10114456625E+04 -0.10232056967E+04  0.15508589770E+04  0.78347023001E+02 0.  0.
        254    2    1    2    0    0 -0.57363148844E+03 -0.10114456625E+04  0.25548343364E+03  0.14968960071E+04  0.90738660918E+03 0.  0.
         23    2    4    4    0    0 -0.33351794693E+03 -0.10389288579E+04 -0.50805430981E+02  0.10957382178E+04  0.86334566941E+02 0.  0.
         23    2    4    4    0    0 -0.24011354152E+03  0.27483195469E+02  0.30628886462E+03  0.40115778925E+03  0.93299862981E+02 0.  0.
          3    1    3    3  502    0  0.19441727164E+03  0.40850803748E+03 -0.37074082179E+03  0.58491507857E+03  0.00000000000E+00 0. -1.
         -4    1    3    3    0  502  0.37921421681E+03  0.60293762498E+03 -0.65246487493E+03  0.96594389840E+03  0.00000000000E+00 0.  1.
         13    1    5    5    0    0 -0.79612809796E+02 -0.38129433118E+03 -0.25000136699E+02  0.39031855363E+03  0.00000000000E+00 0. -1.
        -13    1    5    5    0    0 -0.25390513713E+03 -0.65763452674E+03 -0.25805294282E+02  0.70541966420E+03  0.00000000000E+00 0.  1.
          2    1    6    6  503    0 -0.16495963051E+03  0.26463480907E+02  0.13744397772E+03  0.21633964623E+03  0.00000000000E+00 0. -1.
         -2    1    6    6    0  503 -0.75153911010E+02  0.10197145617E+01  0.16884488690E+03  0.18481814302E+03  0.00000000000E+00 0.  1.
<mgrwt>
<rscale>  0 0.29494767E+04</rscale>
<asrwt>0</asrwt>
<pdfrwt beam="1">  1        1 0.17538713E+00 0.29494767E+04</pdfrwt>
<pdfrwt beam="2">  1       -2 0.29349825E+00 0.29494767E+04</pdfrwt>
<totfact> 0.30916846E-01</totfact>
</mgrwt>
</event>
<event>
12    5  0.5041746E-008  0.2049297E+04  0.7818608E-02  0.8583913E-01
          1   -1    0    0  501    0  0.00000000000E+00  0.00000000000E+00  0.20757735545E+04  0.20757735545E+04  0.00000000000E+00 0. -1.
         -4   -1    0    0    0  501 -0.00000000000E+00 -0.00000000000E+00 -0.50578963479E+03  0.50578963479E+03  0.00000000000E+00 0.  1.
        -24    2    1    2    0    0  0.20525672859E+03  0.37945213102E+03  0.15264373999E+04  0.15882036064E+04  0.79153743159E+02 0.  0.
        254    2    1    2    0    0 -0.20525672859E+03 -0.37945213102E+03  0.43546519777E+02  0.99335958291E+03  0.89372966674E+03 0.  0.
         23    2    4    4    0    0  0.68252684193E+02 -0.49372699520E+03  0.30175890737E+03  0.58952352221E+03  0.89748372484E+02 0.  0.
         23    2    4    4    0    0 -0.27350941278E+03  0.11427486418E+03 -0.25821238760E+03  0.40383606070E+03  0.92432588139E+02 0.  0.
          1    1    3    3  502    0  0.19572389930E+03  0.37165891502E+03  0.15118357575E+04  0.15691034229E+04  0.00000000000E+00 0. -1.
         -2    1    3    3    0  502  0.95328292912E+01  0.77932159997E+01  0.14601642388E+02  0.19100183516E+02  0.00000000000E+00 0.  1.
         13    1    5    5    0    0  0.59720714627E+02 -0.40163430011E+03  0.20211279381E+03  0.45357056364E+03  0.00000000000E+00 0. -1.
        -13    1    5    5    0    0  0.85319695659E+01 -0.92092695094E+02  0.99646113565E+02  0.13595295857E+03  0.00000000000E+00 0.  1.
          1    1    6    6  503    0 -0.17012285951E+03  0.10025398982E+03 -0.12146556516E+03  0.23183298584E+03  0.00000000000E+00 0. -1.
         -1    1    6    6    0  503 -0.10338655327E+03  0.14020874359E+02 -0.13674682244E+03  0.17200307487E+03  0.00000000000E+00 0.  1.
<mgrwt>
<rscale>  0 0.20492972E+04</rscale>
<asrwt>0</asrwt>
<pdfrwt beam="1">  1        1 0.31934977E+00 0.20492972E+04</pdfrwt>
<pdfrwt beam="2">  1       -4 0.77813791E-01 0.20492972E+04</pdfrwt>
<totfact> 0.17809057E+00</totfact>
</mgrwt>
</event>
<event>
12    5  0.5041746E-008  0.1732681E+04  0.7818608E-02  0.8742942E-01
          1   -1    0    0  501    0  0.00000000000E+00  0.00000000000E+00  0.15262347200E+04  0.15262347200E+04  0.00000000000E+00 0. -1.
         -2   -1    0    0    0  501 -0.00000000000E+00 -0.00000000000E+00 -0.49176294033E+03  0.49176294033E+03  0.00000000000E+00 0.  1.
        -24    2    1    2    0    0 -0.11412002929E+02 -0.73639046200E+02  0.10918238737E+04  0.10974088548E+04  0.81693820753E+02 0.  0.
        254    2    1    2    0    0  0.11412002929E+02  0.73639046200E+02 -0.57352094093E+02  0.92058880553E+03  0.91577374020E+03 0.  0.
         23    2    4    4    0    0  0.43589794181E+02  0.48309295263E+03 -0.79279910764E+02  0.49979298742E+03  0.90713036481E+02 0.  0.
         23    2    4    4    0    0 -0.32177791252E+02 -0.40945390643E+03  0.21927816671E+02  0.42079581811E+03  0.88884079873E+02 0.  0.
          3    1    3    3  502    0 -0.37697418462E+02 -0.71570948713E+02  0.69099720969E+03  0.69571591894E+03  0.00000000000E+00 0. -1.
         -2    1    3    3    0  502  0.26285415533E+02 -0.20680974866E+01  0.40082666404E+03  0.40169293583E+03  0.00000000000E+00 0.  1.
         13    1    5    5    0    0 -0.17576952075E+02  0.18772475684E+03 -0.25994607556E+01  0.18856375784E+03  0.00000000000E+00 0.  1.
        -13    1    5    5    0    0  0.61166746256E+02  0.29536819579E+03 -0.76680450008E+02  0.31122922958E+03  0.00000000000E+00 0. -1.
          1    1    6    6  503    0 -0.18424498787E+02 -0.55574531473E+02  0.31569931250E+02  0.66518052160E+02  0.00000000000E+00 0. -1.
         -1    1    6    6    0  503 -0.13753292465E+02 -0.35387937496E+03 -0.96421145793E+01  0.35427776595E+03  0.00000000000E+00 0.  1.
<mgrwt>
<rscale>  0 0.17326808E+04</rscale>
<asrwt>0</asrwt>
<pdfrwt beam="1">  1        1 0.23480534E+00 0.17326808E+04</pdfrwt>
<pdfrwt beam="2">  1       -2 0.75655838E-01 0.17326808E+04</pdfrwt>
<totfact> 0.81828591E+00</totfact>
</mgrwt>
</event>
<event>
12    5  0.5041746E-008  0.2133429E+04  0.7818608E-02  0.8546659E-01
         -2   -1    0    0    0  501 -0.00000000000E+00  0.00000000000E+00  0.38034803719E+03  0.38034803719E+03  0.00000000000E+00 0.  1.
          1   -1    0    0  501    0  0.00000000000E+00 -0.00000000000E+00 -0.29916804421E+04  0.29916804421E+04  0.00000000000E+00 0. -1.
        -24    2    1    2    0    0  0.31393517846E+03 -0.40711369007E+03  0.47982128795E+02  0.52180601650E+03  0.75381571091E+02 0.  0.
        254    2    1    2    0    0 -0.31393517846E+03  0.40711369007E+03 -0.26593145337E+04  0.28502224628E+04  0.88742179668E+03 0.  0.
         23    2    4    4    0    0 -0.27883111268E+03  0.28648065511E+03 -0.26595328144E+04  0.26909677675E+04  0.91513821210E+02 0.  0.
         23    2    4    4    0    0 -0.35104065779E+02  0.12063303496E+03  0.21828071245E+00  0.15925469530E+03  0.97864118922E+02 0.  0.
          1    1    3    3  502    0  0.72758762082E+02 -0.89195269648E+02  0.42558112925E+02  0.12272255931E+03  0.00000000000E+00 0. -1.
         -2    1    3    3    0  502  0.24117641638E+03 -0.31791842042E+03  0.54240158704E+01  0.39908345720E+03  0.00000000000E+00 0.  1.
         13    1    5    5    0    0 -0.10968233041E+03  0.17182468370E+03 -0.11981432304E+04  0.12153604963E+04  0.00000000000E+00 0.  1.
        -13    1    5    5    0    0 -0.16914878227E+03  0.11465597141E+03 -0.14613895840E+04  0.14756072711E+04  0.00000000000E+00 0. -1.
          1    1    6    6  503    0  0.19624469977E+02  0.36540583136E+02 -0.33596418890E+02  0.53376524803E+02  0.00000000000E+00 0. -1.
         -1    1    6    6    0  503 -0.54728535756E+02  0.84092451823E+02  0.33814699603E+02  0.10587817050E+03  0.00000000000E+00 0.  1.
<mgrwt>
<rscale>  0 0.21334290E+04</rscale>
<asrwt>0</asrwt>
<pdfrwt beam="1">  1        1 0.46025852E+00 0.21334290E+04</pdfrwt>
<pdfrwt beam="2">  1       -2 0.58515084E-01 0.21334290E+04</pdfrwt>
<totfact> 0.13354234E+00</totfact>
</mgrwt>
</event>
<event>
12    5  0.5041746E-008  0.3676290E+04  0.7818608E-02  0.8073237E-01
          1   -1    0    0  501    0  0.00000000000E+00  0.00000000000E+00  0.20724730402E+04  0.20724730402E+04  0.00000000000E+00 0. -1.
         -2   -1    0    0    0  501 -0.00000000000E+00 -0.00000000000E+00 -0.16303113652E+04  0.16303113652E+04  0.00000000000E+00 0.  1.
        -24    2    1    2    0    0 -0.11302286959E+03  0.18200408372E+02 -0.15263172574E+04  0.15326182315E+04  0.78542023307E+02 0.  0.
        254    2    1    2    0    0  0.11302286959E+03 -0.18200408372E+02  0.19684789324E+04  0.21701661739E+04  0.90642511612E+03 0.  0.
         23    2    4    4    0    0  0.20253282396E+03  0.17153910183E+03  0.11625128881E+03  0.30384440639E+03  0.91443167628E+02 0.  0.
         23    2    4    4    0    0 -0.89509954374E+02 -0.18973951021E+03  0.18522276436E+04  0.18663217675E+04  0.91632868214E+02 0.  0.
          3    1    3    3  502    0 -0.12664565170E+02 -0.16129158872E+02 -0.86427373245E+02  0.88826976887E+02  0.00000000000E+00 0. -1.
         -4    1    3    3    0  502 -0.10035830442E+03  0.34329567244E+02 -0.14398898841E+04  0.14437912546E+04  0.00000000000E+00 0.  1.
         13    1    5    5    0    0  0.17316541847E+03  0.13815509594E+03  0.55164822273E+02  0.22828983837E+03  0.00000000000E+00 0.  1.
        -13    1    5    5    0    0  0.29367405491E+02  0.33384005898E+02  0.61086466533E+02  0.75554568020E+02  0.00000000000E+00 0. -1.
          1    1    6    6  503    0 -0.42947984680E+02 -0.11138534248E+03  0.66732564383E+03  0.67791941912E+03  0.00000000000E+00 0. -1.
         -1    1    6    6    0  503 -0.46561969694E+02 -0.78354167724E+02  0.11849019998E+04  0.11884023484E+04  0.00000000000E+00 0.  1.
<mgrwt>
<rscale>  0 0.36762896E+04</rscale>
<asrwt>0</asrwt>
<pdfrwt beam="1">  1        1 0.31884201E+00 0.36762896E+04</pdfrwt>
<pdfrwt beam="2">  1       -2 0.25081713E+00 0.36762896E+04</pdfrwt>
<totfact> 0.11947435E-01</totfact>
</mgrwt>
</event>
<event>
12    5  0.5041746E-008  0.2954546E+04  0.7818608E-02  0.8256831E-01
          1   -1    0    0  501    0  0.00000000000E+00  0.00000000000E+00  0.20549635712E+04  0.20549635712E+04  0.00000000000E+00 0. -1.
         -2   -1    0    0    0  501 -0.00000000000E+00 -0.00000000000E+00 -0.10619825334E+04  0.10619825334E+04  0.00000000000E+00 0.  1.
        -24    2    1    2    0    0  0.58589142976E+03  0.61154431678E+03 -0.64239631470E+03  0.10662378460E+04  0.83276048959E+02 0.  0.
        254    2    1    2    0    0 -0.58589142976E+03 -0.61154431678E+03  0.16353773525E+04  0.20507082586E+04  0.90204770278E+03 0.  0.
         23    2    4    4    0    0  0.13057734671E+02 -0.62262293424E+03  0.78024609699E+03  0.10025964166E+04  0.92659483850E+02 0.  0.
         23    2    4    4    0    0 -0.59894916444E+03  0.11078617463E+02  0.85513125552E+03  0.10481118421E+04  0.91793964963E+02 0.  0.
          3    1    3    3  502    0  0.30419659778E+02  0.38631478528E+02 -0.63874741147E+02  0.80608494533E+02  0.00000000000E+00 0. -1.
         -4    1    3    3    0  502  0.55547176999E+03  0.57291283825E+03 -0.57852157355E+03  0.98562935151E+03  0.00000000000E+00 0.  1.
         13    1    5    5    0    0  0.45170578007E+02 -0.48103799242E+03  0.57215388941E+03  0.74886447668E+03  0.00000000000E+00 0. -1.
        -13    1    5    5    0    0 -0.32112843336E+02 -0.14158494183E+03  0.20809220758E+03  0.25373193988E+03  0.00000000000E+00 0.  1.
          1    1    6    6  503    0 -0.28040522005E+03 -0.40529377033E+02  0.40473674196E+03  0.49404609919E+03  0.00000000000E+00 0. -1.
         -1    1    6    6    0  503 -0.31854394438E+03  0.51607994495E+02  0.45039451356E+03  0.55406574289E+03  0.00000000000E+00 0.  1.
<mgrwt>
<rscale>  0 0.29545459E+04</rscale>
<asrwt>0</asrwt>
<pdfrwt beam="1">  1        1 0.31614824E+00 0.29545459E+04</pdfrwt>
<pdfrwt beam="2">  1       -2 0.16338193E+00 0.29545459E+04</pdfrwt>
<totfact> 0.48862043E-01</totfact>
</mgrwt>
</event>
<event>
12    5  0.5041746E-008  0.2043937E+04  0.7818608E-02  0.8586350E-01
          1   -1    0    0  501    0  0.00000000000E+00  0.00000000000E+00  0.89925546689E+03  0.89925546689E+03  0.00000000000E+00 0. -1.
         -2   -1    0    0    0  501 -0.00000000000E+00 -0.00000000000E+00 -0.11614274073E+04  0.11614274073E+04  0.00000000000E+00 0.  1.
        -24    2    1    2    0    0 -0.39621693423E+03  0.16772316609E+02 -0.82319009574E+03  0.91700253448E+03  0.77346912877E+02 0.  0.
        254    2    1    2    0    0  0.39621693423E+03 -0.16772316609E+02  0.56101815536E+03  0.11436803397E+04  0.91432717293E+03 0.  0.
         23    2    4    4    0    0  0.66682496722E+03  0.55707638257E+02  0.51459529205E+03  0.84850594480E+03  0.85995034117E+02 0.  0.
         23    2    4    4    0    0 -0.27060803299E+03 -0.72479954866E+02  0.46422863310E+02  0.29517439488E+03  0.80565437862E+02 0.  0.
          1    1    3    3  502    0 -0.20329235955E+03  0.46744130239E+02 -0.41048848815E+03  0.46044934148E+03  0.00000000000E+00 0. -1.
         -2    1    3    3    0  502 -0.19292457467E+03 -0.29971813629E+02 -0.41270160760E+03  0.45655319300E+03  0.00000000000E+00 0.  1.
         13    1    5    5    0    0  0.21393636126E+03 -0.74735514982E+01  0.12584843936E+03  0.24831925083E+03  0.00000000000E+00 0. -1.
        -13    1    5    5    0    0  0.45288860596E+03  0.63181189755E+02  0.38874685269E+03  0.60018669397E+03  0.00000000000E+00 0.  1.
          3    1    6    6  503    0 -0.14319233374E+03 -0.20757568660E+02  0.60732589998E+02  0.15691835006E+03  0.00000000000E+00 0. -1.
         -3    1    6    6    0  503 -0.12741569926E+03 -0.51722386206E+02 -0.14309726688E+02  0.13825604482E+03  0.00000000000E+00 0.  1.
<mgrwt>
<rscale>  0 0.20439373E+04</rscale>
<asrwt>0</asrwt>
<pdfrwt beam="1">  1        1 0.13834699E+00 0.20439373E+04</pdfrwt>
<pdfrwt beam="2">  1       -2 0.17868114E+00 0.20439373E+04</pdfrwt>
<totfact> 0.27323813E+00</totfact>
</mgrwt>
</event>
<event>
12    5  0.5041746E-008  0.1621367E+04  0.7818608E-02  0.8807528E-01
         -2   -1    0    0    0  501 -0.00000000000E+00  0.00000000000E+00  0.71414019184E+03  0.71414019184E+03  0.00000000000E+00 0.  1.
          1   -1    0    0  501    0  0.00000000000E+00 -0.00000000000E+00 -0.92027796517E+03  0.92027796517E+03  0.00000000000E+00 0. -1.
        -24    2    1    2    0    0  0.19542969228E+03  0.46448399110E+02 -0.60327898300E+03  0.64072811753E+03  0.78973228726E+02 0.  0.
        254    2    1    2    0    0 -0.19542969228E+03 -0.46448399110E+02  0.39714120968E+03  0.99369003947E+03  0.88845288886E+03 0.  0.
         23    2    4    4    0    0 -0.32031881020E+03 -0.83898026279E+02 -0.18427290642E+03  0.39112932198E+03  0.96863943210E+02 0.  0.
         23    2    4    4    0    0  0.12488911792E+03  0.37449627169E+02  0.58141411609E+03  0.60256071749E+03  0.89650864577E+02 0.  0.
          3    1    3    3  502    0  0.15193779290E+03  0.33681178122E+02 -0.54564946138E+03  0.56740889081E+03  0.00000000000E+00 0. -1.
         -4    1    3    3    0  502  0.43491899386E+02  0.12767220989E+02 -0.57629521628E+02  0.73319226722E+02  0.00000000000E+00 0.  1.
         13    1    5    5    0    0 -0.93243942052E+00  0.19225427209E+01  0.82058550478E+01  0.84794852941E+01  0.00000000000E+00 0.  1.
        -13    1    5    5    0    0 -0.31938637078E+03 -0.85820569000E+02 -0.19247876146E+03  0.38264983669E+03  0.00000000000E+00 0. -1.
          1    1    6    6  503    0  0.48119674314E+02  0.52846807994E+02  0.37594289506E+03  0.38267655862E+03  0.00000000000E+00 0. -1.
         -1    1    6    6    0  503  0.76769443605E+02 -0.15397180825E+02  0.20547122103E+03  0.21988415886E+03  0.00000000000E+00 0.  1.
<mgrwt>
<rscale>  0 0.16213667E+04</rscale>
<asrwt>0</asrwt>
<pdfrwt beam="1">  1        1 0.14158123E+00 0.16213667E+04</pdfrwt>
<pdfrwt beam="2">  1       -2 0.10986772E+00 0.16213667E+04</pdfrwt>
<totfact> 0.96885638E+00</totfact>
</mgrwt>
</event>
<event>
12    5  0.5041746E-008  0.1547506E+04  0.7818608E-02  0.8853462E-01
         -2   -1    0    0    0  501 -0.00000000000E+00  0.00000000000E+00  0.21689333766E+03  0.21689333766E+03  0.00000000000E+00 0.  1.
          1   -1    0    0  501    0  0.00000000000E+00 -0.00000000000E+00 -0.27603131009E+04  0.27603131009E+04  0.00000000000E+00 0. -1.
        -24    2    1    2    0    0 -0.43029394668E+00  0.38891471257E+03 -0.22607893543E+03  0.45722070319E+03  0.81757247874E+02 0.  0.
        254    2    1    2    0    0  0.43029394668E+00 -0.38891471257E+03 -0.23173408278E+04  0.25199857354E+04  0.91049698264E+03 0.  0.
         23    2    4    4    0    0 -0.30048701622E+03 -0.10434694509E+03 -0.26454721929E+03  0.42367266319E+03  0.91282870422E+02 0.  0.
         23    2    4    4    0    0  0.30091731017E+03 -0.28456776747E+03 -0.20527936085E+04  0.20963130722E+04  0.95062377072E+02 0.  0.
          3    1    3    3  502    0  0.30435351450E+01  0.11353754656E+02 -0.29027972799E+02  0.31317631708E+02  0.00000000000E+00 0. -1.
         -4    1    3    3    0  502 -0.34738290917E+01  0.37756095791E+03 -0.19705096263E+03  0.42590307149E+03  0.00000000000E+00 0.  1.
         13    1    5    5    0    0 -0.21074600531E+03 -0.46144206795E+02 -0.21900291840E+03  0.30741737889E+03  0.00000000000E+00 0.  1.
        -13    1    5    5    0    0 -0.89741010908E+02 -0.58202738300E+02 -0.45544300895E+02  0.11625528430E+03  0.00000000000E+00 0. -1.
          3    1    6    6  503    0  0.12618099607E+03 -0.15356129979E+03 -0.11793393109E+04  0.11959698687E+04  0.00000000000E+00 0. -1.
         -3    1    6    6    0  503  0.17473631410E+03 -0.13100646768E+03 -0.87345429764E+03  0.90034320350E+03  0.00000000000E+00 0.  1.
<mgrwt>
<rscale>  0 0.15475058E+04</rscale>
<asrwt>0</asrwt>
<pdfrwt beam="1">  1        1 0.42466354E+00 0.15475058E+04</pdfrwt>
<pdfrwt beam="2">  1       -2 0.33368207E-01 0.15475058E+04</pdfrwt>
<totfact> 0.63400223E+00</totfact>
</mgrwt>
</event>
<event>
12    5  0.5041746E-008  0.1524160E+04  0.7818608E-02  0.8868544E-01
          1   -1    0    0  501    0  0.00000000000E+00  0.00000000000E+00  0.11563607499E+04  0.11563607499E+04  0.00000000000E+00 0. -1.
         -2   -1    0    0    0  501 -0.00000000000E+00 -0.00000000000E+00 -0.50223602468E+03  0.50223602468E+03  0.00000000000E+00 0.  1.
        -24    2    1    2    0    0 -0.33044236508E+03  0.28104853537E+03 -0.44584994130E+02  0.44365593803E+03  0.81623120351E+02 0.  0.
        254    2    1    2    0    0  0.33044236508E+03 -0.28104853537E+03  0.69870971935E+03  0.12149408365E+04  0.89426256129E+03 0.  0.
         23    2    4    4    0    0  0.40264056936E+03  0.22495328379E+03  0.39249718760E+03  0.61248192175E+03  0.91414737408E+02 0.  0.
         23    2    4    4    0    0 -0.72198204279E+02 -0.50600181916E+03  0.30621253175E+03  0.60245891480E+03  0.89107843198E+02 0.  0.
          1    1    3    3  502    0 -0.82856841719E+02  0.43034543083E+02  0.16544570594E+02  0.94820625046E+02  0.00000000000E+00 0. -1.
         -2    1    3    3    0  502 -0.24758552336E+03  0.23801399229E+03 -0.61129564723E+02  0.34883531299E+03  0.00000000000E+00 0.  1.
         13    1    5    5    0    0  0.36956932768E+02  0.32361493709E+02  0.81829107586E+02  0.95441521379E+02  0.00000000000E+00 0.  1.
        -13    1    5    5    0    0  0.36568363659E+03  0.19259179008E+03  0.31066808001E+03  0.51704040037E+03  0.00000000000E+00 0. -1.
          2    1    6    6  503    0 -0.57874389362E+02 -0.13352521630E+03  0.73593649075E+02  0.16307805958E+03  0.00000000000E+00 0. -1.
         -2    1    6    6    0  503 -0.14323814917E+02 -0.37247660286E+03  0.23261888268E+03  0.43938085522E+03  0.00000000000E+00 0.  1.
<mgrwt>
<rscale>  0 0.15241601E+04</rscale>
<asrwt>0</asrwt>
<pdfrwt beam="1">  1        1 0.17790165E+00 0.15241601E+04</pdfrwt>
<pdfrwt beam="2">  1       -2 0.77267081E-01 0.15241601E+04</pdfrwt>
<totfact> 0.14559213E+01</totfact>
</mgrwt>
</event>
<event>
12    5  0.5041746E-008  0.1365553E+04  0.7818608E-02  0.8979138E-01
         -2   -1    0    0    0  501 -0.00000000000E+00  0.00000000000E+00  0.52665043482E+03  0.52665043482E+03  0.00000000000E+00 0.  1.
          1   -1    0    0  501    0  0.00000000000E+00 -0.00000000000E+00 -0.88518581195E+03  0.88518581195E+03  0.00000000000E+00 0. -1.
        -24    2    1    2    0    0  0.28628819676E+03  0.90597214865E+02  0.13598569521E+03  0.33861966408E+03  0.77475032466E+02 0.  0.
        254    2    1    2    0    0 -0.28628819676E+03 -0.90597214865E+02 -0.49452107235E+03  0.10732165827E+04  0.90392143211E+03 0.  0.
         23    2    4    4    0    0 -0.58446595850E+03 -0.19121634437E+03 -0.28129497204E+03  0.68217760442E+03  0.89862537705E+02 0.  0.
         23    2    4    4    0    0  0.29817776174E+03  0.10061912950E+03 -0.21322610031E+03  0.39103897827E+03  0.91716551718E+02 0.  0.
          3    1    3    3  502    0  0.40007032736E+02  0.93202760543E+01  0.51464200338E+02  0.65848265964E+02  0.00000000000E+00 0. -1.
         -4    1    3    3    0  502  0.24628116403E+03  0.81276938811E+02  0.84521494874E+02  0.27277139812E+03  0.00000000000E+00 0.  1.
         13    1    5    5    0    0 -0.57789638941E+03 -0.19467253434E+03 -0.28584030694E+03  0.67347332062E+03  0.00000000000E+00 0. -1.
        -13    1    5    5    0    0 -0.65695690880E+01  0.34561899702E+01  0.45453348992E+01  0.87042837993E+01  0.00000000000E+00 0.  1.
          1    1    6    6  503    0  0.22324893053E+03  0.58861606971E+02 -0.10690044709E+03  0.25442578357E+03  0.00000000000E+00 0. -1.
         -1    1    6    6    0  503  0.74928831207E+02  0.41757522529E+02 -0.10632565322E+03  0.13661319470E+03  0.00000000000E+00 0.  1.
<mgrwt>
<rscale>  0 0.13655526E+04</rscale>
<asrwt>0</asrwt>
<pdfrwt beam="1">  1        1 0.13618243E+00 0.13655526E+04</pdfrwt>
<pdfrwt beam="2">  1       -2 0.81023145E-01 0.13655526E+04</pdfrwt>
<totfact> 0.21542206E+01</totfact>
</mgrwt>
</event>
<event>
12    5  0.5041746E-008  0.1644680E+04  0.7818608E-02  0.8793560E-01
         -2   -1    0    0    0  501 -0.00000000000E+00  0.00000000000E+00  0.20357899340E+04  0.20357899340E+04  0.00000000000E+00 0.  1.
          1   -1    0    0  501    0  0.00000000000E+00 -0.00000000000E+00 -0.33217713331E+03  0.33217713331E+03  0.00000000000E+00 0. -1.
        -24    2    1    2    0    0  0.26821992629E+03  0.27240544223E+03  0.11900471333E+04  0.12518459813E+04  0.68989330799E+02 0.  0.
        254    2    1    2    0    0 -0.26821992629E+03 -0.27240544223E+03  0.51356566741E+03  0.11161210860E+04  0.91423734882E+03 0.  0.
         23    2    4    4    0    0  0.52991727875E+02 -0.52840145430E+03  0.42497394261E+03  0.68623761316E+03  0.91120742412E+02 0.  0.
         23    2    4    4    0    0 -0.32121165417E+03  0.25599601206E+03  0.88591724798E+02  0.42988347280E+03  0.90776767496E+02 0.  0.
          3    1    3    3  502    0  0.32336117842E+02  0.78667001763E+01  0.82112752756E+02  0.88600302787E+02  0.00000000000E+00 0. -1.
         -4    1    3    3    0  502  0.23588380845E+03  0.26453874206E+03  0.11079343805E+04  0.11632456786E+04  0.00000000000E+00 0.  1.
         13    1    5    5    0    0  0.39056504149E+02 -0.18147000717E+03  0.19808686783E+03  0.27146856397E+03  0.00000000000E+00 0. -1.
        -13    1    5    5    0    0  0.13935223726E+02 -0.34693144712E+03  0.22688707478E+03  0.41476904919E+03  0.00000000000E+00 0.  1.
          3    1    6    6  503    0 -0.10431516854E+02  0.11042106933E+02 -0.14462599041E+02  0.20974065901E+02  0.00000000000E+00 0. -1.
         -3    1    6    6    0  503 -0.31078013731E+03  0.24495390513E+03  0.10305432384E+03  0.40890940690E+03  0.00000000000E+00 0.  1.
<mgrwt>
<rscale>  0 0.16446797E+04</rscale>
<asrwt>0</asrwt>
<pdfrwt beam="1">  1        1 0.51104176E-01 0.16446797E+04</pdfrwt>
<pdfrwt beam="2">  1       -2 0.31319844E+00 0.16446797E+04</pdfrwt>
<totfact> 0.16958868E+00</totfact>
</mgrwt>
</event>
<event>
12    5  0.5041746E-008  0.3496922E+04  0.7818608E-02  0.8114520E-01
          1   -1    0    0  501    0  0.00000000000E+00  0.00000000000E+00  0.24885841928E+04  0.24885841928E+04  0.00000000000E+00 0. -1.
         -2   -1    0    0    0  501 -0.00000000000E+00 -0.00000000000E+00 -0.12284556224E+04  0.12284556224E+04  0.00000000000E+00 0.  1.
        -24    2    1    2    0    0 -0.11668513198E+04 -0.11427146625E+04  0.55481603105E+03  0.17266867028E+04  0.79292743081E+02 0.  0.
        254    2    1    2    0    0  0.11668513198E+04  0.11427146625E+04  0.70531253929E+03  0.19903531123E+04  0.89258105025E+03 0.  0.
         23    2    4    4    0    0  0.53126858461E+03  0.53051768381E+03  0.79649854053E+03  0.10984573316E+04  0.92213135625E+02 0.  0.
         23    2    4    4    0    0  0.63558273522E+03  0.61219697864E+03 -0.91186001234E+02  0.89189578075E+03  0.91720460817E+02 0.  0.
          1    1    3    3  502    0 -0.17598700074E+03 -0.18850332137E+03  0.59950009005E+02  0.26476202556E+03  0.00000000000E+00 0. -1.
         -2    1    3    3    0  502 -0.99086431908E+03 -0.95421134108E+03  0.49486602204E+03  0.14619246773E+04  0.00000000000E+00 0.  1.
         13    1    5    5    0    0  0.53261764415E+03  0.53048198783E+03  0.78501672131E+03  0.10868964748E+04  0.00000000000E+00 0.  1.
        -13    1    5    5    0    0 -0.13490595457E+01  0.35695988390E-01  0.11481819218E+02  0.11560856734E+02  0.00000000000E+00 0. -1.
          1    1    6    6  503    0 -0.19471145688E+00  0.53926716539E+01 -0.72248195306E+01  0.90175848967E+01  0.00000000000E+00 0. -1.
         -1    1    6    6    0  503  0.63577744668E+03  0.60680430699E+03 -0.83961181704E+02  0.88287819586E+03  0.00000000000E+00 0.  1.
<mgrwt>
<rscale>  0 0.34969216E+04</rscale>
<asrwt>0</asrwt>
<pdfrwt beam="1">  1        1 0.38285911E+00 0.34969216E+04</pdfrwt>
<pdfrwt beam="2">  1       -2 0.18899317E+00 0.34969216E+04</pdfrwt>
<totfact> 0.15595337E-01</totfact>
</mgrwt>
</event>
<event>
12    5  0.5041746E-008  0.2311617E+04  0.7818608E-02  0.8473355E-01
          1   -1    0    0  501    0  0.00000000000E+00  0.00000000000E+00  0.91558770657E+03  0.91558770657E+03  0.00000000000E+00 0. -1.
         -2   -1    0    0    0  501 -0.00000000000E+00 -0.00000000000E+00 -0.14590556449E+04  0.14590556449E+04  0.00000000000E+00 0.  1.
        -24    2    1    2    0    0  0.37289270223E+03 -0.21328837400E+02 -0.11313777709E+04  0.11941342330E+04  0.80231037597E+02 0.  0.
        254    2    1    2    0    0 -0.37289270223E+03  0.21328837400E+02  0.58790983253E+03  0.11805091185E+04  0.95313163880E+03 0.  0.
         23    2    4    4    0    0 -0.15286483734E+03  0.46581692651E+03  0.17369598702E+03  0.52812308644E+03  0.91600387575E+02 0.  0.
         23    2    4    4    0    0 -0.22002786488E+03 -0.44448808911E+03  0.41421384551E+03  0.65238603201E+03  0.89735735730E+02 0.  0.
          3    1    3    3  502    0  0.92136818630E+01 -0.13869069999E+02 -0.76792010128E+02  0.78576433207E+02  0.00000000000E+00 0. -1.
         -2    1    3    3    0  502  0.36367902036E+03 -0.74597674008E+01 -0.10545857607E+04  0.11155577998E+04  0.00000000000E+00 0.  1.
         13    1    5    5    0    0 -0.11857862386E+03  0.30108522997E+03  0.15507642802E+03  0.35883409017E+03  0.00000000000E+00 0. -1.
        -13    1    5    5    0    0 -0.34286213487E+02  0.16473169655E+03  0.18619559006E+02  0.16928899627E+03  0.00000000000E+00 0.  1.
          2    1    6    6  503    0 -0.63414383895E+02 -0.10410759387E+03  0.56473686623E+02  0.13434676203E+03  0.00000000000E+00 0. -1.
         -2    1    6    6    0  503 -0.15661348099E+03 -0.34038049524E+03  0.35774015888E+03  0.51803926998E+03  0.00000000000E+00 0.  1.
<mgrwt>
<rscale>  0 0.23116171E+04</rscale>
<asrwt>0</asrwt>
<pdfrwt beam="1">  1        1 0.14085965E+00 0.23116171E+04</pdfrwt>
<pdfrwt beam="2">  1       -2 0.22447010E+00 0.23116171E+04</pdfrwt>
<totfact> 0.12952882E+00</totfact>
</mgrwt>
</event>
<event>
12    5  0.5041746E-008  0.3442971E+04  0.7818608E-02  0.8127440E-01
          1   -1    0    0  501    0  0.00000000000E+00  0.00000000000E+00  0.27964704921E+04  0.27964704921E+04  0.00000000000E+00 0. -1.
         -2   -1    0    0    0  501 -0.00000000000E+00 -0.00000000000E+00 -0.10597329180E+04  0.10597329180E+04  0.00000000000E+00 0.  1.
        -24    2    1    2    0    0  0.11205813910E+04  0.40187421955E+03  0.20114871228E+04  0.23385745705E+04  0.75133444488E+02 0.  0.
        254    2    1    2    0    0 -0.11205813910E+04 -0.40187421955E+03 -0.27474954865E+03  0.15176288396E+04  0.90028019979E+03 0.  0.
         23    2    4    4    0    0 -0.97717508192E+03  0.29505550732E+02 -0.35950098174E+03  0.10463440988E+04  0.99263784340E+02 0.  0.
         23    2    4    4    0    0 -0.14340630909E+03 -0.43137977028E+03  0.84751433099E+02  0.47128474085E+03  0.90953976576E+02 0.  0.
          1    1    3    3  502    0  0.73797775732E+03  0.26210226391E+03  0.13917194962E+04  0.15969320346E+04  0.00000000000E+00 0. -1.
         -2    1    3    3    0  502  0.38260363369E+03  0.13977195564E+03  0.61976762657E+03  0.74164253589E+03  0.00000000000E+00 0.  1.
         13    1    5    5    0    0 -0.81729550873E+03 -0.11007097867E+02 -0.30941748766E+03  0.87397499190E+03  0.00000000000E+00 0.  1.
        -13    1    5    5    0    0 -0.15987957319E+03  0.40512648599E+02 -0.50083494082E+02  0.17236910686E+03  0.00000000000E+00 0. -1.
          1    1    6    6  503    0 -0.34007073330E+02 -0.10836636250E+03  0.62223896182E+02  0.12950506868E+03  0.00000000000E+00 0. -1.
         -1    1    6    6    0  503 -0.10939923576E+03 -0.32301340778E+03  0.22527536917E+02  0.34177967217E+03  0.00000000000E+00 0.  1.
<mgrwt>
<rscale>  0 0.34429707E+04</rscale>
<asrwt>0</asrwt>
<pdfrwt beam="1">  1        1 0.43022623E+00 0.34429707E+04</pdfrwt>
<pdfrwt beam="2">  1       -2 0.16303584E+00 0.34429707E+04</pdfrwt>
<totfact> 0.14466386E-01</totfact>
</mgrwt>
</event>
<event>
12    5  0.5041746E-008  0.1765231E+04  0.7818608E-02  0.8725011E-01
         -2   -1    0    0    0  501 -0.00000000000E+00  0.00000000000E+00  0.73108311974E+03  0.73108311974E+03  0.00000000000E+00 0.  1.
          1   -1    0    0  501    0  0.00000000000E+00 -0.00000000000E+00 -0.10655561975E+04  0.10655561975E+04  0.00000000000E+00 0. -1.
        -24    2    1    2    0    0  0.36966928898E+03  0.53822289692E+03 -0.19917268256E+03  0.68762642702E+03  0.82589803699E+02 0.  0.
        254    2    1    2    0    0 -0.36966928898E+03 -0.53822289692E+03 -0.13530039520E+03  0.11090128902E+04  0.88615129847E+03 0.  0.
         23    2    4    4    0    0 -0.25864958564E+03 -0.56004523349E+03 -0.44582164328E+03  0.76641587399E+03  0.89922647705E+02 0.  0.
         23    2    4    4    0    0 -0.11101970333E+03  0.21822336569E+02  0.31052124808E+03  0.34259701625E+03  0.90264506476E+02 0.  0.
          1    1    3    3  502    0  0.33368753705E+03  0.50933425865E+03 -0.20161473741E+03  0.64141816450E+03  0.00000000000E+00 0. -1.
         -2    1    3    3    0  502  0.35981751925E+02  0.28888638275E+02  0.24420548468E+01  0.46208262517E+02  0.00000000000E+00 0.  1.
         13    1    5    5    0    0 -0.19787370875E+03 -0.49668595070E+03 -0.39727613360E+03  0.66609253453E+03  0.00000000000E+00 0. -1.
        -13    1    5    5    0    0 -0.60775876898E+02 -0.63359282795E+02 -0.48545509685E+02  0.10032333946E+03  0.00000000000E+00 0.  1.
          2    1    6    6  503    0 -0.11948753355E+03  0.23244179589E+02  0.31102369068E+03  0.33399595615E+03  0.00000000000E+00 0. -1.
         -2    1    6    6    0  503  0.84678302222E+01 -0.14218430201E+01 -0.50244259753E+00  0.86010600980E+01  0.00000000000E+00 0.  1.
<mgrwt>
<rscale>  0 0.17652310E+04</rscale>
<asrwt>0</asrwt>
<pdfrwt beam="1">  1        1 0.16393172E+00 0.17652310E+04</pdfrwt>
<pdfrwt beam="2">  1       -2 0.11247433E+00 0.17652310E+04</pdfrwt>
<totfact> 0.69550761E+00</totfact>
</mgrwt>
</event>
<event>
12    5  0.5041746E-008  0.1800362E+04  0.7818608E-02  0.8706107E-01
          1   -1    0    0  501    0  0.00000000000E+00  0.00000000000E+00  0.89513298766E+03  0.89513298766E+03  0.00000000000E+00 0. -1.
         -2   -1    0    0    0  501 -0.00000000000E+00 -0.00000000000E+00 -0.90525760080E+03  0.90525760080E+03  0.00000000000E+00 0.  1.
        -24    2    1    2    0    0  0.21017826757E+03  0.30910507989E+03 -0.56740176778E+03  0.68412583552E+03  0.79765519948E+02 0.  0.
        254    2    1    2    0    0 -0.21017826757E+03 -0.30910507989E+03  0.55727715464E+03  0.11162647529E+04  0.89205847174E+03 0.  0.
         23    2    4    4    0    0  0.50486103917E+02  0.97880305449E+02  0.60551725078E+03  0.62199393770E+03  0.89977311934E+02 0.  0.
         23    2    4    4    0    0 -0.26066437149E+03 -0.40698538534E+03 -0.48240096131E+02  0.49427081524E+03  0.91616120227E+02 0.  0.
          3    1    3    3  502    0  0.12098210397E+03  0.23998023606E+03 -0.41689863383E+03  0.49601578006E+03  0.00000000000E+00 0. -1.
         -4    1    3    3    0  502  0.89196163603E+02  0.69124843829E+02 -0.15050313394E+03  0.18811005545E+03  0.00000000000E+00 0.  1.
         13    1    5    5    0    0  0.50958976601E+02  0.11383487816E+03  0.56114467719E+03  0.57483784281E+03  0.00000000000E+00 0.  1.
        -13    1    5    5    0    0 -0.47287268422E+00 -0.15954572711E+02  0.44372573584E+02  0.47156094892E+02  0.00000000000E+00 0. -1.
          3    1    6    6  503    0 -0.15037492874E+02 -0.57000386275E+02 -0.30386520605E+02  0.66321270057E+02  0.00000000000E+00 0. -1.
         -3    1    6    6    0  503 -0.24562687862E+03 -0.34998499906E+03 -0.17853575526E+02  0.42794954519E+03  0.00000000000E+00 0.  1.
<mgrwt>
<rscale>  0 0.18003621E+04</rscale>
<asrwt>0</asrwt>
<pdfrwt beam="1">  1        1 0.13771277E+00 0.18003621E+04</pdfrwt>
<pdfrwt beam="2">  1       -2 0.13927040E+00 0.18003621E+04</pdfrwt>
<totfact> 0.55276630E+00</totfact>
</mgrwt>
</event>
<event>
12    5  0.5041746E-008  0.1122057E+04  0.7818608E-02  0.9183956E-01
         -2   -1    0    0    0  501 -0.00000000000E+00  0.00000000000E+00  0.27284315899E+03  0.27284315899E+03  0.00000000000E+00 0.  1.
          1   -1    0    0  501    0  0.00000000000E+00 -0.00000000000E+00 -0.11536045115E+04  0.11536045115E+04  0.00000000000E+00 0. -1.
        -24    2    1    2    0    0  0.40617892075E+02 -0.52481685991E+02  0.61331774836E+02  0.12154441896E+03  0.81285414768E+02 0.  0.
        254    2    1    2    0    0 -0.40617892075E+02  0.52481685991E+02 -0.94209312739E+03  0.13049032516E+04  0.90046037934E+03 0.  0.
         23    2    4    4    0    0 -0.75688782659E+02  0.37935785212E+02  0.15745993816E+03  0.20153874682E+03  0.93039339667E+02 0.  0.
         23    2    4    4    0    0  0.35070890584E+02  0.14545900779E+02 -0.10995530655E+04  0.11033645047E+04  0.83395058483E+02 0.  0.
          1    1    3    3  502    0  0.39046125211E+02 -0.12512705398E+02 -0.77402923791E+01  0.41726248531E+02  0.00000000000E+00 0. -1.
         -2    1    3    3    0  502  0.15717668635E+01 -0.39968980593E+02  0.69072067216E+02  0.79818170426E+02  0.00000000000E+00 0.  1.
         13    1    5    5    0    0 -0.58744545568E+02  0.48218196503E+02  0.47095306510E+02  0.89408523102E+02  0.00000000000E+00 0. -1.
        -13    1    5    5    0    0 -0.16944237091E+02 -0.10282411291E+02  0.11036463165E+03  0.11213022372E+03  0.00000000000E+00 0.  1.
          1    1    6    6  503    0  0.12634072997E+02 -0.33902022854E+02 -0.33456734745E+03  0.33651787016E+03  0.00000000000E+00 0. -1.
         -1    1    6    6    0  503  0.22436817587E+02  0.48447923633E+02 -0.76498571809E+03  0.76684663459E+03  0.00000000000E+00 0.  1.
<mgrwt>
<rscale>  0 0.11220572E+04</rscale>
<asrwt>0</asrwt>
<pdfrwt beam="1">  1        1 0.17747762E+00 0.11220572E+04</pdfrwt>
<pdfrwt beam="2">  1       -2 0.41975871E-01 0.11220572E+04</pdfrwt>
<totfact> 0.54241607E+01</totfact>
</mgrwt>
</event>
<event>
12    5  0.5041746E-008  0.1217439E+04  0.7818608E-02  0.9097728E-01
          1   -1    0    0  501    0  0.00000000000E+00  0.00000000000E+00  0.62514460113E+03  0.62514460113E+03  0.00000000000E+00 0. -1.
         -2   -1    0    0    0  501 -0.00000000000E+00 -0.00000000000E+00 -0.59272581629E+03  0.59272581629E+03  0.00000000000E+00 0.  1.
        -24    2    1    2    0    0  0.19719731568E+03  0.10610357738E+03 -0.10943252850E+03  0.26141908326E+03  0.78865127626E+02 0.  0.
        254    2    1    2    0    0 -0.19719731568E+03 -0.10610357738E+03  0.14185131335E+03  0.95645133415E+03  0.91898455322E+03 0.  0.
         23    2    4    4    0    0  0.19601767596E+03 -0.84000523943E+02  0.40992424178E+03  0.47142558428E+03  0.93408673085E+02 0.  0.
         23    2    4    4    0    0 -0.39321499164E+03 -0.22103053436E+02 -0.26807292842E+03  0.48502574987E+03  0.90996200287E+02 0.  0.
          1    1    3    3  502    0  0.14166140997E+02 -0.19409807020E+01 -0.32283910895E+02  0.35308608859E+02  0.00000000000E+00 0. -1.
         -2    1    3    3    0  502  0.18303117468E+03  0.10804455808E+03 -0.77148617610E+02  0.22611047441E+03  0.00000000000E+00 0.  1.
         13    1    5    5    0    0  0.19401337571E+03 -0.53872265270E+02  0.33815976537E+03  0.39356757721E+03  0.00000000000E+00 0.  1.
        -13    1    5    5    0    0  0.20043002456E+01 -0.30128258673E+02  0.71764476409E+02  0.77858007067E+02  0.00000000000E+00 0. -1.
          3    1    6    6  503    0 -0.62971264752E+02  0.11242626297E+02 -0.83664226580E+02  0.10531609393E+03  0.00000000000E+00 0. -1.
         -3    1    6    6    0  503 -0.33024372689E+03 -0.33345679733E+02 -0.18440870184E+03  0.37970965595E+03  0.00000000000E+00 0.  1.
<mgrwt>
<rscale>  0 0.12174389E+04</rscale>
<asrwt>0</asrwt>
<pdfrwt beam="1">  1        1 0.96176092E-01 0.12174389E+04</pdfrwt>
<pdfrwt beam="2">  1       -2 0.91188587E-01 0.12174389E+04</pdfrwt>
<totfact> 0.28622479E+01</totfact>
</mgrwt>
</event>
<event>
12    5  0.6970516E-008  0.2441321E+04  0.7818608E-02  0.8424194E-01
          1   -1    0    0  501    0  0.00000000000E+00  0.00000000000E+00  0.13769297839E+04  0.13769297839E+04  0.00000000000E+00 0. -1.
         -2   -1    0    0    0  501 -0.00000000000E+00 -0.00000000000E+00 -0.10821266456E+04  0.10821266456E+04  0.00000000000E+00 0.  1.
        -24    2    1    2    0    0 -0.48442699216E+03  0.10611898231E+03  0.10640647160E+04  0.11765024519E+04  0.77418023822E+02 0.  0.
        254    2    1    2    0    0  0.48442699216E+03 -0.10611898231E+03 -0.76926157772E+03  0.12825539775E+04  0.89847124673E+03 0.  0.
         23    2    4    4    0    0  0.45980978006E+03  0.28430036029E+03 -0.67616745776E+03  0.87039744249E+03  0.90208360332E+02 0.  0.
         23    2    4    4    0    0  0.24617212103E+02 -0.39041934260E+03 -0.93094119969E+02  0.41215653505E+03  0.90405884765E+02 0.  0.
          1    1    3    3  502    0 -0.40538433012E+03  0.95772545246E+02  0.81973104049E+03  0.91949323776E+03  0.00000000000E+00 0. -1.
         -2    1    3    3    0  502 -0.79042662043E+02  0.10346437061E+02  0.24433367550E+03  0.25700921417E+03  0.00000000000E+00 0.  1.
         13    1    5    5    0    0  0.29956656770E+03  0.22383312611E+03 -0.42126286860E+03  0.56329725837E+03  0.00000000000E+00 0. -1.
        -13    1    5    5    0    0  0.16024321236E+03  0.60467234188E+02 -0.25490458915E+03  0.30710018412E+03  0.00000000000E+00 0.  1.
          3    1    6    6  503    0  0.43187735685E+02 -0.35021479969E+03 -0.10129178502E+03  0.36711798124E+03  0.00000000000E+00 0. -1.
         -3    1    6    6    0  503 -0.18570523582E+02 -0.40204542910E+02  0.81976650538E+01  0.45038553807E+02  0.00000000000E+00 0.  1.
<mgrwt>
<rscale>  0 0.24413213E+04</rscale>
<asrwt>0</asrwt>
<pdfrwt beam="1">  1        1 0.21183535E+00 0.24413213E+04</pdfrwt>
<pdfrwt beam="2">  1       -2 0.16648102E+00 0.24413213E+04</pdfrwt>
<totfact> 0.14121160E+00</totfact>
</mgrwt>
</event>
<event>
12    5  0.5041746E-008  0.2722680E+04  0.7818608E-02  0.8327683E-01
          1   -1    0    0  501    0  0.00000000000E+00  0.00000000000E+00  0.26364047424E+04  0.26364047424E+04  0.00000000000E+00 0. -1.
         -2   -1    0    0    0  501 -0.00000000000E+00 -0.00000000000E+00 -0.70294466028E+03  0.70294466028E+03  0.00000000000E+00 0.  1.
        -24    2    1    2    0    0  0.11695058384E+04  0.29993291572E+03  0.77643209470E+03  0.14377029398E+04  0.80245158421E+02 0.  0.
        254    2    1    2    0    0 -0.11695058384E+04 -0.29993291572E+03  0.11570279875E+04  0.19016464629E+04  0.90545118369E+03 0.  0.
         23    2    4    4    0    0 -0.10349558824E+04 -0.48515777124E+02  0.44784120581E+03  0.11325337208E+04  0.92646770575E+02 0.  0.
         23    2    4    4    0    0 -0.13454995605E+03 -0.25141713859E+03  0.70918678167E+03  0.76911274208E+03  0.85289216708E+02 0.  0.
          1    1    3    3  502    0  0.10211839415E+04  0.24583042027E+03  0.70045110469E+03  0.12624899952E+04  0.00000000000E+00 0. -1.
         -2    1    3    3    0  502  0.14832189697E+03  0.54102495447E+02  0.75980990013E+02  0.17521294467E+03  0.00000000000E+00 0.  1.
         13    1    5    5    0    0 -0.49018970930E+03 -0.57298173429E+02  0.24672283885E+03  0.55176189701E+03  0.00000000000E+00 0.  1.
        -13    1    5    5    0    0 -0.54476617308E+03  0.87823963048E+01  0.20111836696E+03  0.58077182382E+03  0.00000000000E+00 0. -1.
          3    1    6    6  503    0 -0.79918644936E+02 -0.14292960462E+03  0.29407537500E+03  0.33659499085E+03  0.00000000000E+00 0. -1.
         -3    1    6    6    0  503 -0.54631311112E+02 -0.10848753397E+03  0.41511140667E+03  0.43251775123E+03  0.00000000000E+00 0.  1.
<mgrwt>
<rscale>  0 0.27226800E+04</rscale>
<asrwt>0</asrwt>
<pdfrwt beam="1">  1        1 0.40560073E+00 0.27226800E+04</pdfrwt>
<pdfrwt beam="2">  1       -2 0.10814533E+00 0.27226800E+04</pdfrwt>
<totfact> 0.57069281E-01</totfact>
</mgrwt>
</event>
<event>
12    5  0.5041746E-008  0.1740990E+04  0.7818608E-02  0.8738325E-01
          1   -1    0    0  501    0  0.00000000000E+00  0.00000000000E+00  0.65307899234E+03  0.65307899234E+03  0.00000000000E+00 0. -1.
         -2   -1    0    0    0  501 -0.00000000000E+00 -0.00000000000E+00 -0.11602907779E+04  0.11602907779E+04  0.00000000000E+00 0.  1.
        -24    2    1    2    0    0  0.39339097598E+02  0.25125332144E+03 -0.79018948357E+03  0.83413683427E+03  0.81908743090E+02 0.  0.
        254    2    1    2    0    0 -0.39339097598E+02 -0.25125332144E+03  0.28297769802E+03  0.97923293597E+03  0.90229982222E+03 0.  0.
         23    2    4    4    0    0  0.24059620237E+03 -0.29650774682E+03  0.48159225223E+03  0.62126617537E+03  0.90758948465E+02 0.  0.
         23    2    4    4    0    0 -0.27993529997E+03  0.45254425386E+02 -0.19861455421E+03  0.35796676060E+03  0.90998491013E+02 0.  0.
          1    1    3    3  502    0 -0.10577198928E+02  0.35797478217E+01 -0.70691933754E+02  0.71568437384E+02  0.00000000000E+00 0. -1.
         -2    1    3    3    0  502  0.49916296526E+02  0.24767357362E+03 -0.71949754982E+03  0.76256839688E+03  0.00000000000E+00 0.  1.
         13    1    5    5    0    0  0.19348764186E+03 -0.28211043321E+03  0.40422901132E+03  0.52955156281E+03  0.00000000000E+00 0.  1.
        -13    1    5    5    0    0  0.47108560515E+02 -0.14397313609E+02  0.77363240909E+02  0.91714612560E+02  0.00000000000E+00 0. -1.
          3    1    6    6  503    0 -0.14617882277E+03  0.13331230585E+02 -0.48979894139E+02  0.15474172019E+03  0.00000000000E+00 0. -1.
         -3    1    6    6    0  503 -0.13375647720E+03  0.31923194801E+02 -0.14963466007E+03  0.20322504042E+03  0.00000000000E+00 0.  1.
<mgrwt>
<rscale>  0 0.17409900E+04</rscale>
<asrwt>0</asrwt>
<pdfrwt beam="1">  1        1 0.10047369E+00 0.17409900E+04</pdfrwt>
<pdfrwt beam="2">  1       -2 0.17850627E+00 0.17409900E+04</pdfrwt>
<totfact> 0.46595823E+00</totfact>
</mgrwt>
</event>
<event>
12    5  0.5041746E-008  0.2368013E+04  0.7818608E-02  0.8451577E-01
          1   -1    0    0  501    0  0.00000000000E+00  0.00000000000E+00  0.14039420414E+04  0.14039420414E+04  0.00000000000E+00 0. -1.
         -2   -1    0    0    0  501 -0.00000000000E+00 -0.00000000000E+00 -0.99852476176E+03  0.99852476176E+03  0.00000000000E+00 0.  1.
        -24    2    1    2    0    0  0.97822987817E+03 -0.42005023274E+02 -0.92163685116E+02  0.98658003853E+03  0.78408615859E+02 0.  0.
        254    2    1    2    0    0 -0.97822987817E+03  0.42005023274E+02  0.49758096479E+03  0.14158867647E+04  0.89356051687E+03 0.  0.
         23    2    4    4    0    0 -0.10017139238E+04  0.29079274628E+03  0.31290098783E+03  0.10927460223E+04  0.90529744267E+02 0.  0.
         23    2    4    4    0    0  0.23484045674E+02 -0.24878772301E+03  0.18467997696E+03  0.32314074234E+03  0.88692806656E+02 0.  0.
          1    1    3    3  502    0  0.42386357297E+03 -0.50040627152E+02 -0.17664635710E+02  0.42717260236E+03  0.00000000000E+00 0. -1.
         -2    1    3    3    0  502  0.55436630520E+03  0.80356038778E+01 -0.74499049405E+02  0.55940743617E+03  0.00000000000E+00 0.  1.
         13    1    5    5    0    0 -0.91679658086E+03  0.24302365419E+03  0.26891262374E+03  0.98584505191E+03  0.00000000000E+00 0. -1.
        -13    1    5    5    0    0 -0.84917342987E+02  0.47769092092E+02  0.43988364093E+02  0.10690097041E+03  0.00000000000E+00 0.  1.
          2    1    6    6  503    0  0.17436922976E+02 -0.25393970516E+03  0.16891127369E+03  0.30548394151E+03  0.00000000000E+00 0. -1.
         -2    1    6    6    0  503  0.60471226981E+01  0.51519821529E+01  0.15768703264E+02  0.17656800833E+02  0.00000000000E+00 0.  1.
<mgrwt>
<rscale>  0 0.23680126E+04</rscale>
<asrwt>0</asrwt>
<pdfrwt beam="1">  1        1 0.21599108E+00 0.23680126E+04</pdfrwt>
<pdfrwt beam="2">  1       -2 0.15361919E+00 0.23680126E+04</pdfrwt>
<totfact> 0.16932648E+00</totfact>
</mgrwt>
</event>
<event>
12    5  0.5041746E-008  0.1910383E+04  0.7818608E-02  0.8649706E-01
          1   -1    0    0  501    0  0.00000000000E+00  0.00000000000E+00  0.32564620252E+04  0.32564620252E+04  0.00000000000E+00 0. -1.
         -2   -1    0    0    0  501 -0.00000000000E+00 -0.00000000000E+00 -0.28017842189E+03  0.28017842189E+03  0.00000000000E+00 0.  1.
        -24    2    1    2    0    0 -0.20073510897E+03  0.15766864208E+02  0.24837692740E+04  0.24932249647E+04  0.80732523383E+02 0.  0.
        254    2    1    2    0    0  0.20073510897E+03 -0.15766864208E+02  0.49251432931E+03  0.10434154824E+04  0.89755352279E+03 0.  0.
         23    2    4    4    0    0  0.30790632659E+03 -0.10887284670E+03  0.69892162401E+03  0.77679676287E+03  0.90896488389E+02 0.  0.
         23    2    4    4    0    0 -0.10717121762E+03  0.93105982487E+02 -0.20640729470E+03  0.26661871949E+03  0.91253363853E+02 0.  0.
          3    1    3    3  502    0 -0.22796267146E+02 -0.41261480155E+01  0.72400467908E+03  0.72437522751E+03  0.00000000000E+00 0. -1.
         -4    1    3    3    0  502 -0.17793884182E+03  0.19893012224E+02  0.17597645949E+04  0.17688497372E+04  0.00000000000E+00 0.  1.
         13    1    5    5    0    0  0.11592616597E+03 -0.88448840395E+02  0.29043701696E+03  0.32498574453E+03  0.00000000000E+00 0.  1.
        -13    1    5    5    0    0  0.19198016063E+03 -0.20424006301E+02  0.40848460704E+03  0.45181101835E+03  0.00000000000E+00 0. -1.
          1    1    6    6  503    0 -0.65517163133E+02  0.67085535945E+00 -0.10078452852E+03  0.12021010732E+03  0.00000000000E+00 0. -1.
         -1    1    6    6    0  503 -0.41654054490E+02  0.92435127128E+02 -0.10562276618E+03  0.14640861217E+03  0.00000000000E+00 0.  1.
<mgrwt>
<rscale>  0 0.19103826E+04</rscale>
<asrwt>0</asrwt>
<pdfrwt beam="1">  1        1 0.50099413E+00 0.19103826E+04</pdfrwt>
<pdfrwt beam="2">  1       -2 0.43104375E-01 0.19103826E+04</pdfrwt>
<totfact> 0.16210431E+00</totfact>
</mgrwt>
</event>
<event>
12    5  0.5041746E-008  0.1350527E+04  0.7818608E-02  0.8990429E-01
          1   -1    0    0  501    0  0.00000000000E+00  0.00000000000E+00  0.92936021587E+03  0.92936021587E+03  0.00000000000E+00 0. -1.
         -2   -1    0    0    0  501 -0.00000000000E+00 -0.00000000000E+00 -0.49063945634E+03  0.49063945634E+03  0.00000000000E+00 0.  1.
        -24    2    1    2    0    0  0.29179156233E+03  0.35091696143E+03  0.31045444762E+03  0.55747584869E+03  0.78181379856E+02 0.  0.
        254    2    1    2    0    0 -0.29179156233E+03 -0.35091696143E+03  0.12826631191E+03  0.86252382352E+03  0.72056232881E+03 0.  0.
         23    2    4    4    0    0 -0.61126072984E+02  0.12099175487E+03  0.26589130201E+03  0.31174579686E+03  0.90065841634E+02 0.  0.
         23    2    4    4    0    0 -0.23066548935E+03 -0.47190871630E+03 -0.13762499010E+03  0.55077802666E+03  0.92257207052E+02 0.  0.
          3    1    3    3  502    0  0.27849986161E+03  0.34772930978E+03  0.31174145544E+03  0.54374679846E+03  0.00000000000E+00 0. -1.
         -4    1    3    3    0  502  0.13291700717E+02  0.31876516571E+01 -0.12870078217E+01  0.13729050228E+02  0.00000000000E+00 0.  1.
         13    1    5    5    0    0 -0.11483877570E+02  0.48859070321E+01  0.11193738888E+03  0.11263094850E+03  0.00000000000E+00 0. -1.
        -13    1    5    5    0    0 -0.49642195414E+02  0.11610584784E+03  0.15395391314E+03  0.19911484836E+03  0.00000000000E+00 0.  1.
          1    1    6    6  503    0 -0.20101411047E+03 -0.40997499453E+03 -0.15079845003E+03  0.48086000175E+03  0.00000000000E+00 0. -1.
         -1    1    6    6    0  503 -0.29651378874E+02 -0.61933721769E+02  0.13173459920E+02  0.69918024912E+02  0.00000000000E+00 0.  1.
<mgrwt>
<rscale>  0 0.13505270E+04</rscale>
<asrwt>0</asrwt>
<pdfrwt beam="1">  1        1 0.14297849E+00 0.13505270E+04</pdfrwt>
<pdfrwt beam="2">  1       -2 0.75482993E-01 0.13505270E+04</pdfrwt>
<totfact> 0.23259679E+01</totfact>
</mgrwt>
</event>
<event>
12    5  0.5041746E-008  0.1350503E+04  0.7818608E-02  0.8990448E-01
         -2   -1    0    0    0  501 -0.00000000000E+00  0.00000000000E+00  0.33590146781E+03  0.33590146781E+03  0.00000000000E+00 0.  1.
          1   -1    0    0  501    0  0.00000000000E+00 -0.00000000000E+00 -0.13574349456E+04  0.13574349456E+04  0.00000000000E+00 0. -1.
        -24    2    1    2    0    0  0.16068946859E+03 -0.13147070013E+03 -0.49503907514E+03  0.54294043653E+03  0.81332535879E+02 0.  0.
        254    2    1    2    0    0 -0.16068946859E+03  0.13147070013E+03 -0.52649440268E+03  0.11503959769E+04  0.10015532424E+04 0.  0.
         23    2    4    4    0    0 -0.55535180720E+03  0.20982409113E+03 -0.23460924881E+03  0.64503081442E+03  0.92636239920E+02 0.  0.
         23    2    4    4    0    0  0.39466233861E+03 -0.78353390996E+02 -0.29188515387E+03  0.50536516248E+03  0.91100982466E+02 0.  0.
          3    1    3    3  502    0  0.75524504085E+02 -0.54378171123E+02 -0.32248863837E+03  0.33564841440E+03  0.00000000000E+00 0. -1.
         -2    1    3    3    0  502  0.85164964503E+02 -0.77092529009E+02 -0.17255043677E+03  0.20729202213E+03  0.00000000000E+00 0.  1.
         13    1    5    5    0    0 -0.41428883190E+03  0.11267332991E+03 -0.17579739529E+03  0.46393452092E+03  0.00000000000E+00 0. -1.
        -13    1    5    5    0    0 -0.14106297530E+03  0.97150761213E+02 -0.58811853519E+02  0.18109629350E+03  0.00000000000E+00 0.  1.
          1    1    6    6  503    0  0.29318559199E+03 -0.29416188093E+02 -0.17351104122E+03  0.34194909694E+03  0.00000000000E+00 0. -1.
         -1    1    6    6    0  503  0.10147674662E+03 -0.48937202903E+02 -0.11837411265E+03  0.16341606554E+03  0.00000000000E+00 0.  1.
<mgrwt>
<rscale>  0 0.13505027E+04</rscale>
<asrwt>0</asrwt>
<pdfrwt beam="1">  1        1 0.20883615E+00 0.13505027E+04</pdfrwt>
<pdfrwt beam="2">  1       -2 0.51677148E-01 0.13505027E+04</pdfrwt>
<totfact> 0.25001164E+01</totfact>
</mgrwt>
</event>
<event>
12    5  0.5041746E-008  0.1585251E+04  0.7818608E-02  0.8829661E-01
          1   -1    0    0  501    0  0.00000000000E+00  0.00000000000E+00  0.64488181010E+03  0.64488181010E+03  0.00000000000E+00 0. -1.
         -2   -1    0    0    0  501 -0.00000000000E+00 -0.00000000000E+00 -0.97421711726E+03  0.97421711726E+03  0.00000000000E+00 0.  1.
        -24    2    1    2    0    0 -0.37698372719E+03  0.36177626090E+03 -0.22471598293E+03  0.57451899065E+03  0.81092565114E+02 0.  0.
        254    2    1    2    0    0  0.37698372719E+03 -0.36177626090E+03 -0.10461932423E+03  0.10445799367E+04  0.89844490518E+03 0.  0.
         23    2    4    4    0    0  0.23484452291E+03 -0.64842265576E+02  0.37483325162E+03  0.45592996342E+03  0.89530417635E+02 0.  0.
         23    2    4    4    0    0  0.14213920428E+03 -0.29693399533E+03 -0.47945257585E+03  0.58864997328E+03  0.90888214750E+02 0.  0.
          1    1    3    3  502    0 -0.23612234751E+03  0.25947516661E+03 -0.18216503411E+03  0.39530396498E+03  0.00000000000E+00 0. -1.
         -2    1    3    3    0  502 -0.14086137968E+03  0.10230109430E+03 -0.42550948816E+02  0.17921502567E+03  0.00000000000E+00 0.  1.
         13    1    5    5    0    0  0.10806155971E+03 -0.43558766612E+02  0.25423513924E+03  0.27966081753E+03  0.00000000000E+00 0. -1.
        -13    1    5    5    0    0  0.12678296320E+03 -0.21283498964E+02  0.12059811238E+03  0.17626914589E+03  0.00000000000E+00 0.  1.
          2    1    6    6  503    0  0.13047518634E+03 -0.30166951220E+03 -0.45715812436E+03  0.56304690702E+03  0.00000000000E+00 0. -1.
         -2    1    6    6    0  503  0.11664017942E+02  0.47355168704E+01 -0.22294451493E+02  0.25603066261E+02  0.00000000000E+00 0.  1.
<mgrwt>
<rscale>  0 0.15852506E+04</rscale>
<asrwt>0</asrwt>
<pdfrwt beam="1">  1        1 0.99212586E-01 0.15852506E+04</pdfrwt>
<pdfrwt beam="2">  1       -2 0.14987956E+00 0.15852506E+04</pdfrwt>
<totfact> 0.77762079E+00</totfact>
</mgrwt>
</event>
<event>
12    5  0.5041746E-008  0.1787860E+04  0.7818608E-02  0.8712782E-01
         -2   -1    0    0    0  501 -0.00000000000E+00  0.00000000000E+00  0.35459286716E+03  0.35459286716E+03  0.00000000000E+00 0.  1.
          1   -1    0    0  501    0  0.00000000000E+00 -0.00000000000E+00 -0.22535998549E+04  0.22535998549E+04  0.00000000000E+00 0. -1.
        -24    2    1    2    0    0 -0.14819321488E+03  0.80004742222E+02  0.22469347743E+03  0.29238353066E+03  0.81479951440E+02 0.  0.
        254    2    1    2    0    0  0.14819321488E+03 -0.80004742222E+02 -0.21237004651E+04  0.23158091914E+04  0.90802343442E+03 0.  0.
         23    2    4    4    0    0  0.23481889432E+03 -0.22228173257E+03 -0.20984785761E+04  0.21251706547E+04  0.90492516568E+02 0.  0.
         23    2    4    4    0    0 -0.86625679435E+02  0.14227699034E+03 -0.25221889042E+02  0.19063853665E+03  0.89219715595E+02 0.  0.
          1    1    3    3  502    0 -0.99190005644E+02  0.11269178372E+02  0.96161757408E+02  0.13861001114E+03  0.00000000000E+00 0. -1.
         -2    1    3    3    0  502 -0.49003209238E+02  0.68735563850E+02  0.12853172002E+03  0.15377351952E+03  0.00000000000E+00 0.  1.
         13    1    5    5    0    0  0.18768222049E+02 -0.36316551487E+02 -0.13338931956E+03  0.13951289777E+03  0.00000000000E+00 0.  1.
        -13    1    5    5    0    0  0.21605067227E+03 -0.18596518108E+03 -0.19650892565E+04  0.19856577570E+04  0.00000000000E+00 0. -1.
          4    1    6    6  503    0 -0.90128947049E+02  0.14817159021E+03 -0.97370236623E+01  0.17370335884E+03  0.00000000000E+00 0. -1.
         -4    1    6    6    0  503  0.35032676139E+01 -0.58945998716E+01 -0.15484865379E+02  0.16935177809E+02  0.00000000000E+00 0.  1.
<mgrwt>
<rscale>  0 0.17878595E+04</rscale>
<asrwt>0</asrwt>
<pdfrwt beam="1">  1        1 0.34670766E+00 0.17878595E+04</pdfrwt>
<pdfrwt beam="2">  1       -2 0.54552751E-01 0.17878595E+04</pdfrwt>
<totfact> 0.52553350E+00</totfact>
</mgrwt>
</event>
<event>
12    5  0.5041746E-008  0.1191986E+04  0.7818608E-02  0.9119900E-01
          1   -1    0    0  501    0  0.00000000000E+00  0.00000000000E+00  0.36076888761E+04  0.36076888761E+04  0.00000000000E+00 0. -1.
         -2   -1    0    0    0  501 -0.00000000000E+00 -0.00000000000E+00 -0.98458517212E+02  0.98458517212E+02  0.00000000000E+00 0.  1.
        -24    2    1    2    0    0 -0.95920300102E+01  0.16579811810E+03  0.14272620182E+04  0.14392262946E+04  0.81941659070E+02 0.  0.
        254    2    1    2    0    0  0.95920300102E+01 -0.16579811810E+03  0.20819683407E+04  0.22669210987E+04  0.88133879587E+03 0.  0.
         23    2    4    4    0    0 -0.11513977634E+03  0.25360335519E+03  0.26343481580E+03  0.39426694096E+03  0.92068934493E+02 0.  0.
         23    2    4    4    0    0  0.12473180635E+03 -0.41940147329E+03  0.18185335249E+04  0.18726541577E+04  0.91180009166E+02 0.  0.
          3    1    3    3  502    0 -0.44692701299E+02  0.11537545970E+03  0.96457129132E+03  0.97247452938E+03  0.00000000000E+00 0. -1.
         -4    1    3    3    0  502  0.35100671289E+02  0.50422658402E+02  0.46269072690E+03  0.46675176525E+03  0.00000000000E+00 0.  1.
         13    1    5    5    0    0 -0.38920462444E+02  0.44302886183E+02  0.10667279903E+03  0.12188779337E+03  0.00000000000E+00 0.  1.
        -13    1    5    5    0    0 -0.76219313896E+02  0.20930046900E+03  0.15676201677E+03  0.27237914758E+03  0.00000000000E+00 0. -1.
          3    1    6    6  503    0  0.67704656899E+02 -0.30152663612E+03  0.14170509576E+04  0.14503570764E+04  0.00000000000E+00 0. -1.
         -3    1    6    6    0  503  0.57027149451E+02 -0.11787483717E+03  0.40148256732E+03  0.42229708130E+03  0.00000000000E+00 0.  1.
<mgrwt>
<rscale>  0 0.11919861E+04</rscale>
<asrwt>0</asrwt>
<pdfrwt beam="1">  1        1 0.55502896E+00 0.11919861E+04</pdfrwt>
<pdfrwt beam="2">  1       -2 0.15147467E-01 0.11919861E+04</pdfrwt>
<totfact> 0.63160254E+00</totfact>
</mgrwt>
</event>
<event>
12    5  0.5041746E-008  0.2881146E+04  0.7818608E-02  0.8278509E-01
         -2   -1    0    0    0  501 -0.00000000000E+00  0.00000000000E+00  0.79540563989E+03  0.79540563989E+03  0.00000000000E+00 0.  1.
          1   -1    0    0  501    0  0.00000000000E+00 -0.00000000000E+00 -0.26090465423E+04  0.26090465423E+04  0.00000000000E+00 0. -1.
        -24    2    1    2    0    0 -0.68311220578E+03 -0.41963303057E+03  0.38727528297E+03  0.89385330802E+03  0.79103890000E+02 0.  0.
        254    2    1    2    0    0  0.68311220578E+03  0.41963303057E+03 -0.22009161854E+04  0.25105988742E+04  0.90351562570E+03 0.  0.
         23    2    4    4    0    0  0.13646181902E+03  0.22709846249E+03 -0.17463747728E+04  0.17686152617E+04  0.89328366458E+02 0.  0.
         23    2    4    4    0    0  0.54665038676E+03  0.19253456808E+03 -0.45454141260E+03  0.74198361251E+03  0.89641397841E+02 0.  0.
          1    1    3    3  502    0 -0.27046165810E+03 -0.13599158103E+03  0.11460428074E+03  0.32369331130E+03  0.00000000000E+00 0. -1.
         -2    1    3    3    0  502 -0.41265054768E+03 -0.28364144954E+03  0.27267100223E+03  0.57015999672E+03  0.00000000000E+00 0.  1.
         13    1    5    5    0    0  0.97676251997E+02  0.17956018402E+03 -0.10617746971E+04  0.10812714818E+04  0.00000000000E+00 0. -1.
        -13    1    5    5    0    0  0.38785567023E+02  0.47538278465E+02 -0.68460007565E+03  0.68734377986E+03  0.00000000000E+00 0.  1.
          1    1    6    6  503    0  0.30354836226E+03  0.59495869931E+02 -0.24175586764E+03  0.39259045621E+03  0.00000000000E+00 0. -1.
         -1    1    6    6    0  503  0.24310202450E+03  0.13303869815E+03 -0.21278554496E+03  0.34939315630E+03  0.00000000000E+00 0.  1.
<mgrwt>
<rscale>  0 0.28811458E+04</rscale>
<asrwt>0</asrwt>
<pdfrwt beam="1">  1        1 0.40139178E+00 0.28811458E+04</pdfrwt>
<pdfrwt beam="2">  1       -2 0.12237010E+00 0.28811458E+04</pdfrwt>
<totfact> 0.43477039E-01</totfact>
</mgrwt>
</event>
<event>
12    5  0.5041746E-008  0.1305524E+04  0.7818608E-02  0.9025196E-01
         -2   -1    0    0    0  501 -0.00000000000E+00  0.00000000000E+00  0.36865137858E+03  0.36865137858E+03  0.00000000000E+00 0.  1.
          1   -1    0    0  501    0  0.00000000000E+00 -0.00000000000E+00 -0.11558299172E+04  0.11558299172E+04  0.00000000000E+00 0. -1.
        -24    2    1    2    0    0 -0.19348674759E+03  0.88949406973E+02  0.95688811582E+02  0.24694085374E+03  0.80463147416E+02 0.  0.
        254    2    1    2    0    0  0.19348674759E+03 -0.88949406973E+02 -0.88286735021E+03  0.12775404420E+04  0.89850192236E+03 0.  0.
         23    2    4    4    0    0 -0.33846476462E+03 -0.19870928317E+02 -0.50653738199E+03  0.61572416025E+03  0.87079684640E+02 0.  0.
         23    2    4    4    0    0  0.53195151221E+03 -0.69078478656E+02 -0.37632996822E+03  0.66181628180E+03  0.92910162583E+02 0.  0.
          1    1    3    3  502    0 -0.23402935670E+02 -0.15080944352E+02  0.16850188839E+02  0.32543219639E+02  0.00000000000E+00 0. -1.
         -2    1    3    3    0  502 -0.17008381192E+03  0.10403035132E+03  0.78838622742E+02  0.21439763410E+03  0.00000000000E+00 0.  1.
         13    1    5    5    0    0 -0.12521044215E+03 -0.43581929257E+02 -0.15596251088E+03  0.20469817825E+03  0.00000000000E+00 0. -1.
        -13    1    5    5    0    0 -0.21325432247E+03  0.23711000941E+02 -0.35057487111E+03  0.41102598199E+03  0.00000000000E+00 0.  1.
          1    1    6    6  503    0  0.23247783830E+02  0.10882293187E+02 -0.31461859408E+01  0.25860824503E+02  0.00000000000E+00 0. -1.
         -1    1    6    6    0  503  0.50870372838E+03 -0.79960771843E+02 -0.37318378228E+03  0.63595545729E+03  0.00000000000E+00 0.  1.
<mgrwt>
<rscale>  0 0.13055241E+04</rscale>
<asrwt>0</asrwt>
<pdfrwt beam="1">  1        1 0.17781999E+00 0.13055241E+04</pdfrwt>
<pdfrwt beam="2">  1       -2 0.56715597E-01 0.13055241E+04</pdfrwt>
<totfact> 0.28922760E+01</totfact>
</mgrwt>
</event>
<event>
12    5  0.5041746E-008  0.1983353E+04  0.7818608E-02  0.8614443E-01
         -2   -1    0    0    0  501 -0.00000000000E+00  0.00000000000E+00  0.51833174348E+03  0.51833174348E+03  0.00000000000E+00 0.  1.
          1   -1    0    0  501    0  0.00000000000E+00 -0.00000000000E+00 -0.18972844752E+04  0.18972844752E+04  0.00000000000E+00 0. -1.
        -24    2    1    2    0    0 -0.60323199065E+01  0.52242083930E+01 -0.14929501754E+04  0.14951256110E+04  0.80228954534E+02 0.  0.
        254    2    1    2    0    0  0.60323199065E+01 -0.52242083930E+01  0.11399744371E+03  0.92049060767E+03  0.91336950923E+03 0.  0.
         23    2    4    4    0    0 -0.26934856623E+03 -0.34022874255E+03  0.17163136704E+03  0.47506465574E+03  0.89021646751E+02 0.  0.
         23    2    4    4    0    0  0.27538088614E+03  0.33500453416E+03 -0.57633923337E+02  0.44542595193E+03  0.83785077261E+02 0.  0.
          3    1    3    3  502    0 -0.27750207743E+02  0.31833422318E+02 -0.10485549842E+04  0.10494050675E+04  0.00000000000E+00 0. -1.
         -4    1    3    3    0  502  0.21717887837E+02 -0.26609213925E+02 -0.44439519121E+03  0.44572054349E+03  0.00000000000E+00 0.  1.
         13    1    5    5    0    0 -0.63375781813E+01  0.55926184824E+01  0.22998957219E+01  0.87596688879E+01  0.00000000000E+00 0.  1.
        -13    1    5    5    0    0 -0.26301098805E+03 -0.34582136103E+03  0.16933147132E+03  0.46630498685E+03  0.00000000000E+00 0. -1.
          4    1    6    6  503    0  0.26274000261E+03  0.30145419669E+03 -0.31623871488E+02  0.40113216141E+03  0.00000000000E+00 0. -1.
         -4    1    6    6    0  503  0.12640883532E+02  0.33550337472E+02 -0.26010051849E+02  0.44293790515E+02  0.00000000000E+00 0.  1.
<mgrwt>
<rscale>  0 0.19833535E+04</rscale>
<asrwt>0</asrwt>
<pdfrwt beam="1">  1        1 0.29188992E+00 0.19833535E+04</pdfrwt>
<pdfrwt beam="2">  1       -2 0.79743344E-01 0.19833535E+04</pdfrwt>
<totfact> 0.39739753E+00</totfact>
</mgrwt>
</event>
<event>
12    5  0.5041746E-008  0.2384111E+04  0.7818608E-02  0.8445476E-01
         -2   -1    0    0    0  501 -0.00000000000E+00  0.00000000000E+00  0.11916674552E+04  0.11916674552E+04  0.00000000000E+00 0.  1.
          1   -1    0    0  501    0  0.00000000000E+00 -0.00000000000E+00 -0.11924437153E+04  0.11924437153E+04  0.00000000000E+00 0. -1.
        -24    2    1    2    0    0  0.74367558059E+03 -0.23986805472E+02 -0.69853246240E+03  0.10235715748E+04  0.78245969282E+02 0.  0.
        254    2    1    2    0    0 -0.74367558059E+03  0.23986805472E+02  0.69775620230E+03  0.13605395956E+04  0.90031968620E+03 0.  0.
         23    2    4    4    0    0  0.18115633528E+03 -0.93985337389E+02  0.19372957302E+03  0.29692865711E+03  0.94787227500E+02 0.  0.
         23    2    4    4    0    0 -0.92483191587E+03  0.11797214286E+03  0.50402662927E+03  0.10636109385E+04  0.89408536322E+02 0.  0.
          3    1    3    3  502    0  0.59501148115E+03 -0.26505963393E+02 -0.59855561319E+03  0.84439922482E+03  0.00000000000E+00 0. -1.
         -4    1    3    3    0  502  0.14866409945E+03  0.25191579214E+01 -0.99976849208E+02  0.17917234998E+03  0.00000000000E+00 0.  1.
         13    1    5    5    0    0  0.15193741343E+03 -0.97991555910E+02  0.19684320317E+03  0.26727246260E+03  0.00000000000E+00 0.  1.
        -13    1    5    5    0    0  0.29218921843E+02  0.40062185210E+01 -0.31136301433E+01  0.29656194516E+02  0.00000000000E+00 0. -1.
          4    1    6    6  503    0 -0.59477732162E+03  0.89389033735E+02  0.27824901320E+03  0.66270127132E+03  0.00000000000E+00 0.  1.
         -4    1    6    6    0  503 -0.33005459425E+03  0.28583109126E+02  0.22577761607E+03  0.40090966717E+03  0.00000000000E+00 0. -1.
<mgrwt>
<rscale>  0 0.23841110E+04</rscale>
<asrwt>0</asrwt>
<pdfrwt beam="1">  1        1 0.18345288E+00 0.23841110E+04</pdfrwt>
<pdfrwt beam="2">  1       -2 0.18333345E+00 0.23841110E+04</pdfrwt>
<totfact> 0.14655468E+00</totfact>
</mgrwt>
</event>
<event>
12    5  0.5041746E-008  0.1771765E+04  0.7818608E-02  0.8721460E-01
          1   -1    0    0  501    0  0.00000000000E+00  0.00000000000E+00  0.11280035704E+04  0.11280035704E+04  0.00000000000E+00 0. -1.
         -2   -1    0    0    0  501 -0.00000000000E+00 -0.00000000000E+00 -0.69573157704E+03  0.69573157704E+03  0.00000000000E+00 0.  1.
        -24    2    1    2    0    0 -0.19723291012E+03  0.25886479101E+03  0.74061000681E+03  0.81101970299E+03  0.57775216080E+02 0.  0.
        254    2    1    2    0    0  0.19723291012E+03 -0.25886479101E+03 -0.30833801349E+03  0.10127154444E+04  0.90807953393E+03 0.  0.
         23    2    4    4    0    0  0.32349212154E+03 -0.10335605403E+03  0.23723869020E+03  0.42387312248E+03  0.89758571879E+02 0.  0.
         23    2    4    4    0    0 -0.12625921142E+03 -0.15550873698E+03 -0.54557670369E+03  0.58884232194E+03  0.94641348003E+02 0.  0.
          1    1    3    3  502    0 -0.65683986805E+02  0.11316865174E+03  0.35445839602E+03  0.37783896619E+03  0.00000000000E+00 0. -1.
         -2    1    3    3    0  502 -0.13154892331E+03  0.14569613926E+03  0.38615161079E+03  0.43318073680E+03  0.00000000000E+00 0.  1.
         13    1    5    5    0    0  0.18669200047E+02 -0.18698153815E+02 -0.30583279712E+01  0.26599123227E+02  0.00000000000E+00 0. -1.
        -13    1    5    5    0    0  0.30482292149E+03 -0.84657900216E+02  0.24029701817E+03  0.39727399925E+03  0.00000000000E+00 0.  1.
          3    1    6    6  503    0 -0.10820370372E+03 -0.96458580414E+02 -0.27019939617E+03  0.30662683008E+03  0.00000000000E+00 0. -1.
         -3    1    6    6    0  503 -0.18055507705E+02 -0.59050156563E+02 -0.27537730752E+03  0.28221549186E+03  0.00000000000E+00 0.  1.
<mgrwt>
<rscale>  0 0.17717649E+04</rscale>
<asrwt>0</asrwt>
<pdfrwt beam="1">  1        1 0.17353901E+00 0.17717649E+04</pdfrwt>
<pdfrwt beam="2">  1       -2 0.10703563E+00 0.17717649E+04</pdfrwt>
<totfact> 0.70330159E+00</totfact>
</mgrwt>
</event>
<event>
12    5  0.5041746E-008  0.1156684E+04  0.7818608E-02  0.9151639E-01
          1   -1    0    0  501    0  0.00000000000E+00  0.00000000000E+00  0.69429045688E+03  0.69429045688E+03  0.00000000000E+00 0. -1.
         -2   -1    0    0    0  501 -0.00000000000E+00 -0.00000000000E+00 -0.48175723358E+03  0.48175723358E+03  0.00000000000E+00 0.  1.
        -24    2    1    2    0    0 -0.16415512421E+03  0.33485364515E+02 -0.73144323334E+02  0.19843479260E+03  0.77188732570E+02 0.  0.
        254    2    1    2    0    0  0.16415512421E+03 -0.33485364515E+02  0.28567754664E+03  0.97761289786E+03  0.91980820988E+03 0.  0.
         23    2    4    4    0    0  0.38153512438E+03 -0.19819244060E+03  0.46550959607E+03  0.64023974268E+03  0.91424555986E+02 0.  0.
         23    2    4    4    0    0 -0.21738000016E+03  0.16470707608E+03 -0.17983204943E+03  0.33737315518E+03  0.84253156909E+02 0.  0.
          1    1    3    3  502    0 -0.14395103516E+03  0.20922285065E+02 -0.88356671571E+02  0.17019560496E+03  0.00000000000E+00 0. -1.
         -2    1    3    3    0  502 -0.20204089051E+02  0.12563079449E+02  0.15212348237E+02  0.28239187639E+02  0.00000000000E+00 0.  1.
         13    1    5    5    0    0  0.35357354874E+03 -0.15779898052E+03  0.43523800146E+03  0.58253488353E+03  0.00000000000E+00 0. -1.
        -13    1    5    5    0    0  0.27961575641E+02 -0.40393460079E+02  0.30271594609E+02  0.57704859151E+02  0.00000000000E+00 0.  1.
          4    1    6    6  503    0 -0.18345404400E+03  0.17102254163E+03 -0.16138075748E+03  0.29824125283E+03  0.00000000000E+00 0. -1.
         -4    1    6    6    0  503 -0.33925956168E+02 -0.63154655436E+01 -0.18451291951E+02  0.39131902351E+02  0.00000000000E+00 0.  1.
<mgrwt>
<rscale>  0 0.11566840E+04</rscale>
<asrwt>0</asrwt>
<pdfrwt beam="1">  1        1 0.10681392E+00 0.11566840E+04</pdfrwt>
<pdfrwt beam="2">  1       -2 0.74116498E-01 0.11566840E+04</pdfrwt>
<totfact> 0.39325331E+01</totfact>
</mgrwt>
</event>
<event>
12    5  0.5041746E-008  0.2508602E+04  0.7818608E-02  0.8399927E-01
         -2   -1    0    0    0  501 -0.00000000000E+00  0.00000000000E+00  0.22500036129E+04  0.22500036129E+04  0.00000000000E+00 0.  1.
          1   -1    0    0  501    0  0.00000000000E+00 -0.00000000000E+00 -0.69923040435E+03  0.69923040435E+03  0.00000000000E+00 0. -1.
        -24    2    1    2    0    0  0.61021502495E+03  0.18219580829E+03  0.17181048157E+04  0.18339457899E+04  0.76911073640E+02 0.  0.
        254    2    1    2    0    0 -0.61021502495E+03 -0.18219580829E+03 -0.16733160710E+03  0.11152882274E+04  0.90017235809E+03 0.  0.
         23    2    4    4    0    0 -0.36443583654E+03  0.19921446142E+03 -0.41164176915E+03  0.59170609602E+03  0.90372990260E+02 0.  0.
         23    2    4    4    0    0 -0.24577918842E+03 -0.38141026971E+03  0.24431016205E+03  0.52358213141E+03  0.92572078654E+02 0.  0.
          3    1    3    3  502    0  0.31380865435E+03  0.57226177884E+02  0.90134380904E+03  0.95612309306E+03  0.00000000000E+00 0. -1.
         -4    1    3    3    0  502  0.29640637061E+03  0.12496963041E+03  0.81676100663E+03  0.87782269680E+03  0.00000000000E+00 0.  1.
         13    1    5    5    0    0 -0.35596276486E+03  0.18303077319E+03 -0.36531781866E+03  0.54191038238E+03  0.00000000000E+00 0. -1.
        -13    1    5    5    0    0 -0.84730716817E+01  0.16183688238E+02 -0.46323950484E+02  0.49795713643E+02  0.00000000000E+00 0.  1.
          3    1    6    6  503    0 -0.12055069427E+03 -0.26041608067E+03  0.17531363923E+03  0.33627946274E+03  0.00000000000E+00 0. -1.
         -3    1    6    6    0  503 -0.12522849415E+03 -0.12099418905E+03  0.68996522818E+02  0.18730266867E+03  0.00000000000E+00 0.  1.
<mgrwt>
<rscale>  0 0.25086020E+04</rscale>
<asrwt>0</asrwt>
<pdfrwt beam="1">  1        1 0.10757391E+00 0.25086020E+04</pdfrwt>
<pdfrwt beam="2">  1       -2 0.34615440E+00 0.25086020E+04</pdfrwt>
<totfact> 0.34951831E-01</totfact>
</mgrwt>
</event>
<event>
12    5  0.5041746E-008  0.2042871E+04  0.7818608E-02  0.8586835E-01
          1   -1    0    0  501    0  0.00000000000E+00  0.00000000000E+00  0.51563768462E+03  0.51563768462E+03  0.00000000000E+00 0. -1.
         -2   -1    0    0    0  501 -0.00000000000E+00 -0.00000000000E+00 -0.20233795034E+04  0.20233795034E+04  0.00000000000E+00 0.  1.
        -24    2    1    2    0    0  0.85553788514E+02  0.62336928077E+03 -0.13056060526E+04  0.14516601852E+04  0.82470708681E+02 0.  0.
        254    2    1    2    0    0 -0.85553788514E+02 -0.62336928077E+03 -0.20213576619E+03  0.10873570028E+04  0.86346839703E+03 0.  0.
         23    2    4    4    0    0 -0.75327251129E+02 -0.70813597894E+03  0.13278163994E+03  0.73014022151E+03  0.91340132105E+02 0.  0.
         23    2    4    4    0    0 -0.10226537386E+02  0.84766698177E+02 -0.33491740612E+03  0.35721678130E+03  0.90245136885E+02 0.  0.
          3    1    3    3  502    0  0.46340520809E+02  0.37355073729E+03 -0.68697630506E+03  0.78334158636E+03  0.00000000000E+00 0. -1.
         -4    1    3    3    0  502  0.39213267705E+02  0.24981854348E+03 -0.61862974751E+03  0.66831859883E+03  0.00000000000E+00 0.  1.
         13    1    5    5    0    0 -0.36600780923E+02 -0.11578551273E+03 -0.18610869630E+01  0.12144696689E+03  0.00000000000E+00 0. -1.
        -13    1    5    5    0    0 -0.38726470206E+02 -0.59235046622E+03  0.13464272690E+03  0.60869325463E+03  0.00000000000E+00 0.  1.
          1    1    6    6  503    0  0.32645384604E+02  0.63440642095E+02 -0.14853613448E+03  0.16478294648E+03  0.00000000000E+00 0. -1.
         -1    1    6    6    0  503 -0.42871921989E+02  0.21326056082E+02 -0.18638127165E+03  0.19243383482E+03  0.00000000000E+00 0.  1.
<mgrwt>
<rscale>  0 0.20428712E+04</rscale>
<asrwt>0</asrwt>
<pdfrwt beam="1">  1        1 0.79328875E-01 0.20428712E+04</pdfrwt>
<pdfrwt beam="2">  1       -2 0.31128915E+00 0.20428712E+04</pdfrwt>
<totfact> 0.93222051E-01</totfact>
</mgrwt>
</event>
<event>
12    5  0.5041746E-008  0.1562876E+04  0.7818608E-02  0.8843685E-01
         -2   -1    0    0    0  501 -0.00000000000E+00  0.00000000000E+00  0.13755195527E+04  0.13755195527E+04  0.00000000000E+00 0.  1.
          1   -1    0    0  501    0  0.00000000000E+00 -0.00000000000E+00 -0.44393804119E+03  0.44393804119E+03  0.00000000000E+00 0. -1.
        -24    2    1    2    0    0 -0.32651652649E+03 -0.79380184289E+02 -0.13635063390E+03  0.37191597047E+03  0.82557483032E+02 0.  0.
        254    2    1    2    0    0  0.32651652649E+03  0.79380184289E+02  0.10679321454E+04  0.14475416234E+04  0.91759655001E+03 0.  0.
         23    2    4    4    0    0 -0.23298551071E+03  0.75801607598E+01  0.17180171411E+02  0.25070156946E+03  0.90644424002E+02 0.  0.
         23    2    4    4    0    0  0.55950203720E+03  0.71800023529E+02  0.10507519740E+04  0.11968400540E+04  0.10074041334E+03 0.  0.
          1    1    3    3  502    0 -0.30501202411E+03 -0.94242477793E+02 -0.11980871477E+03  0.34098109567E+03  0.00000000000E+00 0. -1.
         -2    1    3    3    0  502 -0.21504502379E+02  0.14862293504E+02 -0.16541919125E+02  0.30934874804E+02  0.00000000000E+00 0.  1.
         13    1    5    5    0    0 -0.53250473489E+02 -0.37091048549E+02  0.56250801586E+01  0.65138316958E+02  0.00000000000E+00 0. -1.
        -13    1    5    5    0    0 -0.17973503722E+03  0.44671209309E+02  0.11555091252E+02  0.18556325250E+03  0.00000000000E+00 0.  1.
          4    1    6    6  503    0  0.25985031493E+03 -0.12417939682E+02  0.52324485286E+03  0.58434712923E+03  0.00000000000E+00 0.  1.
         -4    1    6    6    0  503  0.29965172226E+03  0.84217963211E+02  0.52750712114E+03  0.61249292472E+03  0.00000000000E+00 0. -1.
<mgrwt>
<rscale>  0 0.15628761E+04</rscale>
<asrwt>0</asrwt>
<pdfrwt beam="1">  1        1 0.68298161E-01 0.15628761E+04</pdfrwt>
<pdfrwt beam="2">  1       -2 0.21161839E+00 0.15628761E+04</pdfrwt>
<totfact> 0.49029221E+00</totfact>
</mgrwt>
</event>
<event>
12    5  0.5041746E-008  0.1379332E+04  0.7818608E-02  0.8968916E-01
          1   -1    0    0  501    0  0.00000000000E+00  0.00000000000E+00  0.30481385499E+03  0.30481385499E+03  0.00000000000E+00 0. -1.
         -2   -1    0    0    0  501 -0.00000000000E+00 -0.00000000000E+00 -0.15604257420E+04  0.15604257420E+04  0.00000000000E+00 0.  1.
        -24    2    1    2    0    0  0.32373072319E+03  0.43536774660E+02 -0.81102697028E+02  0.34625011929E+03  0.81329365892E+02 0.  0.
        254    2    1    2    0    0 -0.32373072319E+03 -0.43536774660E+02 -0.11745091900E+04  0.15189894777E+04  0.90617888086E+03 0.  0.
         23    2    4    4    0    0  0.28089835575E+03 -0.16906122656E+03 -0.41869843495E+03  0.53868834921E+03  0.85971934701E+02 0.  0.
         23    2    4    4    0    0 -0.60462907894E+03  0.12552445190E+03 -0.75581075501E+03  0.98030112847E+03  0.91693478328E+02 0.  0.
          3    1    3    3  502    0  0.17046318756E+03  0.11650630247E+02 -0.82407083950E+02  0.18969544798E+03  0.00000000000E+00 0. -1.
         -4    1    3    3    0  502  0.15326753563E+03  0.31886144413E+02  0.13043869223E+01  0.15655467131E+03  0.00000000000E+00 0.  1.
         13    1    5    5    0    0  0.55337098063E+02 -0.12378602254E+02 -0.12116095660E+03  0.13377369555E+03  0.00000000000E+00 0. -1.
        -13    1    5    5    0    0  0.22556125769E+03 -0.15668262430E+03 -0.29753747835E+03  0.40491465366E+03  0.00000000000E+00 0.  1.
          2    1    6    6  503    0 -0.13187151842E+03  0.18768802724E+02 -0.10935285863E+03  0.17233807767E+03  0.00000000000E+00 0. -1.
         -2    1    6    6    0  503 -0.47275756053E+03  0.10675564918E+03 -0.64645789638E+03  0.80796305080E+03  0.00000000000E+00 0.  1.
<mgrwt>
<rscale>  0 0.13793323E+04</rscale>
<asrwt>0</asrwt>
<pdfrwt beam="1">  1        1 0.46894439E-01 0.13793323E+04</pdfrwt>
<pdfrwt beam="2">  1       -2 0.24006550E+00 0.13793323E+04</pdfrwt>
<totfact> 0.54222618E+00</totfact>
</mgrwt>
</event>
<event>
12    5  0.5041746E-008  0.1622847E+04  0.7818608E-02  0.8806634E-01
          1   -1    0    0  501    0  0.00000000000E+00  0.00000000000E+00  0.59008976115E+03  0.59008976115E+03  0.00000000000E+00 0. -1.
         -2   -1    0    0    0  501 -0.00000000000E+00 -0.00000000000E+00 -0.11157766326E+04  0.11157766326E+04  0.00000000000E+00 0.  1.
        -24    2    1    2    0    0  0.22204508029E+03 -0.34797320548E+03  0.21330580762E+03  0.47160459044E+03  0.80759846140E+02 0.  0.
        254    2    1    2    0    0 -0.22204508029E+03  0.34797320548E+03 -0.73899267910E+03  0.12342618033E+04  0.89827760186E+03 0.  0.
         23    2    4    4    0    0  0.19424422688E+03 -0.19987784366E+03 -0.23199610514E+03  0.37473735466E+03  0.94466502615E+02 0.  0.
         23    2    4    4    0    0 -0.41628930717E+03  0.54785104913E+03 -0.50699657396E+03  0.85952444868E+03  0.91099904336E+02 0.  0.
          1    1    3    3  502    0  0.19409259480E+03 -0.33995355129E+03  0.20069511598E+03  0.43990781076E+03  0.00000000000E+00 0. -1.
         -2    1    3    3    0  502  0.27952485490E+02 -0.80196541875E+01  0.12610691640E+02  0.31696779679E+02  0.00000000000E+00 0.  1.
         13    1    5    5    0    0  0.11353081481E+03 -0.14643911232E+03 -0.98525398464E+02  0.20985927111E+03  0.00000000000E+00 0.  1.
        -13    1    5    5    0    0  0.80713412071E+02 -0.53438731340E+02 -0.13347070667E+03  0.16487808355E+03  0.00000000000E+00 0. -1.
          1    1    6    6  503    0  0.23458157440E+01  0.20515068714E+02 -0.17882510855E+02  0.27315839550E+02  0.00000000000E+00 0. -1.
         -1    1    6    6    0  503 -0.41863512292E+03  0.52733598042E+03 -0.48911406311E+03  0.83220860913E+03  0.00000000000E+00 0.  1.
<mgrwt>
<rscale>  0 0.16228473E+04</rscale>
<asrwt>0</asrwt>
<pdfrwt beam="1">  1        1 0.90783041E-01 0.16228473E+04</pdfrwt>
<pdfrwt beam="2">  1       -2 0.17165794E+00 0.16228473E+04</pdfrwt>
<totfact> 0.60943988E+00</totfact>
</mgrwt>
</event>
<event>
12    5  0.5041746E-008  0.2385103E+04  0.7818608E-02  0.8445102E-01
          1   -1    0    0  501    0  0.00000000000E+00  0.00000000000E+00  0.18366929807E+04  0.18366929807E+04  0.00000000000E+00 0. -1.
         -2   -1    0    0    0  501 -0.00000000000E+00 -0.00000000000E+00 -0.77431489665E+03  0.77431489665E+03  0.00000000000E+00 0.  1.
        -24    2    1    2    0    0 -0.39853209052E+03 -0.51672960645E+03 -0.40270708226E+03  0.77108238748E+03  0.80979879107E+02 0.  0.
        254    2    1    2    0    0  0.39853209052E+03  0.51672960645E+03  0.14650851664E+04  0.18399254899E+04  0.90167286221E+03 0.  0.
         23    2    4    4    0    0  0.55720434550E+03  0.48510861701E+02  0.51917132917E+03  0.76855723226E+03  0.91166681873E+02 0.  0.
         23    2    4    4    0    0 -0.15867225498E+03  0.46821874475E+03  0.94591383719E+03  0.10713682577E+04  0.93119700981E+02 0.  0.
          1    1    3    3  502    0 -0.68917371107E+01 -0.51945030814E+01 -0.19893807761E+02  0.21685075280E+02  0.00000000000E+00 0. -1.
         -2    1    3    3    0  502 -0.39164035341E+03 -0.51153510337E+03 -0.38281327450E+03  0.74939731220E+03  0.00000000000E+00 0.  1.
         13    1    5    5    0    0  0.16103825140E+03  0.41144495696E+02  0.11208996067E+03  0.20047530327E+03  0.00000000000E+00 0. -1.
        -13    1    5    5    0    0  0.39616609410E+03  0.73663660054E+01  0.40708136850E+03  0.56808192899E+03  0.00000000000E+00 0.  1.
          3    1    6    6  503    0 -0.13025302339E+03  0.42206969099E+03  0.77466905601E+03  0.89175154639E+03  0.00000000000E+00 0.  1.
         -3    1    6    6    0  503 -0.28419231589E+02  0.46149053760E+02  0.17124478118E+03  0.17961671127E+03  0.00000000000E+00 0. -1.
<mgrwt>
<rscale>  0 0.23851027E+04</rscale>
<asrwt>0</asrwt>
<pdfrwt beam="1">  1        1 0.28256815E+00 0.23851027E+04</pdfrwt>
<pdfrwt beam="2">  1       -2 0.11912537E+00 0.23851027E+04</pdfrwt>
<totfact> 0.16395636E+00</totfact>
</mgrwt>
</event>
<event>
12    5  0.5041746E-008  0.1243882E+04  0.7818608E-02  0.9075291E-01
          1   -1    0    0  501    0  0.00000000000E+00  0.00000000000E+00  0.11313180844E+04  0.11313180844E+04  0.00000000000E+00 0. -1.
         -2   -1    0    0    0  501 -0.00000000000E+00 -0.00000000000E+00 -0.34191154419E+03  0.34191154419E+03  0.00000000000E+00 0.  1.
        -24    2    1    2    0    0  0.13685436046E+03 -0.36605106023E+02 -0.10913209028E+03  0.19538550447E+03  0.78718691970E+02 0.  0.
        254    2    1    2    0    0 -0.13685436046E+03  0.36605106023E+02  0.89853863053E+03  0.12778441242E+04  0.89746581291E+03 0.  0.
         23    2    4    4    0    0  0.25260339856E+03 -0.28930970637E+02  0.82166289468E+03  0.86483638980E+03  0.90369190567E+02 0.  0.
         23    2    4    4    0    0 -0.38945775902E+03  0.65536076659E+02  0.76875735848E+02  0.41300773436E+03  0.93237259042E+02 0.  0.
          1    1    3    3  502    0 -0.37451794269E+01 -0.11382100136E+02  0.45587678254E+01  0.12820332934E+02  0.00000000000E+00 0. -1.
         -2    1    3    3    0  502  0.14059953989E+03 -0.25223005886E+02 -0.11369085810E+03  0.18256517154E+03  0.00000000000E+00 0.  1.
         13    1    5    5    0    0  0.23368263278E+03 -0.25840435151E+02  0.63386096177E+03  0.67605844408E+03  0.00000000000E+00 0. -1.
        -13    1    5    5    0    0  0.18920765783E+02 -0.30905354855E+01  0.18780193291E+03  0.18877794572E+03  0.00000000000E+00 0.  1.
          2    1    6    6  503    0 -0.25025126327E+03  0.72874375841E+02  0.82801390789E+02  0.27348206475E+03  0.00000000000E+00 0. -1.
         -2    1    6    6    0  503 -0.13920649575E+03 -0.73382991812E+01 -0.59256549414E+01  0.13952566961E+03  0.00000000000E+00 0.  1.
<mgrwt>
<rscale>  0 0.12438822E+04</rscale>
<asrwt>0</asrwt>
<pdfrwt beam="1">  1        1 0.17404893E+00 0.12438822E+04</pdfrwt>
<pdfrwt beam="2">  1       -2 0.52601776E-01 0.12438822E+04</pdfrwt>
<totfact> 0.35431597E+01</totfact>
</mgrwt>
</event>
<event>
12    5  0.5041746E-008  0.2326204E+04  0.7818608E-02  0.8467660E-01
         -2   -1    0    0    0  501 -0.00000000000E+00  0.00000000000E+00  0.47502888934E+03  0.47502888934E+03  0.00000000000E+00 0.  1.
          1   -1    0    0  501    0  0.00000000000E+00 -0.00000000000E+00 -0.28478396204E+04  0.28478396204E+04  0.00000000000E+00 0. -1.
        -24    2    1    2    0    0  0.67659869080E+03  0.48753154383E+03 -0.23162949542E+03  0.86939338963E+03  0.81974679964E+02 0.  0.
        254    2    1    2    0    0 -0.67659869080E+03 -0.48753154383E+03 -0.21411812356E+04  0.24534751201E+04  0.85988969440E+03 0.  0.
         23    2    4    4    0    0 -0.34749979282E+03 -0.54856200122E+03 -0.19479669080E+04  0.20553047550E+04  0.89588984640E+02 0.  0.
         23    2    4    4    0    0 -0.32909889798E+03  0.61030457395E+02 -0.19321432763E+03  0.39817036508E+03  0.95796982432E+02 0.  0.
          1    1    3    3  502    0  0.64022758464E+02  0.40594043856E+02 -0.46146863138E+02  0.88748650555E+02  0.00000000000E+00 0. -1.
         -2    1    3    3    0  502  0.61257593234E+03  0.44693749997E+03 -0.18548263228E+03  0.78064473907E+03  0.00000000000E+00 0.  1.
         13    1    5    5    0    0 -0.65568201146E+01 -0.16286798953E+02 -0.11670382946E+03  0.11801709842E+03  0.00000000000E+00 0. -1.
        -13    1    5    5    0    0 -0.34094297270E+03 -0.53227520227E+03 -0.18312630785E+04  0.19372876566E+04  0.00000000000E+00 0.  1.
          1    1    6    6  503    0 -0.48706279957E+02 -0.15658856729E+02 -0.39893015322E+01  0.51316820127E+02  0.00000000000E+00 0. -1.
         -1    1    6    6    0  503 -0.28039261803E+03  0.76689314125E+02 -0.18922502610E+03  0.34685354496E+03  0.00000000000E+00 0.  1.
<mgrwt>
<rscale>  0 0.23262039E+04</rscale>
<asrwt>0</asrwt>
<pdfrwt beam="1">  1        1 0.43812916E+00 0.23262039E+04</pdfrwt>
<pdfrwt beam="2">  1       -2 0.73081369E-01 0.23262039E+04</pdfrwt>
<totfact> 0.10327837E+00</totfact>
</mgrwt>
</event>
<event>
12    5  0.5041746E-008  0.1231991E+04  0.7818608E-02  0.9085307E-01
          1   -1    0    0  501    0  0.00000000000E+00  0.00000000000E+00  0.12356642724E+04  0.12356642724E+04  0.00000000000E+00 0. -1.
         -2   -1    0    0    0  501 -0.00000000000E+00 -0.00000000000E+00 -0.30708192368E+03  0.30708192368E+03  0.00000000000E+00 0.  1.
        -24    2    1    2    0    0 -0.41665728303E+02 -0.14982566707E+03 -0.71880301031E+02  0.19167762841E+03  0.85963783837E+02 0.  0.
        254    2    1    2    0    0  0.41665728303E+02  0.14982566707E+03  0.10004626497E+04  0.13510685676E+04  0.89458202394E+03 0.  0.
         23    2    4    4    0    0  0.71998338788E+02 -0.36247186842E+03  0.34423833994E+03  0.51314368281E+03  0.90811829258E+02 0.  0.
         23    2    4    4    0    0 -0.30332610484E+02  0.51229753549E+03  0.65622430978E+03  0.83792488484E+03  0.90105137225E+02 0.  0.
          1    1    3    3  502    0 -0.33577196188E+02 -0.15297115904E+03 -0.44290707159E+02  0.16275524674E+03  0.00000000000E+00 0. -1.
         -2    1    3    3    0  502 -0.80885321151E+01  0.31454919739E+01 -0.27589593871E+02  0.28922381671E+02  0.00000000000E+00 0.  1.
         13    1    5    5    0    0  0.44707373766E+02 -0.34556086514E+03  0.31549878241E+03  0.47005376553E+03  0.00000000000E+00 0.  1.
        -13    1    5    5    0    0  0.27290965022E+02 -0.16911003279E+02  0.28739557531E+02  0.43089917275E+02  0.00000000000E+00 0. -1.
          1    1    6    6  503    0 -0.58699327067E+01  0.18437660881E+03  0.16941419775E+03  0.25046029702E+03  0.00000000000E+00 0. -1.
         -1    1    6    6    0  503 -0.24462677778E+02  0.32792092668E+03  0.48681011203E+03  0.58746458781E+03  0.00000000000E+00 0.  1.
<mgrwt>
<rscale>  0 0.12319905E+04</rscale>
<asrwt>0</asrwt>
<pdfrwt beam="1">  1        1 0.19010219E+00 0.12319905E+04</pdfrwt>
<pdfrwt beam="2">  1       -2 0.47243373E-01 0.12319905E+04</pdfrwt>
<totfact> 0.37010191E+01</totfact>
</mgrwt>
</event>
<event>
12    5  0.5041746E-008  0.2690741E+04  0.7818608E-02  0.8338016E-01
          1   -1    0    0  501    0  0.00000000000E+00  0.00000000000E+00  0.21612058716E+04  0.21612058716E+04  0.00000000000E+00 0. -1.
         -4   -1    0    0    0  501 -0.00000000000E+00 -0.00000000000E+00 -0.83750525635E+03  0.83750525635E+03  0.00000000000E+00 0.  1.
        -24    2    1    2    0    0 -0.73201888252E+03 -0.20673701410E+03 -0.43400843935E+03  0.87936949626E+03  0.79596156687E+02 0.  0.
        254    2    1    2    0    0  0.73201888252E+03  0.20673701410E+03  0.17577090546E+04  0.21193416317E+04  0.90745578065E+03 0.  0.
         23    2    4    4    0    0  0.72931733824E+03 -0.19007178065E+03  0.13107476003E+04  0.15146573219E+04  0.89980382606E+02 0.  0.
         23    2    4    4    0    0  0.27015442826E+01  0.39680879475E+03  0.44696145430E+03  0.60468430985E+03  0.91673633175E+02 0.  0.
          1    1    3    3  502    0 -0.32330923216E+03 -0.58298717046E+02 -0.16008358479E+03  0.36545089155E+03  0.00000000000E+00 0. -1.
         -2    1    3    3    0  502 -0.40870965036E+03 -0.14843829705E+03 -0.27392485456E+03  0.51391860472E+03  0.00000000000E+00 0.  1.
         13    1    5    5    0    0  0.45271054109E+03 -0.72539222579E+02  0.79409152221E+03  0.91694608264E+03  0.00000000000E+00 0.  1.
        -13    1    5    5    0    0  0.27660679715E+03 -0.11753255807E+03  0.51665607813E+03  0.59771123923E+03  0.00000000000E+00 0. -1.
          1    1    6    6  503    0 -0.34789400064E+02  0.23091771115E+03  0.21797356859E+03  0.31944603345E+03  0.00000000000E+00 0. -1.
         -1    1    6    6    0  503  0.37490944347E+02  0.16589108359E+03  0.22898788571E+03  0.28523827640E+03  0.00000000000E+00 0.  1.
<mgrwt>
<rscale>  0 0.26907406E+04</rscale>
<asrwt>0</asrwt>
<pdfrwt beam="1">  1        1 0.33249321E+00 0.26907406E+04</pdfrwt>
<pdfrwt beam="2">  1       -4 0.12884696E+00 0.26907406E+04</pdfrwt>
<totfact> 0.43968172E-01</totfact>
</mgrwt>
</event>
<event>
12    5  0.5041746E-008  0.1501734E+04  0.7818608E-02  0.8883300E-01
          1   -1    0    0  501    0  0.00000000000E+00  0.00000000000E+00  0.70323026615E+03  0.70323026615E+03  0.00000000000E+00 0. -1.
         -2   -1    0    0    0  501 -0.00000000000E+00 -0.00000000000E+00 -0.80173111945E+03  0.80173111945E+03  0.00000000000E+00 0.  1.
        -24    2    1    2    0    0 -0.30507059878E+03  0.29379562158E+03  0.17786962384E+03  0.46616969514E+03  0.79326187873E+02 0.  0.
        254    2    1    2    0    0  0.30507059878E+03 -0.29379562158E+03 -0.27637047714E+03  0.10387916905E+04  0.90737180804E+03 0.  0.
         23    2    4    4    0    0  0.60675924526E+03 -0.76537617112E+02 -0.17149059292E+03  0.64170005128E+03  0.91406475785E+02 0.  0.
         23    2    4    4    0    0 -0.30168864647E+03 -0.21725800447E+03 -0.10487988422E+03  0.39709163918E+03  0.92004890491E+02 0.  0.
          3    1    3    3  502    0 -0.22389471658E+03  0.17935805881E+03  0.14766591920E+03  0.32265055565E+03  0.00000000000E+00 0. -1.
         -4    1    3    3    0  502 -0.81175882209E+02  0.11443756277E+03  0.30203704633E+02  0.14351913949E+03  0.00000000000E+00 0.  1.
         13    1    5    5    0    0  0.20914617762E+03 -0.13148212971E+02 -0.10218170686E+03  0.23314394767E+03  0.00000000000E+00 0.  1.
        -13    1    5    5    0    0  0.39761306764E+03 -0.63389404141E+02 -0.69308886063E+02  0.40855610361E+03  0.00000000000E+00 0. -1.
          4    1    6    6  503    0 -0.23055964987E+03 -0.17560079666E+03 -0.11930005945E+03  0.31341010852E+03  0.00000000000E+00 0. -1.
         -4    1    6    6    0  503 -0.71128996597E+02 -0.41657207808E+02  0.14420175229E+02  0.83681530656E+02  0.00000000000E+00 0.  1.
<mgrwt>
<rscale>  0 0.15017344E+04</rscale>
<asrwt>0</asrwt>
<pdfrwt beam="1">  1        1 0.10818927E+00 0.15017344E+04</pdfrwt>
<pdfrwt beam="2">  1       -2 0.12334325E+00 0.15017344E+04</pdfrwt>
<totfact> 0.11356832E+01</totfact>
</mgrwt>
</event>
<event>
12    5  0.5041746E-008  0.1318784E+04  0.7818608E-02  0.9014801E-01
          1   -1    0    0  501    0  0.00000000000E+00  0.00000000000E+00  0.21738704007E+04  0.21738704007E+04  0.00000000000E+00 0. -1.
         -2   -1    0    0    0  501 -0.00000000000E+00 -0.00000000000E+00 -0.20001077516E+03  0.20001077516E+03  0.00000000000E+00 0.  1.
        -24    2    1    2    0    0  0.10817077214E+03 -0.19549062295E+03  0.99505214016E+03  0.10230732802E+04  0.81441239412E+02 0.  0.
        254    2    1    2    0    0 -0.10817077214E+03  0.19549062295E+03  0.97880748542E+03  0.13508078957E+04  0.90371476577E+03 0.  0.
         23    2    4    4    0    0 -0.46983964789E+03  0.27197403372E+03  0.57727556467E+03  0.79753769613E+03  0.90000719051E+02 0.  0.
         23    2    4    4    0    0  0.36166887575E+03 -0.76483410765E+02  0.40153192075E+03  0.55327019954E+03  0.90696981840E+02 0.  0.
          1    1    3    3  502    0  0.16346823290E+02 -0.73582217296E+02  0.48007029385E+03  0.48595169345E+03  0.00000000000E+00 0. -1.
         -2    1    3    3    0  502  0.91823948853E+02 -0.12190840565E+03  0.51498184631E+03  0.53712158678E+03  0.00000000000E+00 0.  1.
         13    1    5    5    0    0 -0.40044615475E+01  0.31349604812E+01  0.29209236013E+02  0.29648661993E+02  0.00000000000E+00 0.  1.
        -13    1    5    5    0    0 -0.46583518634E+03  0.26883907323E+03  0.54806632866E+03  0.76788903413E+03  0.00000000000E+00 0. -1.
          1    1    6    6  503    0  0.22812637627E+03 -0.13466724303E+02  0.20173359944E+03  0.30482690393E+03  0.00000000000E+00 0. -1.
         -1    1    6    6    0  503  0.13354249948E+03 -0.63016686462E+02  0.19979832131E+03  0.24844329562E+03  0.00000000000E+00 0.  1.
<mgrwt>
<rscale>  0 0.13187835E+04</rscale>
<asrwt>0</asrwt>
<pdfrwt beam="1">  1        1 0.33444158E+00 0.13187835E+04</pdfrwt>
<pdfrwt beam="2">  1       -2 0.30770890E-01 0.13187835E+04</pdfrwt>
<totfact> 0.19159247E+01</totfact>
</mgrwt>
</event>
<event>
12    5  0.5041746E-008  0.1851403E+04  0.7818608E-02  0.8679432E-01
          1   -1    0    0  501    0  0.00000000000E+00  0.00000000000E+00  0.27921612980E+04  0.27921612980E+04  0.00000000000E+00 0. -1.
         -2   -1    0    0    0  501 -0.00000000000E+00 -0.00000000000E+00 -0.30690310720E+03  0.30690310720E+03  0.00000000000E+00 0.  1.
        -24    2    1    2    0    0 -0.30478355007E+03 -0.53764140410E+03  0.36954089849E+03  0.72371567306E+03  0.72474878290E+02 0.  0.
        254    2    1    2    0    0  0.30478355007E+03  0.53764140410E+03  0.21157172923E+04  0.23753487321E+04  0.88547763751E+03 0.  0.
         23    2    4    4    0    0  0.53644508717E+03  0.52623431802E+03  0.18968193301E+04  0.20424286060E+04  0.94314105362E+02 0.  0.
         23    2    4    4    0    0 -0.23166153710E+03  0.11407086078E+02  0.21889796223E+03  0.33292012619E+03  0.95510748955E+02 0.  0.
          3    1    3    3  502    0 -0.13878469433E+02 -0.93133188685E+01  0.65437804884E+00  0.16726566677E+02  0.00000000000E+00 0. -1.
         -4    1    3    3    0  502 -0.29090508064E+03 -0.52832808523E+03  0.36888652044E+03  0.70698910639E+03  0.00000000000E+00 0.  1.
         13    1    5    5    0    0  0.25906807035E+03  0.23848673915E+03  0.10126008840E+04  0.10720787005E+04  0.00000000000E+00 0. -1.
        -13    1    5    5    0    0  0.27737701682E+03  0.28774757887E+03  0.88421844608E+03  0.97034990544E+03  0.00000000000E+00 0.  1.
          2    1    6    6  503    0 -0.82452763567E+02 -0.10314637715E+02  0.23974083716E+02  0.86484719234E+02  0.00000000000E+00 0. -1.
         -2    1    6    6    0  503 -0.14920877353E+03  0.21721723793E+02  0.19492387851E+03  0.24643540695E+03  0.00000000000E+00 0.  1.
<mgrwt>
<rscale>  0 0.18514027E+04</rscale>
<asrwt>0</asrwt>
<pdfrwt beam="1">  1        1 0.42956326E+00 0.18514027E+04</pdfrwt>
<pdfrwt beam="2">  1       -2 0.47215865E-01 0.18514027E+04</pdfrwt>
<totfact> 0.29672683E+00</totfact>
</mgrwt>
</event>
<event>
12    5  0.7564207E-008  0.1409640E+04  0.7818608E-02  0.8946870E-01
          1   -1    0    0  501    0  0.00000000000E+00  0.00000000000E+00  0.15882001690E+04  0.15882001690E+04  0.00000000000E+00 0. -1.
         -2   -1    0    0    0  501 -0.00000000000E+00 -0.00000000000E+00 -0.31278895256E+03  0.31278895256E+03  0.00000000000E+00 0.  1.
        -24    2    1    2    0    0  0.16257122306E+02 -0.40347271475E+03  0.63768853203E+03  0.75884041129E+03  0.78342710940E+02 0.  0.
        254    2    1    2    0    0 -0.16257122306E+02  0.40347271475E+03  0.63772268440E+03  0.11421487102E+04  0.85718080272E+03 0.  0.
         23    2    4    4    0    0 -0.13780204185E+03  0.26185384294E+03 -0.13781974236E+03  0.33900756495E+03  0.91515080221E+02 0.  0.
         23    2    4    4    0    0  0.12154491954E+03  0.14161887181E+03  0.77554242676E+03  0.80314114530E+03  0.93491022299E+02 0.  0.
          3    1    3    3  502    0  0.23530767650E+02 -0.39976529763E+03  0.60785885538E+03  0.72791371623E+03  0.00000000000E+00 0. -1.
         -4    1    3    3    0  502 -0.72736453444E+01 -0.37074171163E+01  0.29829676652E+02  0.30926695061E+02  0.00000000000E+00 0.  1.
         13    1    5    5    0    0 -0.15049804641E+03  0.24866053004E+03 -0.12369722256E+03  0.31588403575E+03  0.00000000000E+00 0.  1.
        -13    1    5    5    0    0  0.12696004559E+02  0.13193312892E+02 -0.14122519800E+02  0.23123529192E+02  0.00000000000E+00 0. -1.
          2    1    6    6  503    0 -0.88824445686E+01  0.52676670386E+01  0.89405112773E+01  0.13659387960E+02  0.00000000000E+00 0. -1.
         -2    1    6    6    0  503  0.13042736411E+03  0.13635120477E+03  0.76660191548E+03  0.78948175734E+03  0.00000000000E+00 0.  1.
<mgrwt>
<rscale>  0 0.14096403E+04</rscale>
<asrwt>0</asrwt>
<pdfrwt beam="1">  1        1 0.24433848E+00 0.14096403E+04</pdfrwt>
<pdfrwt beam="2">  1       -2 0.48121378E-01 0.14096403E+04</pdfrwt>
<totfact> 0.19887825E+01</totfact>
</mgrwt>
</event>
<event>
12    5  0.5041746E-008  0.2635051E+04  0.7818608E-02  0.8356392E-01
         -2   -1    0    0    0  501 -0.00000000000E+00  0.00000000000E+00  0.88759337540E+03  0.88759337540E+03  0.00000000000E+00 0.  1.
          1   -1    0    0  501    0  0.00000000000E+00 -0.00000000000E+00 -0.19557072959E+04  0.19557072959E+04  0.00000000000E+00 0. -1.
        -24    2    1    2    0    0  0.85037244661E+03 -0.17009336991E+03 -0.13485180793E+04  0.16055101020E+04  0.84241467293E+02 0.  0.
        254    2    1    2    0    0 -0.85037244661E+03  0.17009336991E+03  0.28040415881E+03  0.12377905693E+04  0.83751653646E+03 0.  0.
         23    2    4    4    0    0 -0.89868628945E+03  0.32009545466E+03  0.72198523871E+02  0.96077034083E+03  0.88141216382E+02 0.  0.
         23    2    4    4    0    0  0.48313842833E+02 -0.15000208475E+03  0.20820563494E+03  0.27702022852E+03  0.92497393212E+02 0.  0.
          3    1    3    3  502    0  0.48713346520E+03 -0.10875038220E+03 -0.84895686722E+03  0.98481136313E+03  0.00000000000E+00 0. -1.
         -4    1    3    3    0  502  0.36323898141E+03 -0.61342987704E+02 -0.49956121211E+03  0.62069873885E+03  0.00000000000E+00 0.  1.
         13    1    5    5    0    0 -0.84593809200E+03  0.28050206924E+03  0.56782321478E+02  0.89303801620E+03  0.00000000000E+00 0. -1.
        -13    1    5    5    0    0 -0.52748197451E+02  0.39593385424E+02  0.15416202392E+02  0.67732324630E+02  0.00000000000E+00 0.  1.
          3    1    6    6  503    0  0.20958659720E+02 -0.15083321173E+03  0.19255267747E+03  0.24549227437E+03  0.00000000000E+00 0. -1.
         -3    1    6    6    0  503  0.27355183113E+02  0.83112697452E+00  0.15652957470E+02  0.31527954148E+02  0.00000000000E+00 0.  1.
<mgrwt>
<rscale>  0 0.26350505E+04</rscale>
<asrwt>0</asrwt>
<pdfrwt beam="1">  1        1 0.30087804E+00 0.26350505E+04</pdfrwt>
<pdfrwt beam="2">  1       -2 0.13655283E+00 0.26350505E+04</pdfrwt>
<totfact> 0.94417541E-01</totfact>
</mgrwt>
</event>
<event>
12    5  0.5041746E-008  0.1227405E+04  0.7818608E-02  0.9089202E-01
          1   -1    0    0  501    0  0.00000000000E+00  0.00000000000E+00  0.62292622832E+03  0.62292622832E+03  0.00000000000E+00 0. -1.
         -2   -1    0    0    0  501 -0.00000000000E+00 -0.00000000000E+00 -0.60461517453E+03  0.60461517453E+03  0.00000000000E+00 0.  1.
        -24    2    1    2    0    0 -0.19591957471E+03  0.10691380131E+03 -0.15922943044E+03  0.28782924453E+03  0.87616333110E+02 0.  0.
        254    2    1    2    0    0  0.19591957471E+03 -0.10691380131E+03  0.17754048424E+03  0.93971215831E+03  0.89539001350E+03 0.  0.
         23    2    4    4    0    0  0.27055086587E+01 -0.40948129160E+03 -0.14980457919E+03  0.44549375382E+03  0.91329211065E+02 0.  0.
         23    2    4    4    0    0  0.19321406605E+03  0.30256749030E+03  0.32734506343E+03  0.49421840449E+03  0.90654725680E+02 0.  0.
          1    1    3    3  502    0  0.71990784046E+01  0.10908496005E+02 -0.18764856788E+02  0.22867922188E+02  0.00000000000E+00 0. -1.
         -2    1    3    3    0  502 -0.20311865311E+03  0.96005305303E+02 -0.14046457365E+03  0.26496132235E+03  0.00000000000E+00 0.  1.
         13    1    5    5    0    0  0.36440034965E+02 -0.75120059522E+02 -0.30127183742E+02  0.88761177837E+02  0.00000000000E+00 0. -1.
        -13    1    5    5    0    0 -0.33734526307E+02 -0.33436123208E+03 -0.11967739545E+03  0.35673257598E+03  0.00000000000E+00 0.  1.
          4    1    6    6  503    0  0.10258923433E+03  0.12102087685E+03  0.19745445607E+03  0.25329600442E+03  0.00000000000E+00 0. -1.
         -4    1    6    6    0  503  0.90624831718E+02  0.18154661344E+03  0.12989060736E+03  0.24092240007E+03  0.00000000000E+00 0.  1.
<mgrwt>
<rscale>  0 0.12274048E+04</rscale>
<asrwt>0</asrwt>
<pdfrwt beam="1">  1        1 0.95834805E-01 0.12274048E+04</pdfrwt>
<pdfrwt beam="2">  1       -2 0.93017719E-01 0.12274048E+04</pdfrwt>
<totfact> 0.27454272E+01</totfact>
</mgrwt>
</event>
<event>
12    5  0.5041746E-008  0.1548368E+04  0.7818608E-02  0.8852911E-01
         -2   -1    0    0    0  501 -0.00000000000E+00  0.00000000000E+00  0.24794181217E+03  0.24794181217E+03  0.00000000000E+00 0.  1.
          1   -1    0    0  501    0  0.00000000000E+00 -0.00000000000E+00 -0.24173454431E+04  0.24173454431E+04  0.00000000000E+00 0. -1.
        -24    2    1    2    0    0 -0.37745584538E+03 -0.21004390254E+03 -0.26059944364E+03  0.51045271948E+03  0.77836704699E+02 0.  0.
        254    2    1    2    0    0  0.37745584538E+03  0.21004390254E+03 -0.19088041873E+04  0.21548345358E+04  0.90176887007E+03 0.  0.
         23    2    4    4    0    0  0.26046225505E+03  0.12464249527E+03 -0.19525888804E+04  0.19759669779E+04  0.92009911510E+02 0.  0.
         23    2    4    4    0    0  0.11699359033E+03  0.85401407275E+02  0.43784693064E+02  0.17886755797E+03  0.95370872942E+02 0.  0.
          3    1    3    3  502    0 -0.62263403322E+02 -0.66482307581E+02 -0.37706298140E+02  0.98581912813E+02  0.00000000000E+00 0. -1.
         -4    1    3    3    0  502 -0.31519244205E+03 -0.14356159496E+03 -0.22289314550E+03  0.41187080667E+03  0.00000000000E+00 0.  1.
         13    1    5    5    0    0  0.65353253302E+02 -0.26385078914E+01 -0.30056879282E+03  0.30760300495E+03  0.00000000000E+00 0.  1.
        -13    1    5    5    0    0  0.19510900175E+03  0.12728100316E+03 -0.16520200876E+04  0.16683639729E+04  0.00000000000E+00 0. -1.
          1    1    6    6  503    0  0.18640966155E+02  0.64599452241E+02  0.40071324762E+02  0.78270594205E+02  0.00000000000E+00 0. -1.
         -1    1    6    6    0  503  0.98352624173E+02  0.20801955033E+02  0.37133683018E+01  0.10059696377E+03  0.00000000000E+00 0.  1.
<mgrwt>
<rscale>  0 0.15483682E+04</rscale>
<asrwt>0</asrwt>
<pdfrwt beam="1">  1        1 0.37189932E+00 0.15483682E+04</pdfrwt>
<pdfrwt beam="2">  1       -2 0.38144893E-01 0.15483682E+04</pdfrwt>
<totfact> 0.85013651E+00</totfact>
</mgrwt>
</event>
<event>
12    5  0.5041746E-008  0.1666667E+04  0.7818608E-02  0.8780607E-01
          1   -1    0    0  501    0  0.00000000000E+00  0.00000000000E+00  0.64000290674E+03  0.64000290674E+03  0.00000000000E+00 0. -1.
         -2   -1    0    0    0  501 -0.00000000000E+00 -0.00000000000E+00 -0.10850647919E+04  0.10850647919E+04  0.00000000000E+00 0.  1.
        -24    2    1    2    0    0  0.52354549170E+03  0.18664674591E+03 -0.34787612880E+03  0.66059107871E+03  0.80161603245E+02 0.  0.
        254    2    1    2    0    0 -0.52354549170E+03 -0.18664674591E+03 -0.97185756369E+02  0.10644766199E+04  0.90262312928E+03 0.  0.
         23    2    4    4    0    0  0.11297451666E+02  0.24747938848E+03 -0.23805819869E+03  0.35539292660E+03  0.90877643987E+02 0.  0.
         23    2    4    4    0    0 -0.53484294337E+03 -0.43412613440E+03  0.14087244232E+03  0.70908369333E+03  0.91826818023E+02 0.  0.
          1    1    3    3  502    0  0.48949694448E+03  0.16966288060E+03 -0.29733384343E+03  0.59732752001E+03  0.00000000000E+00 0. -1.
         -2    1    3    3    0  502  0.34048547227E+02  0.16983865316E+02 -0.50542285371E+02  0.63263558704E+02  0.00000000000E+00 0.  1.
         13    1    5    5    0    0  0.37216667206E+02  0.21862341019E+03 -0.18027075311E+03  0.28579506684E+03  0.00000000000E+00 0. -1.
        -13    1    5    5    0    0 -0.25919215540E+02  0.28855978296E+02 -0.57787445577E+02  0.69597859766E+02  0.00000000000E+00 0.  1.
          3    1    6    6  503    0 -0.53403205029E+03 -0.41753515003E+03  0.13346945033E+03  0.69089791317E+03  0.00000000000E+00 0. -1.
         -3    1    6    6    0  503 -0.81089307770E+00 -0.16590984364E+02  0.74029919895E+01  0.18185780163E+02  0.00000000000E+00 0.  1.
<mgrwt>
<rscale>  0 0.16666669E+04</rscale>
<asrwt>0</asrwt>
<pdfrwt beam="1">  1        1 0.98461985E-01 0.16666669E+04</pdfrwt>
<pdfrwt beam="2">  1       -2 0.16693305E+00 0.16666669E+04</pdfrwt>
<totfact> 0.58318979E+00</totfact>
</mgrwt>
</event>
<event>
12    5  0.5041746E-008  0.1529973E+04  0.7818608E-02  0.8864762E-01
          1   -1    0    0  501    0  0.00000000000E+00  0.00000000000E+00  0.21949839399E+04  0.21949839399E+04  0.00000000000E+00 0. -1.
         -2   -1    0    0    0  501 -0.00000000000E+00 -0.00000000000E+00 -0.26660983412E+03  0.26660983412E+03  0.00000000000E+00 0.  1.
        -24    2    1    2    0    0 -0.11348361382E+03  0.42570634130E+03  0.26375640882E+03  0.51963712871E+03  0.79692425665E+02 0.  0.
        254    2    1    2    0    0  0.11348361382E+03 -0.42570634130E+03  0.16646176969E+04  0.19419566453E+04  0.89785250214E+03 0.  0.
         23    2    4    4    0    0 -0.23757318684E+03 -0.35285066702E+03  0.29829241959E+03  0.52657149102E+03  0.85758703646E+02 0.  0.
         23    2    4    4    0    0  0.35105680066E+03 -0.72855674283E+02  0.13663252773E+04  0.14153851543E+04  0.89003060941E+02 0.  0.
          3    1    3    3  502    0 -0.90345913053E+02  0.21513709355E+03  0.11052594464E+03  0.25819050615E+03  0.00000000000E+00 0. -1.
         -4    1    3    3    0  502 -0.23137700769E+02  0.21056924775E+03  0.15323046418E+03  0.26144662256E+03  0.00000000000E+00 0.  1.
         13    1    5    5    0    0 -0.63135269890E+02 -0.60336748755E+02  0.27803665633E+02  0.91649491963E+02  0.00000000000E+00 0.  1.
        -13    1    5    5    0    0 -0.17443791695E+03 -0.29251391826E+03  0.27048875396E+03  0.43492199906E+03  0.00000000000E+00 0. -1.
          2    1    6    6  503    0  0.11363620983E+03  0.47679917566E+01  0.55264927570E+03  0.56423146302E+03  0.00000000000E+00 0. -1.
         -2    1    6    6    0  503  0.23742059083E+03 -0.77623666039E+02  0.81367600164E+03  0.85115369125E+03  0.00000000000E+00 0.  1.
<mgrwt>
<rscale>  0 0.15299729E+04</rscale>
<asrwt>0</asrwt>
<pdfrwt beam="1">  1        1 0.33768982E+00 0.15299729E+04</pdfrwt>
<pdfrwt beam="2">  1       -2 0.41016899E-01 0.15299729E+04</pdfrwt>
<totfact> 0.10485088E+01</totfact>
</mgrwt>
</event>
<event>
12    5  0.5041746E-008  0.4578716E+04  0.7818608E-02  0.7896999E-01
          1   -1    0    0  501    0  0.00000000000E+00  0.00000000000E+00  0.41889911431E+04  0.41889911431E+04  0.00000000000E+00 0. -1.
         -2   -1    0    0    0  501 -0.00000000000E+00 -0.00000000000E+00 -0.12511749609E+04  0.12511749609E+04  0.00000000000E+00 0.  1.
        -24    2    1    2    0    0 -0.15958326641E+04  0.15076679828E+04  0.15703978316E+04  0.27004468269E+04  0.80740801975E+02 0.  0.
        254    2    1    2    0    0  0.15958326641E+04 -0.15076679828E+04  0.13674183506E+04  0.27397192771E+04  0.90359511602E+03 0.  0.
         23    2    4    4    0    0  0.12105615052E+04 -0.14943384501E+04  0.13339939815E+04  0.23421138900E+04  0.86319001336E+02 0.  0.
         23    2    4    4    0    0  0.38527115893E+03 -0.13329532730E+02  0.33424369106E+02  0.39760538710E+03  0.91440215744E+02 0.  0.
          1    1    3    3  502    0 -0.89582815683E+03  0.81846714386E+03  0.82514292672E+03  0.14673981742E+04  0.00000000000E+00 0. -1.
         -2    1    3    3    0  502 -0.70000450727E+03  0.68920083894E+03  0.74525490489E+03  0.12330486527E+04  0.00000000000E+00 0.  1.
         13    1    5    5    0    0  0.10001456858E+04 -0.12841143159E+04  0.11276607161E+04  0.19801160723E+04  0.00000000000E+00 0.  1.
        -13    1    5    5    0    0  0.21041581936E+03 -0.21022413418E+03  0.20633326544E+03  0.36199781775E+03  0.00000000000E+00 0. -1.
          3    1    6    6  503    0  0.73519068983E+02 -0.72332049593E+01  0.43316212213E+02  0.85636832021E+02  0.00000000000E+00 0. -1.
         -3    1    6    6    0  503  0.31175208994E+03 -0.60963277705E+01 -0.98918431067E+01  0.31196855508E+03  0.00000000000E+00 0.  1.
<mgrwt>
<rscale>  0 0.45787163E+04</rscale>
<asrwt>0</asrwt>
<pdfrwt beam="1">  1        1 0.64446017E+00 0.45787163E+04</pdfrwt>
<pdfrwt beam="2">  1       -2 0.19248846E+00 0.45787163E+04</pdfrwt>
<totfact> 0.63292784E-03</totfact>
</mgrwt>
</event>
<event>
12    5  0.5041746E-008  0.1618103E+04  0.7818608E-02  0.8809503E-01
         -2   -1    0    0    0  501 -0.00000000000E+00  0.00000000000E+00  0.90549676040E+03  0.90549676040E+03  0.00000000000E+00 0.  1.
          3   -1    0    0  501    0  0.00000000000E+00 -0.00000000000E+00 -0.72287845838E+03  0.72287845838E+03  0.00000000000E+00 0. -1.
        -24    2    1    2    0    0  0.41620363433E+03 -0.33143191088E+03 -0.80939066151E+02  0.54429799824E+03  0.81465340381E+02 0.  0.
        254    2    1    2    0    0 -0.41620363433E+03  0.33143191088E+03  0.26355736817E+03  0.10840772205E+04  0.90702169598E+03 0.  0.
         23    2    4    4    0    0 -0.44998947915E+03  0.27140197006E+02 -0.21535037848E+03  0.50836705717E+03  0.93990199804E+02 0.  0.
         23    2    4    4    0    0  0.33785844823E+02  0.30429171388E+03  0.47890774665E+03  0.57571016337E+03  0.91403675857E+02 0.  0.
          1    1    3    3  502    0  0.14014956713E+03 -0.13784551249E+03 -0.63888049450E+02  0.20670019193E+03  0.00000000000E+00 0. -1.
         -2    1    3    3    0  502  0.27605406720E+03 -0.19358639840E+03 -0.17051016701E+02  0.33759780632E+03  0.00000000000E+00 0.  1.
         13    1    5    5    0    0 -0.29414623235E+03  0.11677741367E+02 -0.90174231734E+02  0.30787946947E+03  0.00000000000E+00 0. -1.
        -13    1    5    5    0    0 -0.15584324680E+03  0.15462455639E+02 -0.12517614674E+03  0.20048758770E+03  0.00000000000E+00 0.  1.
          3    1    6    6  503    0  0.58007792631E+02  0.13509417596E+03  0.19320435607E+03  0.24278233788E+03  0.00000000000E+00 0. -1.
         -3    1    6    6    0  503 -0.24221947808E+02  0.16919753791E+03  0.28570339058E+03  0.33292782548E+03  0.00000000000E+00 0.  1.
<mgrwt>
<rscale>  0 0.16181027E+04</rscale>
<asrwt>0</asrwt>
<pdfrwt beam="1">  1        3 0.11121207E+00 0.16181027E+04</pdfrwt>
<pdfrwt beam="2">  1       -2 0.13930719E+00 0.16181027E+04</pdfrwt>
<totfact> 0.98451772E-01</totfact>
</mgrwt>
</event>
<event>
12    5  0.5041746E-008  0.1878396E+04  0.7818608E-02  0.8665686E-01
          1   -1    0    0  501    0  0.00000000000E+00  0.00000000000E+00  0.50364377848E+03  0.50364377848E+03  0.00000000000E+00 0. -1.
         -2   -1    0    0    0  501 -0.00000000000E+00 -0.00000000000E+00 -0.17514213727E+04  0.17514213727E+04  0.00000000000E+00 0.  1.
        -24    2    1    2    0    0  0.46292097257E+03  0.41673458135E+03 -0.91596693232E+03  0.11107407582E+04  0.82377623158E+02 0.  0.
        254    2    1    2    0    0 -0.46292097257E+03 -0.41673458135E+03 -0.33181066194E+03  0.11443243930E+04  0.90078658007E+03 0.  0.
         23    2    4    4    0    0 -0.64610274848E+03 -0.29246020808E+03 -0.48171031602E+03  0.86215178430E+03  0.90989756053E+02 0.  0.
         23    2    4    4    0    0  0.18318177590E+03 -0.12427437327E+03  0.14989965408E+03  0.28217260867E+03  0.90287274388E+02 0.  0.
          1    1    3    3  502    0  0.20012271596E+02  0.44112896035E+02 -0.89200590847E+02  0.10150460097E+03  0.00000000000E+00 0. -1.
         -2    1    3    3    0  502  0.44290870098E+03  0.37262168532E+03 -0.82676634147E+03  0.10092361573E+04  0.00000000000E+00 0.  1.
         13    1    5    5    0    0 -0.34837714016E+03 -0.11560971317E+03 -0.27732343337E+03  0.46004404600E+03  0.00000000000E+00 0. -1.
        -13    1    5    5    0    0 -0.29772560832E+03 -0.17685049491E+03 -0.20438688265E+03  0.40210773830E+03  0.00000000000E+00 0.  1.
          3    1    6    6  503    0  0.18212782545E+03 -0.13156262527E+03  0.12692994752E+03  0.25805131418E+03  0.00000000000E+00 0. -1.
         -3    1    6    6    0  503  0.10539504529E+01  0.72882519963E+01  0.22969706560E+02  0.24121294496E+02  0.00000000000E+00 0.  1.
<mgrwt>
<rscale>  0 0.18783956E+04</rscale>
<asrwt>0</asrwt>
<pdfrwt beam="1">  1        1 0.77483659E-01 0.18783956E+04</pdfrwt>
<pdfrwt beam="2">  1       -2 0.26944944E+00 0.18783956E+04</pdfrwt>
<totfact> 0.17588642E+00</totfact>
</mgrwt>
</event>
<event>
12    5  0.5041746E-008  0.1712493E+04  0.7818608E-02  0.8754271E-01
         -2   -1    0    0    0  501 -0.00000000000E+00  0.00000000000E+00  0.14910936254E+04  0.14910936254E+04  0.00000000000E+00 0.  1.
          1   -1    0    0  501    0  0.00000000000E+00 -0.00000000000E+00 -0.49169139997E+03  0.49169139997E+03  0.00000000000E+00 0. -1.
        -24    2    1    2    0    0 -0.10196633693E+03 -0.27749291323E+03  0.97223722106E+03  0.10193166824E+04  0.79761107454E+02 0.  0.
        254    2    1    2    0    0  0.10196633693E+03  0.27749291323E+03  0.27165004399E+02  0.96346834299E+03  0.91658816255E+03 0.  0.
         23    2    4    4    0    0 -0.12577084837E+03  0.56439365626E+03  0.30583486236E+02  0.58609859901E+03  0.90651600121E+02 0.  0.
         23    2    4    4    0    0  0.22773718530E+03 -0.28690074303E+03 -0.34184818369E+01  0.37736974398E+03  0.90664081803E+02 0.  0.
          1    1    3    3  502    0 -0.26715634595E+02 -0.17811321278E+03  0.62234628923E+03  0.64788343505E+03  0.00000000000E+00 0. -1.
         -2    1    3    3    0  502 -0.75250702339E+02 -0.99379700446E+02  0.34989093183E+03  0.37143324735E+03  0.00000000000E+00 0.  1.
         13    1    5    5    0    0 -0.11192331205E+03  0.50187314993E+03 -0.20962930521E+01  0.51420606847E+03  0.00000000000E+00 0. -1.
        -13    1    5    5    0    0 -0.13847536315E+02  0.62520506329E+02  0.32679779288E+02  0.71892530544E+02  0.00000000000E+00 0.  1.
          4    1    6    6  503    0  0.11894770866E+03 -0.21774455315E+03  0.52263793857E+01  0.24817043108E+03  0.00000000000E+00 0. -1.
         -4    1    6    6    0  503  0.10878947664E+03 -0.69156189886E+02 -0.86448612226E+01  0.12919931290E+03  0.00000000000E+00 0.  1.
<mgrwt>
<rscale>  0 0.17124928E+04</rscale>
<asrwt>0</asrwt>
<pdfrwt beam="1">  1        1 0.75644832E-01 0.17124928E+04</pdfrwt>
<pdfrwt beam="2">  1       -2 0.22939902E+00 0.17124928E+04</pdfrwt>
<totfact> 0.32519236E+00</totfact>
</mgrwt>
</event>
<event>
12    5  0.5041746E-008  0.1768887E+04  0.7818608E-02  0.8723022E-01
          1   -1    0    0  501    0  0.00000000000E+00  0.00000000000E+00  0.68335948441E+03  0.68335948441E+03  0.00000000000E+00 0. -1.
         -2   -1    0    0    0  501 -0.00000000000E+00 -0.00000000000E+00 -0.11446983789E+04  0.11446983789E+04  0.00000000000E+00 0.  1.
        -24    2    1    2    0    0 -0.16654266629E+03  0.32104461442E+03 -0.73204392096E+03  0.82062249919E+03  0.82017558066E+02 0.  0.
        254    2    1    2    0    0  0.16654266629E+03 -0.32104461442E+03  0.27070502651E+03  0.10074353641E+04  0.90046582237E+03 0.  0.
         23    2    4    4    0    0  0.93069206449E+02 -0.51107323335E+03  0.47119805843E+03  0.70714145907E+03  0.90353228087E+02 0.  0.
         23    2    4    4    0    0  0.73473459842E+02  0.19002861893E+03 -0.20049303192E+03  0.30029390500E+03  0.92031235007E+02 0.  0.
          3    1    3    3  502    0  0.83875396866E+01  0.30197224475E+02 -0.56421570181E+02  0.64541589457E+02  0.00000000000E+00 0. -1.
         -4    1    3    3    0  502 -0.17493020598E+03  0.29084738994E+03 -0.67562235078E+03  0.75608090974E+03  0.00000000000E+00 0.  1.
         13    1    5    5    0    0  0.99344083523E+02 -0.30527096763E+03  0.29958637724E+03  0.43910318609E+03  0.00000000000E+00 0. -1.
        -13    1    5    5    0    0 -0.62748770736E+01 -0.20580226572E+03  0.17161168120E+03  0.26803827298E+03  0.00000000000E+00 0.  1.
          2    1    6    6  503    0  0.52334475255E+02  0.92930226862E+02 -0.44997330309E+02  0.11575700454E+03  0.00000000000E+00 0.  1.
         -2    1    6    6    0  503  0.21138984587E+02  0.97098392071E+02 -0.15549570161E+03  0.18453690046E+03  0.00000000000E+00 0. -1.
<mgrwt>
<rscale>  0 0.17688872E+04</rscale>
<asrwt>0</asrwt>
<pdfrwt beam="1">  1        1 0.10513223E+00 0.17688872E+04</pdfrwt>
<pdfrwt beam="2">  1       -2 0.17610744E+00 0.17688872E+04</pdfrwt>
<totfact> 0.45147857E+00</totfact>
</mgrwt>
</event>
<event>
12    5  0.5041746E-008  0.1185903E+04  0.7818608E-02  0.9125286E-01
         -4   -1    0    0    0  501 -0.00000000000E+00  0.00000000000E+00  0.15419312511E+04  0.15419312511E+04  0.00000000000E+00 0.  1.
          3   -1    0    0  501    0  0.00000000000E+00 -0.00000000000E+00 -0.22802029851E+03  0.22802029851E+03  0.00000000000E+00 0. -1.
        -24    2    1    2    0    0 -0.16243863216E+03  0.59663365468E+02  0.25097255874E+02  0.19057016452E+03  0.75769973990E+02 0.  0.
        254    2    1    2    0    0  0.16243863216E+03 -0.59663365468E+02  0.12888136967E+04  0.15793813851E+04  0.89635862709E+03 0.  0.
         23    2    4    4    0    0 -0.76493670863E+02 -0.28318956822E+03  0.11849856331E+04  0.12242105508E+04  0.91939701103E+02 0.  0.
         23    2    4    4    0    0  0.23893230302E+03  0.22352620275E+03  0.10382806363E+03  0.35517083437E+03  0.91178100719E+02 0.  0.
          1    1    3    3  502    0 -0.45820700645E+02 -0.14656959291E+02 -0.69804128226E+01  0.48611616167E+02  0.00000000000E+00 0. -1.
         -2    1    3    3    0  502 -0.11661793151E+03  0.74320324759E+02  0.32077668697E+02  0.14195854836E+03  0.00000000000E+00 0.  1.
         13    1    5    5    0    0 -0.44023124894E+02 -0.24484664036E+03  0.85623311372E+03  0.89164065511E+03  0.00000000000E+00 0. -1.
        -13    1    5    5    0    0 -0.32470545969E+02 -0.38342927859E+02  0.32875251940E+03  0.33256989564E+03  0.00000000000E+00 0.  1.
          1    1    6    6  503    0  0.83969778718E+02  0.12981828794E+03  0.74851878167E+02  0.17177460606E+03  0.00000000000E+00 0. -1.
         -1    1    6    6    0  503  0.15496252430E+03  0.93707914808E+02  0.28976185461E+02  0.18339622831E+03  0.00000000000E+00 0.  1.
<mgrwt>
<rscale>  0 0.11859032E+04</rscale>
<asrwt>0</asrwt>
<pdfrwt beam="1">  1        3 0.35080047E-01 0.11859032E+04</pdfrwt>
<pdfrwt beam="2">  1       -4 0.23722019E+00 0.11859032E+04</pdfrwt>
<totfact> 0.13826020E+00</totfact>
</mgrwt>
</event>
<event>
12    5  0.5041746E-008  0.2255220E+04  0.7818608E-02  0.8495789E-01
          1   -1    0    0  501    0  0.00000000000E+00  0.00000000000E+00  0.15050227780E+04  0.15050227780E+04  0.00000000000E+00 0. -1.
         -2   -1    0    0    0  501 -0.00000000000E+00 -0.00000000000E+00 -0.84484074512E+03  0.84484074512E+03  0.00000000000E+00 0.  1.
        -24    2    1    2    0    0 -0.82840750496E+03  0.36119454722E+03  0.38378460762E+03  0.98507098122E+03  0.79710211289E+02 0.  0.
        254    2    1    2    0    0  0.82840750496E+03 -0.36119454722E+03  0.27639742527E+03  0.13647925419E+04  0.98465356879E+03 0.  0.
         23    2    4    4    0    0  0.35359941243E+03 -0.38993171864E+03  0.58355742349E+03  0.79105285374E+03  0.90255532975E+02 0.  0.
         23    2    4    4    0    0  0.47480809253E+03  0.28737171421E+02 -0.30715999822E+03  0.57373968816E+03  0.92527917474E+02 0.  0.
          1    1    3    3  502    0 -0.29185328985E+03  0.13021753063E+03  0.17743489643E+03  0.36553808358E+03  0.00000000000E+00 0. -1.
         -2    1    3    3    0  502 -0.53655421512E+03  0.23097701659E+03  0.20634971118E+03  0.61953289764E+03  0.00000000000E+00 0.  1.
         13    1    5    5    0    0  0.14314652368E+02  0.22841239806E+01  0.90074363116E+01  0.17066352970E+02  0.00000000000E+00 0. -1.
        -13    1    5    5    0    0  0.33928476006E+03 -0.39221584262E+03  0.57454998717E+03  0.77398650077E+03  0.00000000000E+00 0.  1.
          4    1    6    6  503    0  0.22165955483E+03  0.40431187483E+02 -0.10038856610E+03  0.24666881313E+03  0.00000000000E+00 0. -1.
         -4    1    6    6    0  503  0.25314853770E+03 -0.11694016062E+02 -0.20677143212E+03  0.32707087503E+03  0.00000000000E+00 0.  1.
<mgrwt>
<rscale>  0 0.22552202E+04</rscale>
<asrwt>0</asrwt>
<pdfrwt beam="1">  1        1 0.23154197E+00 0.22552202E+04</pdfrwt>
<pdfrwt beam="2">  1       -2 0.12997550E+00 0.22552202E+04</pdfrwt>
<totfact> 0.22463042E+00</totfact>
</mgrwt>
</event>
<event>
12    5  0.5041746E-008  0.1676757E+04  0.7818608E-02  0.8774733E-01
         -2   -1    0    0    0  501 -0.00000000000E+00  0.00000000000E+00  0.16007130727E+04  0.16007130727E+04  0.00000000000E+00 0.  1.
          1   -1    0    0  501    0  0.00000000000E+00 -0.00000000000E+00 -0.43910347220E+03  0.43910347220E+03  0.00000000000E+00 0. -1.
        -24    2    1    2    0    0 -0.16269810962E+03  0.43913448196E+03  0.85129984132E+03  0.97485335981E+03  0.79485125504E+02 0.  0.
        254    2    1    2    0    0  0.16269810962E+03 -0.43913448196E+03  0.31030975923E+03  0.10649631851E+04  0.90473458589E+03 0.  0.
         23    2    4    4    0    0  0.29420845231E+02 -0.68337027565E+03  0.84823316455E+02  0.69518531290E+03  0.90703387368E+02 0.  0.
         23    2    4    4    0    0  0.13327726439E+03  0.24423579369E+03  0.22548644277E+03  0.36977787224E+03  0.92073811710E+02 0.  0.
          1    1    3    3  502    0 -0.53241744749E+02  0.86628716208E+02  0.24166451205E+03  0.26218496189E+03  0.00000000000E+00 0. -1.
         -2    1    3    3    0  502 -0.10945636487E+03  0.35250576575E+03  0.60963532927E+03  0.71266839792E+03  0.00000000000E+00 0.  1.
         13    1    5    5    0    0  0.47603652664E+02 -0.59258418116E+03  0.95010752983E+02  0.60203750937E+03  0.00000000000E+00 0. -1.
        -13    1    5    5    0    0 -0.18182807434E+02 -0.90786094490E+02 -0.10187436529E+02  0.93147803527E+02  0.00000000000E+00 0.  1.
          1    1    6    6  503    0  0.14663346606E+03  0.23152519577E+03  0.20518761726E+03  0.34235544091E+03  0.00000000000E+00 0. -1.
         -1    1    6    6    0  503 -0.13356201676E+02  0.12710597919E+02  0.20298825516E+02  0.27422431329E+02  0.00000000000E+00 0.  1.
<mgrwt>
<rscale>  0 0.16767572E+04</rscale>
<asrwt>0</asrwt>
<pdfrwt beam="1">  1        1 0.67554381E-01 0.16767572E+04</pdfrwt>
<pdfrwt beam="2">  1       -2 0.24626355E+00 0.16767572E+04</pdfrwt>
<totfact> 0.29909004E+00</totfact>
</mgrwt>
</event>
<event>
12    5  0.5041746E-008  0.1949885E+04  0.7818608E-02  0.8630416E-01
          1   -1    0    0  501    0  0.00000000000E+00  0.00000000000E+00  0.12215637589E+04  0.12215637589E+04  0.00000000000E+00 0. -1.
         -2   -1    0    0    0  501 -0.00000000000E+00 -0.00000000000E+00 -0.77811154492E+03  0.77811154492E+03  0.00000000000E+00 0.  1.
        -24    2    1    2    0    0 -0.68108399836E+03  0.25460014698E+02  0.52952118046E+03  0.86685032158E+03  0.80704239623E+02 0.  0.
        254    2    1    2    0    0  0.68108399836E+03 -0.25460014698E+02 -0.86068966498E+02  0.11328249822E+04  0.90075576500E+03 0.  0.
         23    2    4    4    0    0  0.67599814035E+03  0.31973062167E+03 -0.15728979797E+03  0.76890710188E+03  0.85304716042E+02 0.  0.
         23    2    4    4    0    0  0.50858580105E+01 -0.34519063637E+03  0.71220831467E+02  0.36391788034E+03  0.90450955814E+02 0.  0.
          3    1    3    3  502    0 -0.47615293838E+03 -0.19358902124E+02  0.36748455823E+03  0.60178176140E+03  0.00000000000E+00 0. -1.
         -4    1    3    3    0  502 -0.20493105998E+03  0.44818916822E+02  0.16203662223E+03  0.26506856018E+03  0.00000000000E+00 0.  1.
         13    1    5    5    0    0  0.49491249495E+03  0.19280495002E+03 -0.10008580697E+03  0.54048986592E+03  0.00000000000E+00 0.  1.
        -13    1    5    5    0    0  0.18108564541E+03  0.12692567165E+03 -0.57203990993E+02  0.22841723596E+03  0.00000000000E+00 0. -1.
          2    1    6    6  503    0  0.24152406869E+02 -0.15967659015E+03 -0.70977006465E+01  0.16164878457E+03  0.00000000000E+00 0. -1.
         -2    1    6    6    0  503 -0.19066548858E+02 -0.18551404622E+03  0.78318532114E+02  0.20226909577E+03  0.00000000000E+00 0.  1.
<mgrwt>
<rscale>  0 0.19498850E+04</rscale>
<asrwt>0</asrwt>
<pdfrwt beam="1">  1        1 0.18793289E+00 0.19498850E+04</pdfrwt>
<pdfrwt beam="2">  1       -2 0.11970947E+00 0.19498850E+04</pdfrwt>
<totfact> 0.44992046E+00</totfact>
</mgrwt>
</event>
<event>
12    5  0.5041746E-008  0.1380395E+04  0.7818608E-02  0.8968133E-01
         -2   -1    0    0    0  501 -0.00000000000E+00  0.00000000000E+00  0.24486414110E+03  0.24486414110E+03  0.00000000000E+00 0.  1.
          1   -1    0    0  501    0  0.00000000000E+00 -0.00000000000E+00 -0.19454569413E+04  0.19454569413E+04  0.00000000000E+00 0. -1.
        -24    2    1    2    0    0 -0.38903819288E+03 -0.72101060816E+02 -0.44691732985E+03  0.60240976329E+03  0.81321243854E+02 0.  0.
        254    2    1    2    0    0  0.38903819288E+03  0.72101060816E+02 -0.12536754703E+04  0.15879113191E+04  0.89062387901E+03 0.  0.
         23    2    4    4    0    0 -0.94771515607E+01  0.42264943625E+03 -0.47920570119E+03  0.64495253721E+03  0.87196954254E+02 0.  0.
         23    2    4    4    0    0  0.39851534444E+03 -0.35054837543E+03 -0.77446976912E+03  0.94295878186E+03  0.87573955757E+02 0.  0.
          3    1    3    3  502    0 -0.12791770313E+03 -0.91805415747E+01 -0.19987641552E+03  0.23748221533E+03  0.00000000000E+00 0. -1.
         -4    1    3    3    0  502 -0.26112048975E+03 -0.62920519242E+02 -0.24704091433E+03  0.36492754796E+03  0.00000000000E+00 0.  1.
         13    1    5    5    0    0  0.27721915670E+02  0.10819324730E+03 -0.16182593464E+03  0.19662633723E+03  0.00000000000E+00 0.  1.
        -13    1    5    5    0    0 -0.37199067231E+02  0.31445618894E+03 -0.31737976655E+03  0.44832619998E+03  0.00000000000E+00 0. -1.
          1    1    6    6  503    0  0.32742719791E+03 -0.27176899442E+03 -0.67235301303E+03  0.79569185643E+03  0.00000000000E+00 0. -1.
         -1    1    6    6    0  503  0.71088146534E+02 -0.78779381015E+02 -0.10211675609E+03  0.14726692543E+03  0.00000000000E+00 0.  1.
<mgrwt>
<rscale>  0 0.13803951E+04</rscale>
<asrwt>0</asrwt>
<pdfrwt beam="1">  1        1 0.29930106E+00 0.13803951E+04</pdfrwt>
<pdfrwt beam="2">  1       -2 0.37671407E-01 0.13803951E+04</pdfrwt>
<totfact> 0.18509109E+01</totfact>
</mgrwt>
</event>
<event>
12    5  0.5041746E-008  0.2200521E+04  0.7818608E-02  0.8518211E-01
         -2   -1    0    0    0  501 -0.00000000000E+00  0.00000000000E+00  0.43587874472E+03  0.43587874472E+03  0.00000000000E+00 0.  1.
          1   -1    0    0  501    0  0.00000000000E+00 -0.00000000000E+00 -0.27773171410E+04  0.27773171410E+04  0.00000000000E+00 0. -1.
        -24    2    1    2    0    0  0.29962461147E+02  0.70919966245E+03 -0.18166688403E+04  0.19520165126E+04  0.78872553134E+02 0.  0.
        254    2    1    2    0    0 -0.29962461147E+02 -0.70919966245E+03 -0.52476955596E+03  0.12611793732E+04  0.90073770551E+03 0.  0.
         23    2    4    4    0    0 -0.27949160850E+03  0.49654202117E+02  0.38660817407E+01  0.29880219163E+03  0.93202489912E+02 0.  0.
         23    2    4    4    0    0  0.24952914735E+03 -0.75885386457E+03 -0.52863563770E+03  0.96237718153E+03  0.92683433989E+02 0.  0.
          3    1    3    3  502    0  0.25548128821E+02  0.64303563921E+03 -0.17013156890E+04  0.18189619605E+04  0.00000000000E+00 0. -1.
         -4    1    3    3    0  502  0.44143323262E+01  0.66164023241E+02 -0.11535315137E+03  0.13305455209E+03  0.00000000000E+00 0.  1.
         13    1    5    5    0    0 -0.34520678527E+02  0.20422642322E+01 -0.31471293396E+02  0.46757784348E+02  0.00000000000E+00 0. -1.
        -13    1    5    5    0    0 -0.24497092997E+03  0.47611937885E+02  0.35337375137E+02  0.25204440728E+03  0.00000000000E+00 0.  1.
          3    1    6    6  503    0  0.66528656152E+02 -0.30131952590E+03 -0.24327930495E+03  0.39294317527E+03  0.00000000000E+00 0. -1.
         -3    1    6    6    0  503  0.18300049120E+03 -0.45753433867E+03 -0.28535633275E+03  0.56943400626E+03  0.00000000000E+00 0.  1.
<mgrwt>
<rscale>  0 0.22005213E+04</rscale>
<asrwt>0</asrwt>
<pdfrwt beam="1">  1        1 0.42727954E+00 0.22005213E+04</pdfrwt>
<pdfrwt beam="2">  1       -2 0.67058272E-01 0.22005213E+04</pdfrwt>
<totfact> 0.14150880E+00</totfact>
</mgrwt>
</event>
<event>
12    5  0.5041746E-008  0.2525076E+04  0.7818608E-02  0.8394106E-01
          1   -1    0    0  501    0  0.00000000000E+00  0.00000000000E+00  0.31192648073E+04  0.31192648073E+04  0.00000000000E+00 0. -1.
         -2   -1    0    0    0  501 -0.00000000000E+00 -0.00000000000E+00 -0.51101863909E+03  0.51101863909E+03  0.00000000000E+00 0.  1.
        -24    2    1    2    0    0 -0.83721805626E+03  0.31670029183E+03  0.20616753276E+04  0.22490208424E+04  0.79727314660E+02 0.  0.
        254    2    1    2    0    0  0.83721805626E+03 -0.31670029183E+03  0.54657084062E+03  0.13812626040E+04  0.89884011300E+03 0.  0.
         23    2    4    4    0    0 -0.13842258986E+03  0.20638489146E+02  0.25324771983E+03  0.30425864606E+03  0.94085894170E+02 0.  0.
         23    2    4    4    0    0  0.97564064612E+03 -0.33733878098E+03  0.29332312079E+03  0.10770039579E+04  0.90702528385E+02 0.  0.
          1    1    3    3  502    0 -0.40061117040E+03  0.17925642287E+03  0.93351025134E+03  0.10315345677E+04  0.00000000000E+00 0. -1.
         -2    1    3    3    0  502 -0.43660688586E+03  0.13744386896E+03  0.11281650762E+04  0.12174862747E+04  0.00000000000E+00 0.  1.
         13    1    5    5    0    0 -0.12871493045E+03  0.18230546227E+02  0.14183609585E+03  0.19239897147E+03  0.00000000000E+00 0. -1.
        -13    1    5    5    0    0 -0.97076594096E+01  0.24079429184E+01  0.11141162398E+03  0.11185967458E+03  0.00000000000E+00 0.  1.
          3    1    6    6  503    0  0.85318118598E+03 -0.32094362046E+03  0.24130562636E+03  0.94294822177E+03  0.00000000000E+00 0. -1.
         -3    1    6    6    0  503  0.12245946014E+03 -0.16395160517E+02  0.52017494427E+02  0.13405573614E+03  0.00000000000E+00 0.  1.
<mgrwt>
<rscale>  0 0.25250762E+04</rscale>
<asrwt>0</asrwt>
<pdfrwt beam="1">  1        1 0.47988688E+00 0.25250762E+04</pdfrwt>
<pdfrwt beam="2">  1       -2 0.78618254E-01 0.25250762E+04</pdfrwt>
<totfact> 0.54726343E-01</totfact>
</mgrwt>
</event>
<event>
12    5  0.5041746E-008  0.1822974E+04  0.7818608E-02  0.8694177E-01
         -2   -1    0    0    0  501 -0.00000000000E+00  0.00000000000E+00  0.50330942295E+03  0.50330942295E+03  0.00000000000E+00 0.  1.
          1   -1    0    0  501    0  0.00000000000E+00 -0.00000000000E+00 -0.16506918072E+04  0.16506918072E+04  0.00000000000E+00 0. -1.
        -24    2    1    2    0    0 -0.17082609670E+03 -0.62588331714E+03 -0.19436752669E+03  0.68195488932E+03  0.79826396855E+02 0.  0.
        254    2    1    2    0    0  0.17082609670E+03  0.62588331714E+03 -0.95301485755E+03  0.14720463408E+04  0.91529865555E+03 0.  0.
         23    2    4    4    0    0 -0.24661379884E+01  0.76385729459E+03 -0.96275451081E+03  0.12323101417E+04  0.90597952133E+02 0.  0.
         23    2    4    4    0    0  0.17329223469E+03 -0.13797397745E+03  0.97396532662E+01  0.23973619912E+03  0.91167797314E+02 0.  0.
          3    1    3    3  502    0 -0.12783070137E+03 -0.55591991372E+03 -0.15637547843E+03  0.59147352344E+03  0.00000000000E+00 0. -1.
         -4    1    3    3    0  502 -0.42995395333E+02 -0.69963403426E+02 -0.37992048264E+02  0.90481365872E+02  0.00000000000E+00 0.  1.
         13    1    5    5    0    0  0.21882143520E+02  0.62117132403E+02 -0.10307784119E+03  0.12232092089E+03  0.00000000000E+00 0.  1.
        -13    1    5    5    0    0 -0.24348281508E+02  0.70174016219E+03 -0.85967666963E+03  0.11099892208E+04  0.00000000000E+00 0. -1.
          2    1    6    6  503    0  0.16486461698E+03 -0.98857858804E+02  0.30533610879E+02  0.19464202931E+03  0.00000000000E+00 0. -1.
         -2    1    6    6    0  503  0.84276177085E+01 -0.39116118644E+02 -0.20793957613E+02  0.45094169814E+02  0.00000000000E+00 0.  1.
<mgrwt>
<rscale>  0 0.18229742E+04</rscale>
<asrwt>0</asrwt>
<pdfrwt beam="1">  1        1 0.25395259E+00 0.18229742E+04</pdfrwt>
<pdfrwt beam="2">  1       -2 0.77432219E-01 0.18229742E+04</pdfrwt>
<totfact> 0.63322613E+00</totfact>
</mgrwt>
</event>
<event>
12    5  0.5041746E-008  0.1458058E+04  0.7818608E-02  0.8912833E-01
         -4   -1    0    0    0  501 -0.00000000000E+00  0.00000000000E+00  0.13810117348E+04  0.13810117348E+04  0.00000000000E+00 0.  1.
          3   -1    0    0  501    0  0.00000000000E+00 -0.00000000000E+00 -0.38485074448E+03  0.38485074448E+03  0.00000000000E+00 0. -1.
        -24    2    1    2    0    0 -0.18210757281E+03  0.33949573181E+03  0.58347461577E+03  0.70435640528E+03  0.85175104385E+02 0.  0.
        254    2    1    2    0    0  0.18210757281E+03 -0.33949573181E+03  0.41268637450E+03  0.10615060740E+04  0.89892412437E+03 0.  0.
         23    2    4    4    0    0  0.60067012100E+02 -0.23511075005E+03  0.68520697626E+03  0.73259995138E+03  0.91153594157E+02 0.  0.
         23    2    4    4    0    0  0.12204056071E+03 -0.10438498177E+03 -0.27252060175E+03  0.32890612258E+03  0.90120121022E+02 0.  0.
          1    1    3    3  502    0 -0.12037254308E+03  0.22458308500E+03  0.30937192273E+03  0.40079682854E+03  0.00000000000E+00 0. -1.
         -2    1    3    3    0  502 -0.61735029725E+02  0.11491264682E+03  0.27410269304E+03  0.30355957673E+03  0.00000000000E+00 0.  1.
         13    1    5    5    0    0  0.38139920888E+02 -0.11079940776E+03  0.20548862559E+03  0.23655176510E+03  0.00000000000E+00 0. -1.
        -13    1    5    5    0    0  0.21927091211E+02 -0.12431134229E+03  0.47971835066E+03  0.49604818628E+03  0.00000000000E+00 0.  1.
          2    1    6    6  503    0  0.12796039185E+01 -0.52698072296E+02 -0.73697167314E+02  0.90609032000E+02  0.00000000000E+00 0. -1.
         -2    1    6    6    0  503  0.12076095679E+03 -0.51686909470E+02 -0.19882343444E+03  0.23829709058E+03  0.00000000000E+00 0.  1.
<mgrwt>
<rscale>  0 0.14580582E+04</rscale>
<asrwt>0</asrwt>
<pdfrwt beam="1">  1        3 0.59207807E-01 0.14580582E+04</pdfrwt>
<pdfrwt beam="2">  1       -4 0.21246334E+00 0.14580582E+04</pdfrwt>
<totfact> 0.67564563E-01</totfact>
</mgrwt>
</event>
<event>
12    5  0.5041746E-008  0.2230532E+04  0.7818608E-02  0.8505827E-01
         -2   -1    0    0    0  501 -0.00000000000E+00  0.00000000000E+00  0.26131725079E+03  0.26131725079E+03  0.00000000000E+00 0.  1.
          1   -1    0    0  501    0  0.00000000000E+00 -0.00000000000E+00 -0.47597999930E+04  0.47597999930E+04  0.00000000000E+00 0. -1.
        -24    2    1    2    0    0  0.13745567706E+01 -0.74893273639E+03 -0.63044102539E+03  0.98199888654E+03  0.77225602151E+02 0.  0.
        254    2    1    2    0    0 -0.13745567706E+01  0.74893273639E+03 -0.38680417168E+04  0.40391183572E+04  0.88984731708E+03 0.  0.
         23    2    4    4    0    0  0.13850550545E+03  0.22881452470E+03 -0.30017491946E+04  0.30150449261E+04  0.91966393646E+02 0.  0.
         23    2    4    4    0    0 -0.13988006222E+03  0.52011821170E+03 -0.86629252222E+03  0.10240734311E+04  0.90411682386E+02 0.  0.
          3    1    3    3  502    0 -0.17174216800E+02 -0.41653359393E+03 -0.30599101238E+03  0.51713217678E+03  0.00000000000E+00 0. -1.
         -4    1    3    3    0  502  0.18548773571E+02 -0.33239914246E+03 -0.32445001300E+03  0.46486670976E+03  0.00000000000E+00 0.  1.
         13    1    5    5    0    0  0.19456239450E+02  0.55803043322E+02 -0.34652608073E+03  0.35152930109E+03  0.00000000000E+00 0. -1.
        -13    1    5    5    0    0  0.11904926600E+03  0.17301148138E+03 -0.26552231138E+04  0.26635156250E+04  0.00000000000E+00 0.  1.
          4    1    6    6  503    0 -0.17063304303E+02  0.40139009086E+02 -0.33286801732E+02  0.54866269909E+02  0.00000000000E+00 0. -1.
         -4    1    6    6    0  503 -0.12281675792E+03  0.47997920261E+03 -0.83300572048E+03  0.96920716120E+03  0.00000000000E+00 0.  1.
<mgrwt>
<rscale>  0 0.22305316E+04</rscale>
<asrwt>0</asrwt>
<pdfrwt beam="1">  1        1 0.73227694E+00 0.22305316E+04</pdfrwt>
<pdfrwt beam="2">  1       -2 0.40202653E-01 0.22305316E+04</pdfrwt>
<totfact> 0.79848369E-02</totfact>
</mgrwt>
</event>
<event>
12    5  0.5041746E-008  0.1953220E+04  0.7818608E-02  0.8628810E-01
          3   -1    0    0  501    0  0.00000000000E+00  0.00000000000E+00  0.19821972045E+04  0.19821972045E+04  0.00000000000E+00 0. -1.
         -4   -1    0    0    0  501 -0.00000000000E+00 -0.00000000000E+00 -0.48116650209E+03  0.48116650209E+03  0.00000000000E+00 0.  1.
        -24    2    1    2    0    0  0.23302396223E+03  0.31266706580E+03 -0.23017971534E+03  0.45918514934E+03  0.76206554869E+02 0.  0.
        254    2    1    2    0    0 -0.23302396223E+03 -0.31266706580E+03  0.17312104177E+04  0.20041785572E+04  0.93144045315E+03 0.  0.
         23    2    4    4    0    0 -0.31298022801E+03  0.26132480943E+03  0.82197141339E+03  0.92183690967E+03  0.88876343585E+02 0.  0.
         23    2    4    4    0    0  0.79956265778E+02 -0.57399187524E+03  0.90923900435E+03  0.10823416476E+04  0.94277238701E+02 0.  0.
          3    1    3    3  502    0  0.71213503784E+02  0.15360971942E+03 -0.81442655528E+02  0.18788351487E+03  0.00000000000E+00 0. -1.
         -4    1    3    3    0  502  0.16181045845E+03  0.15905734639E+03 -0.14873705982E+03  0.27130163447E+03  0.00000000000E+00 0.  1.
         13    1    5    5    0    0 -0.30029156947E+03  0.22212301580E+03  0.70522431139E+03  0.79803194812E+03  0.00000000000E+00 0. -1.
        -13    1    5    5    0    0 -0.12688658546E+02  0.39201793633E+02  0.11674710201E+03  0.12380496156E+03  0.00000000000E+00 0.  1.
          1    1    6    6  503    0  0.90762043183E+02 -0.48911736807E+03  0.81694713538E+03  0.95649159444E+03  0.00000000000E+00 0. -1.
         -1    1    6    6    0  503 -0.10805777405E+02 -0.84874507170E+02  0.92291868972E+02  0.12585005312E+03  0.00000000000E+00 0.  1.
<mgrwt>
<rscale>  0 0.19532198E+04</rscale>
<asrwt>0</asrwt>
<pdfrwt beam="1">  1        3 0.30495341E+00 0.19532198E+04</pdfrwt>
<pdfrwt beam="2">  1       -4 0.74025617E-01 0.19532198E+04</pdfrwt>
<totfact> 0.12856521E-01</totfact>
</mgrwt>
</event>
<event>
12    5  0.5041746E-008  0.1518770E+04  0.7818608E-02  0.8872066E-01
         -2   -1    0    0    0  501 -0.00000000000E+00  0.00000000000E+00  0.59174279366E+03  0.59174279366E+03  0.00000000000E+00 0.  1.
          1   -1    0    0  501    0  0.00000000000E+00 -0.00000000000E+00 -0.97452053557E+03  0.97452053557E+03  0.00000000000E+00 0. -1.
        -24    2    1    2    0    0  0.37910925665E+03 -0.29934584211E+03 -0.19825730879E+03  0.52803342408E+03  0.78622991486E+02 0.  0.
        254    2    1    2    0    0 -0.37910925665E+03  0.29934584211E+03 -0.18452043312E+03  0.10382299052E+04  0.90030094082E+03 0.  0.
         23    2    4    4    0    0  0.21105679356E+02  0.16788531116E+03  0.32002425330E+03  0.37514708378E+03  0.98432130742E+02 0.  0.
         23    2    4    4    0    0 -0.40021493601E+03  0.13146053095E+03 -0.50454468643E+03  0.66308282137E+03  0.87519261856E+02 0.  0.
          3    1    3    3  502    0  0.20188610842E+03 -0.12600888225E+03 -0.12873068030E+03  0.27056944992E+03  0.00000000000E+00 0. -1.
         -4    1    3    3    0  502  0.17722314823E+03 -0.17333695985E+03 -0.69526628489E+02  0.25746397416E+03  0.00000000000E+00 0.  1.
         13    1    5    5    0    0 -0.15322383454E+02 -0.53434042689E+01  0.47341643138E+02  0.50045565027E+02  0.00000000000E+00 0.  1.
        -13    1    5    5    0    0  0.36428062810E+02  0.17322871543E+03  0.27268261017E+03  0.32510151875E+03  0.00000000000E+00 0. -1.
          3    1    6    6  503    0 -0.31761562881E+03  0.97188761919E+02 -0.44639808756E+03  0.55641405058E+03  0.00000000000E+00 0. -1.
         -3    1    6    6    0  503 -0.82599307202E+02  0.34271769028E+02 -0.58146598867E+02  0.10666877079E+03  0.00000000000E+00 0.  1.
<mgrwt>
<rscale>  0 0.15187699E+04</rscale>
<asrwt>0</asrwt>
<pdfrwt beam="1">  1        1 0.14992624E+00 0.15187699E+04</pdfrwt>
<pdfrwt beam="2">  1       -2 0.91037353E-01 0.15187699E+04</pdfrwt>
<totfact> 0.13808700E+01</totfact>
</mgrwt>
</event>
<event>
12    5  0.5041746E-008  0.9942690E+03  0.7818608E-02  0.9314853E-01
         -2   -1    0    0    0  501 -0.00000000000E+00  0.00000000000E+00  0.19740360734E+03  0.19740360734E+03  0.00000000000E+00 0.  1.
          1   -1    0    0  501    0  0.00000000000E+00 -0.00000000000E+00 -0.12519666173E+04  0.12519666173E+04  0.00000000000E+00 0. -1.
        -24    2    1    2    0    0  0.28716245904E+02 -0.93856033591E+01 -0.12026640696E+03  0.14873580739E+03  0.82131719995E+02 0.  0.
        254    2    1    2    0    0 -0.28716245904E+02  0.93856033591E+01 -0.93429660304E+03  0.13006344173E+04  0.90433789738E+03 0.  0.
         23    2    4    4    0    0  0.13347028030E+03 -0.22128004052E+03 -0.96384138629E+03  0.10027498217E+04  0.98680367991E+02 0.  0.
         23    2    4    4    0    0 -0.16218652620E+03  0.23066564388E+03  0.29544783252E+02  0.29788459554E+03  0.91385061649E+02 0.  0.
          3    1    3    3  502    0 -0.72934009975E+01 -0.37946645849E+02 -0.74220823978E+02  0.83677191284E+02  0.00000000000E+00 0. -1.
         -4    1    3    3    0  502  0.36009646901E+02  0.28561042490E+02 -0.46045582978E+02  0.65058616107E+02  0.00000000000E+00 0.  1.
         13    1    5    5    0    0  0.13076783400E+03 -0.23044250997E+03 -0.89980388017E+03  0.93800373111E+03  0.00000000000E+00 0.  1.
        -13    1    5    5    0    0  0.27024462944E+01  0.91624694430E+01 -0.64037506118E+02  0.64746090632E+02  0.00000000000E+00 0. -1.
          3    1    6    6  503    0 -0.14204243026E+02  0.26962239482E+02  0.34528877550E+02  0.46053949480E+02  0.00000000000E+00 0. -1.
         -3    1    6    6    0  503 -0.14798228317E+03  0.20370340440E+03 -0.49840942986E+01  0.25183064606E+03  0.00000000000E+00 0.  1.
<mgrwt>
<rscale>  0 0.99426903E+03</rscale>
<asrwt>0</asrwt>
<pdfrwt beam="1">  1        1 0.19261025E+00 0.99426903E+03</pdfrwt>
<pdfrwt beam="2">  1       -2 0.30369786E-01 0.99426903E+03</pdfrwt>
<totfact> 0.86303606E+01</totfact>
</mgrwt>
</event>
<event>
12    5  0.5041746E-008  0.1760945E+04  0.7818608E-02  0.8727349E-01
         -2   -1    0    0    0  501 -0.00000000000E+00  0.00000000000E+00  0.22175470673E+04  0.22175470673E+04  0.00000000000E+00 0.  1.
          1   -1    0    0  501    0  0.00000000000E+00 -0.00000000000E+00 -0.34958970177E+03  0.34958970177E+03  0.00000000000E+00 0. -1.
        -24    2    1    2    0    0 -0.12619901317E+03  0.41784186339E+03 -0.68243838193E+01  0.44382031097E+03  0.80074231113E+02 0.  0.
        254    2    1    2    0    0  0.12619901317E+03 -0.41784186339E+03  0.18747817493E+04  0.21233164581E+04  0.89618533787E+03 0.  0.
         23    2    4    4    0    0  0.37264085088E+03 -0.11074206001E+03  0.30465146908E+03  0.50198656369E+03  0.89738424946E+02 0.  0.
         23    2    4    4    0    0 -0.24644183772E+03 -0.30709980338E+03  0.15701302803E+04  0.16213298944E+04  0.91420243244E+02 0.  0.
          1    1    3    3  502    0 -0.50115284972E+02  0.20288325945E+03 -0.41819431570E+02  0.21312443222E+03  0.00000000000E+00 0. -1.
         -2    1    3    3    0  502 -0.76083728195E+02  0.21495860394E+03  0.34995047751E+02  0.23069587875E+03  0.00000000000E+00 0.  1.
         13    1    5    5    0    0  0.24453139465E+03 -0.52058481499E+02  0.24139039663E+03  0.34752699471E+03  0.00000000000E+00 0.  1.
        -13    1    5    5    0    0  0.12810945623E+03 -0.58683578509E+02  0.63261072450E+02  0.15445956898E+03  0.00000000000E+00 0. -1.
          1    1    6    6  503    0 -0.27686324330E+02 -0.91102484821E+02  0.43569432123E+03  0.44597728289E+03  0.00000000000E+00 0. -1.
         -1    1    6    6    0  503 -0.21875551339E+03 -0.21599731856E+03  0.11344359590E+04  0.11753526115E+04  0.00000000000E+00 0.  1.
<mgrwt>
<rscale>  0 0.17609448E+04</rscale>
<asrwt>0</asrwt>
<pdfrwt beam="1">  1        1 0.53783032E-01 0.17609448E+04</pdfrwt>
<pdfrwt beam="2">  1       -2 0.34116108E+00 0.17609448E+04</pdfrwt>
<totfact> 0.10536718E+00</totfact>
</mgrwt>
</event>
<event>
12    5  0.5041746E-008  0.1419930E+04  0.7818608E-02  0.8939517E-01
         -2   -1    0    0    0  501 -0.00000000000E+00  0.00000000000E+00  0.65421747084E+03  0.65421747084E+03  0.00000000000E+00 0.  1.
          1   -1    0    0  501    0  0.00000000000E+00 -0.00000000000E+00 -0.77046252183E+03  0.77046252183E+03  0.00000000000E+00 0. -1.
        -24    2    1    2    0    0 -0.34038023470E+03 -0.32422973226E+03 -0.94980809300E+02  0.48629875308E+03  0.80507761454E+02 0.  0.
        254    2    1    2    0    0  0.34038023470E+03  0.32422973226E+03 -0.21264241685E+02  0.93838123959E+03  0.81186424936E+03 0.  0.
         23    2    4    4    0    0  0.69213390959E+02 -0.26021474121E+03 -0.39691268282E+02  0.28737784361E+03  0.92241114428E+02 0.  0.
         23    2    4    4    0    0  0.27116684374E+03  0.58444447346E+03  0.18427026597E+02  0.65100339598E+03  0.91427930978E+02 0.  0.
          3    1    3    3  502    0 -0.19007989947E+02 -0.23471816126E+01 -0.15319785790E+02  0.24525675934E+02  0.00000000000E+00 0. -1.
         -4    1    3    3    0  502 -0.32137224475E+03 -0.32188255064E+03 -0.79661023510E+02  0.46177307714E+03  0.00000000000E+00 0.  1.
         13    1    5    5    0    0  0.78290523104E+02 -0.26356496844E+03 -0.38474254884E+02  0.27762594779E+03  0.00000000000E+00 0. -1.
        -13    1    5    5    0    0 -0.90771321447E+01  0.33502272340E+01 -0.12170133985E+01  0.97518958210E+01  0.00000000000E+00 0.  1.
          2    1    6    6  503    0  0.20932752717E+03  0.49686586585E+03 -0.12884067694E+02  0.53931410280E+03  0.00000000000E+00 0. -1.
         -2    1    6    6    0  503  0.61839316573E+02  0.87578607611E+02  0.31311094292E+02  0.11168929318E+03  0.00000000000E+00 0.  1.
<mgrwt>
<rscale>  0 0.14199296E+04</rscale>
<asrwt>0</asrwt>
<pdfrwt beam="1">  1        1 0.11853270E+00 0.14199296E+04</pdfrwt>
<pdfrwt beam="2">  1       -2 0.10064884E+00 0.14199296E+04</pdfrwt>
<totfact> 0.16285226E+01</totfact>
</mgrwt>
</event>
<event>
12    5  0.5041746E-008  0.1341401E+04  0.7818608E-02  0.8997363E-01
         -2   -1    0    0    0  501 -0.00000000000E+00  0.00000000000E+00  0.49660009798E+03  0.49660009798E+03  0.00000000000E+00 0.  1.
          1   -1    0    0  501    0  0.00000000000E+00 -0.00000000000E+00 -0.90583796215E+03  0.90583796215E+03  0.00000000000E+00 0. -1.
        -24    2    1    2    0    0  0.53459760861E+02 -0.85009428211E+02 -0.48674896920E+03  0.50333759540E+03  0.79621774740E+02 0.  0.
        254    2    1    2    0    0 -0.53459760861E+02  0.85009428211E+02  0.77511105034E+02  0.89910046473E+03  0.89010624386E+03 0.  0.
         23    2    4    4    0    0 -0.35390196348E+03  0.18300453546E+03  0.29558912150E+03  0.50424323885E+03  0.90283195673E+02 0.  0.
         23    2    4    4    0    0  0.30044220262E+03 -0.97995107246E+02 -0.21807801646E+03  0.39485722589E+03  0.92117584701E+02 0.  0.
          1    1    3    3  502    0  0.17955183917E+02 -0.84218856449E+02 -0.40744176492E+03  0.41644206826E+03  0.00000000000E+00 0. -1.
         -2    1    3    3    0  502  0.35504576943E+02 -0.79057176234E+00 -0.79307204274E+02  0.86895527143E+02  0.00000000000E+00 0.  1.
         13    1    5    5    0    0 -0.22593652766E+03  0.11604475212E+03  0.24012547575E+03  0.34953389410E+03  0.00000000000E+00 0.  1.
        -13    1    5    5    0    0 -0.12796543582E+03  0.66959783342E+02  0.55463645746E+02  0.15470934474E+03  0.00000000000E+00 0. -1.
          4    1    6    6  503    0  0.25740278350E+03 -0.10647640226E+03 -0.15729725981E+03  0.31989974232E+03  0.00000000000E+00 0. -1.
         -4    1    6    6    0  503  0.43039419118E+02  0.84812950132E+01 -0.60780756658E+02  0.74957483569E+02  0.00000000000E+00 0.  1.
<mgrwt>
<rscale>  0 0.13414011E+04</rscale>
<asrwt>0</asrwt>
<pdfrwt beam="1">  1        1 0.13935969E+00 0.13414011E+04</pdfrwt>
<pdfrwt beam="2">  1       -2 0.76400016E-01 0.13414011E+04</pdfrwt>
<totfact> 0.23678361E+01</totfact>
</mgrwt>
</event>
<event>
12    5  0.5804491E-008  0.1837131E+04  0.7818608E-02  0.8686799E-01
          1   -1    0    0  501    0  0.00000000000E+00  0.00000000000E+00  0.13504256597E+04  0.13504256597E+04  0.00000000000E+00 0. -1.
         -2   -1    0    0    0  501 -0.00000000000E+00 -0.00000000000E+00 -0.62481244927E+03  0.62481244927E+03  0.00000000000E+00 0.  1.
        -24    2    1    2    0    0  0.34840726460E+03 -0.22361453703E+03  0.86794089079E+03  0.96488730721E+03  0.79341303943E+02 0.  0.
        254    2    1    2    0    0 -0.34840726460E+03  0.22361453703E+03 -0.14232768036E+03  0.10103508018E+04  0.91058250084E+03 0.  0.
         23    2    4    4    0    0 -0.14330471730E+03  0.91449429068E+02  0.38020662627E+03  0.42631796985E+03  0.91053240918E+02 0.  0.
         23    2    4    4    0    0 -0.20510254730E+03  0.13216510796E+03 -0.52253430663E+03  0.58403283191E+03  0.92290717162E+02 0.  0.
          1    1    3    3  502    0  0.28489545956E+03 -0.21067048870E+03  0.76758150066E+03  0.84541636952E+03  0.00000000000E+00 0. -1.
         -2    1    3    3    0  502  0.63511805038E+02 -0.12944048331E+02  0.10035939013E+03  0.11947093769E+03  0.00000000000E+00 0.  1.
         13    1    5    5    0    0 -0.50467405380E+02 -0.83466841189E+01  0.15342626732E+03  0.16172892643E+03  0.00000000000E+00 0. -1.
        -13    1    5    5    0    0 -0.92837311917E+02  0.99796113187E+02  0.22678035896E+03  0.26458904342E+03  0.00000000000E+00 0.  1.
          3    1    6    6  503    0 -0.20807935312E+03  0.13004544948E+03 -0.52507661360E+03  0.57958113002E+03  0.00000000000E+00 0. -1.
         -3    1    6    6    0  503  0.29768058236E+01  0.21196584847E+01  0.25423069698E+01  0.44517018917E+01  0.00000000000E+00 0.  1.
<mgrwt>
<rscale>  0 0.18371312E+04</rscale>
<asrwt>0</asrwt>
<pdfrwt beam="1">  1        1 0.20775779E+00 0.18371312E+04</pdfrwt>
<pdfrwt beam="2">  1       -2 0.96124992E-01 0.18371312E+04</pdfrwt>
<totfact> 0.62314609E+00</totfact>
</mgrwt>
</event>
<event>
12    5  0.5041746E-008  0.1329213E+04  0.7818608E-02  0.9006715E-01
         -2   -1    0    0    0  501 -0.00000000000E+00  0.00000000000E+00  0.17156558120E+04  0.17156558120E+04  0.00000000000E+00 0.  1.
          1   -1    0    0  501    0  0.00000000000E+00 -0.00000000000E+00 -0.25745354648E+03  0.25745354648E+03  0.00000000000E+00 0. -1.
        -24    2    1    2    0    0 -0.24830650350E+03 -0.20507290725E+03  0.17958649633E+03  0.37644224924E+03  0.75805279373E+02 0.  0.
        254    2    1    2    0    0  0.24830650350E+03  0.20507290725E+03  0.12786157692E+04  0.15966671092E+04  0.90043131636E+03 0.  0.
         23    2    4    4    0    0  0.24369717666E+03  0.10635722637E+03  0.13928792356E+04  0.14209054682E+04  0.90330565384E+02 0.  0.
         23    2    4    4    0    0  0.46093268490E+01  0.98715680878E+02 -0.11426346644E+03  0.17576164101E+03  0.89833084898E+02 0.  0.
          1    1    3    3  502    0 -0.15290146614E+02  0.39510885302E+01  0.49110637908E+00  0.15800027517E+02  0.00000000000E+00 0. -1.
         -2    1    3    3    0  502 -0.23301635689E+03 -0.20902399578E+03  0.17909538995E+03  0.36064222172E+03  0.00000000000E+00 0.  1.
         13    1    5    5    0    0  0.97525330974E+00 -0.10811441349E+02  0.71458264901E+02  0.72278088005E+02  0.00000000000E+00 0. -1.
        -13    1    5    5    0    0  0.24272192335E+03  0.11716866772E+03  0.13214209707E+04  0.13486273802E+04  0.00000000000E+00 0.  1.
          3    1    6    6  503    0 -0.83904239497E+00  0.31525467902E+02  0.11091942101E+02  0.33430379869E+02  0.00000000000E+00 0. -1.
         -3    1    6    6    0  503  0.54483692440E+01  0.67190212976E+02 -0.12535540854E+03  0.14233126114E+03  0.00000000000E+00 0.  1.
<mgrwt>
<rscale>  0 0.13292128E+04</rscale>
<asrwt>0</asrwt>
<pdfrwt beam="1">  1        1 0.39608239E-01 0.13292128E+04</pdfrwt>
<pdfrwt beam="2">  1       -2 0.26394704E+00 0.13292128E+04</pdfrwt>
<totfact> 0.48447484E+00</totfact>
</mgrwt>
</event>
<event>
12    5  0.5041746E-008  0.1140318E+04  0.7818608E-02  0.9166762E-01
         -2   -1    0    0    0  501 -0.00000000000E+00  0.00000000000E+00  0.27607767260E+03  0.27607767260E+03  0.00000000000E+00 0.  1.
          1   -1    0    0  501    0  0.00000000000E+00 -0.00000000000E+00 -0.11774993239E+04  0.11774993239E+04  0.00000000000E+00 0. -1.
        -24    2    1    2    0    0  0.98181740541E+02  0.41200756094E+02 -0.42118802759E+03  0.44167952329E+03  0.79651052902E+02 0.  0.
        254    2    1    2    0    0 -0.98181740541E+02 -0.41200756094E+02 -0.48023362372E+03  0.10118974732E+04  0.88429350698E+03 0.  0.
         23    2    4    4    0    0  0.40754280309E+02 -0.24694691132E+03  0.16617128306E+03  0.31387911234E+03  0.90903869415E+02 0.  0.
         23    2    4    4    0    0 -0.13893602085E+03  0.20574615522E+03 -0.64640490678E+03  0.69801836088E+03  0.88066056695E+02 0.  0.
          1    1    3    3  502    0  0.90477102679E+02  0.50667085851E+02 -0.41544339184E+03  0.42818976111E+03  0.00000000000E+00 0. -1.
         -2    1    3    3    0  502  0.77046378616E+01 -0.94663297575E+01 -0.57446357499E+01  0.13489762176E+02  0.00000000000E+00 0.  1.
         13    1    5    5    0    0  0.68114982922E+02 -0.16323658315E+03  0.12546854097E+03  0.21685983434E+03  0.00000000000E+00 0.  1.
        -13    1    5    5    0    0 -0.27360702613E+02 -0.83710328161E+02  0.40702742089E+02  0.97019277991E+02  0.00000000000E+00 0. -1.
          2    1    6    6  503    0 -0.68946826876E+02  0.15172879530E+03 -0.49941300036E+03  0.52648707219E+03  0.00000000000E+00 0. -1.
         -2    1    6    6    0  503 -0.69989193973E+02  0.54017359926E+02 -0.14699190642E+03  0.17153128869E+03  0.00000000000E+00 0.  1.
<mgrwt>
<rscale>  0 0.11403180E+04</rscale>
<asrwt>0</asrwt>
<pdfrwt beam="1">  1        1 0.18115374E+00 0.11403180E+04</pdfrwt>
<pdfrwt beam="2">  1       -2 0.42473489E-01 0.11403180E+04</pdfrwt>
<totfact> 0.50820365E+01</totfact>
</mgrwt>
</event>
<event>
12    5  0.5041746E-008  0.1372414E+04  0.7818608E-02  0.8974032E-01
         -2   -1    0    0    0  501 -0.00000000000E+00  0.00000000000E+00  0.57673567587E+03  0.57673567587E+03  0.00000000000E+00 0.  1.
          1   -1    0    0  501    0  0.00000000000E+00 -0.00000000000E+00 -0.81645731164E+03  0.81645731164E+03  0.00000000000E+00 0. -1.
        -24    2    1    2    0    0 -0.94747381491E+02  0.73207743698E+02 -0.45262303425E+03  0.47516381220E+03  0.81096222191E+02 0.  0.
        254    2    1    2    0    0  0.94747381491E+02 -0.73207743698E+02  0.21290139849E+03  0.91802917531E+03  0.88493735440E+03 0.  0.
         23    2    4    4    0    0  0.23755111769E+02 -0.44655375736E+03 -0.30319395369E+02  0.45737008116E+03  0.91068995053E+02 0.  0.
         23    2    4    4    0    0  0.70992269722E+02  0.37334601366E+03  0.24322079386E+03  0.46065909415E+03  0.92861715390E+02 0.  0.
          1    1    3    3  502    0 -0.43366834342E+02 -0.60997238147E+01 -0.21550668592E+03  0.21991139267E+03  0.00000000000E+00 0. -1.
         -2    1    3    3    0  502 -0.51380547149E+02  0.79307467512E+02 -0.23711634833E+03  0.25525241953E+03  0.00000000000E+00 0.  1.
         13    1    5    5    0    0  0.11542857266E+02 -0.39760206866E+03 -0.54388627322E+02  0.40147075279E+03  0.00000000000E+00 0.  1.
        -13    1    5    5    0    0  0.12212254503E+02 -0.48951688692E+02  0.24069231953E+02  0.55899328374E+02  0.00000000000E+00 0. -1.
          4    1    6    6  503    0 -0.18513890334E+02  0.45775694821E+02  0.15342624509E+02  0.51706619484E+02  0.00000000000E+00 0. -1.
         -4    1    6    6    0  503  0.89506160056E+02  0.32757031884E+03  0.22787816935E+03  0.40895247467E+03  0.00000000000E+00 0.  1.
<mgrwt>
<rscale>  0 0.13724140E+04</rscale>
<asrwt>0</asrwt>
<pdfrwt beam="1">  1        1 0.12560882E+00 0.13724140E+04</pdfrwt>
<pdfrwt beam="2">  1       -2 0.88728566E-01 0.13724140E+04</pdfrwt>
<totfact> 0.20003532E+01</totfact>
</mgrwt>
</event>
<event>
12    5  0.5041746E-008  0.1053352E+04  0.7818608E-02  0.9251890E-01
         -2   -1    0    0    0  501 -0.00000000000E+00  0.00000000000E+00  0.44586075709E+03  0.44586075709E+03  0.00000000000E+00 0.  1.
          1   -1    0    0  501    0  0.00000000000E+00 -0.00000000000E+00 -0.62213948663E+03  0.62213948663E+03  0.00000000000E+00 0. -1.
        -24    2    1    2    0    0  0.12197356869E+03 -0.20645046544E+02  0.38887057218E+02  0.15232385091E+03  0.79916099333E+02 0.  0.
        254    2    1    2    0    0 -0.12197356869E+03  0.20645046544E+02 -0.21516578675E+03  0.91567639281E+03  0.88139841795E+03 0.  0.
         23    2    4    4    0    0 -0.45380338730E+03  0.19748377125E+03 -0.10349220667E+03  0.51322157612E+03  0.88024968696E+02 0.  0.
         23    2    4    4    0    0  0.33182981862E+03 -0.17683872471E+03 -0.11167358008E+03  0.40245481670E+03  0.90088444955E+02 0.  0.
          3    1    3    3  502    0  0.87033759316E+02 -0.28575046492E+02  0.61152160412E+02  0.11014079746E+03  0.00000000000E+00 0. -1.
         -4    1    3    3    0  502  0.34939809371E+02  0.79299999483E+01 -0.22265103194E+02  0.42183053449E+02  0.00000000000E+00 0.  1.
         13    1    5    5    0    0 -0.21267240241E+03  0.59685262220E+02 -0.78290715144E+02  0.23435297598E+03  0.00000000000E+00 0. -1.
        -13    1    5    5    0    0 -0.24113098490E+03  0.13779850903E+03 -0.25201491531E+02  0.27886860014E+03  0.00000000000E+00 0.  1.
          1    1    6    6  503    0  0.30722520190E+03 -0.12994727755E+03 -0.99786559806E+02  0.34818239063E+03  0.00000000000E+00 0. -1.
         -1    1    6    6    0  503  0.24604616716E+02 -0.46891447157E+02 -0.11887020272E+02  0.54272426067E+02  0.00000000000E+00 0.  1.
<mgrwt>
<rscale>  0 0.10533519E+04</rscale>
<asrwt>0</asrwt>
<pdfrwt beam="1">  1        1 0.95713767E-01 0.10533519E+04</pdfrwt>
<pdfrwt beam="2">  1       -2 0.68593963E-01 0.10533519E+04</pdfrwt>
<totfact> 0.55256337E+01</totfact>
</mgrwt>
</event>
<event>
12    5  0.5041746E-008  0.1903747E+04  0.7818608E-02  0.8652993E-01
         -4   -1    0    0    0  501 -0.00000000000E+00  0.00000000000E+00  0.25749006195E+03  0.25749006195E+03  0.00000000000E+00 0.  1.
          3   -1    0    0  501    0  0.00000000000E+00 -0.00000000000E+00 -0.35188284521E+04  0.35188284521E+04  0.00000000000E+00 0. -1.
        -24    2    1    2    0    0  0.36848231401E+03 -0.11815454396E+03 -0.24971481353E+04  0.25282308892E+04  0.80392209709E+02 0.  0.
        254    2    1    2    0    0 -0.36848231401E+03  0.11815454396E+03 -0.76419025480E+03  0.12480876248E+04  0.90774239832E+03 0.  0.
         23    2    4    4    0    0 -0.49242320003E+03  0.84000934468E+02 -0.90412716573E+03  0.10371457681E+04  0.93212915678E+02 0.  0.
         23    2    4    4    0    0  0.12394088602E+03  0.34153609488E+02  0.13993691093E+03  0.21094185668E+03  0.91576828890E+02 0.  0.
          3    1    3    3  502    0  0.35809042050E+03 -0.12711054302E+03 -0.23595054473E+04  0.23899062314E+04  0.00000000000E+00 0. -1.
         -4    1    3    3    0  502  0.10391893511E+02  0.89559990596E+01 -0.13764268805E+03  0.13832465776E+03  0.00000000000E+00 0.  1.
         13    1    5    5    0    0 -0.45188822613E+03  0.88723380143E+02 -0.86820288069E+03  0.98277721237E+03  0.00000000000E+00 0.  1.
        -13    1    5    5    0    0 -0.40534973896E+02 -0.47224456752E+01 -0.35924285035E+02  0.54368555776E+02  0.00000000000E+00 0. -1.
          3    1    6    6  503    0  0.13406539042E+03  0.13677021040E+02  0.12358770183E+03  0.18285105922E+03  0.00000000000E+00 0.  1.
         -3    1    6    6    0  503 -0.10124504400E+02  0.20476588447E+02  0.16349209098E+02  0.28090797460E+02  0.00000000000E+00 0. -1.
<mgrwt>
<rscale>  0 0.19037472E+04</rscale>
<asrwt>0</asrwt>
<pdfrwt beam="1">  1        3 0.54135822E+00 0.19037472E+04</pdfrwt>
<pdfrwt beam="2">  1       -4 0.39613856E-01 0.19037472E+04</pdfrwt>
<totfact> 0.29066943E-02</totfact>
</mgrwt>
</event>
<event>
12    5  0.5041746E-008  0.1951687E+04  0.7818608E-02  0.8629548E-01
         -2   -1    0    0    0  501 -0.00000000000E+00  0.00000000000E+00  0.76091083226E+03  0.76091083226E+03  0.00000000000E+00 0.  1.
          3   -1    0    0  501    0  0.00000000000E+00 -0.00000000000E+00 -0.12514877835E+04  0.12514877835E+04  0.00000000000E+00 0. -1.
        -24    2    1    2    0    0 -0.12401590419E+03 -0.32981716448E+03 -0.89718855595E+03  0.96700316735E+03  0.77385491338E+02 0.  0.
        254    2    1    2    0    0  0.12401590419E+03  0.32981716448E+03  0.40661160473E+03  0.10453954484E+04  0.89630315179E+03 0.  0.
         23    2    4    4    0    0  0.25414574110E+03 -0.20082998225E+03 -0.30403335388E+02  0.33912370614E+03  0.95696320597E+02 0.  0.
         23    2    4    4    0    0 -0.13012983691E+03  0.53064714672E+03  0.43701494012E+03  0.70627174223E+03  0.96527442792E+02 0.  0.
          1    1    3    3  502    0 -0.11224480326E+03 -0.23405618300E+03 -0.57937486004E+03  0.63486724684E+03  0.00000000000E+00 0. -1.
         -4    1    3    3    0  502 -0.11771100936E+02 -0.95760981473E+02 -0.31781369591E+03  0.33213592051E+03  0.00000000000E+00 0.  1.
         13    1    5    5    0    0  0.25978802901E+03 -0.17968757861E+03 -0.28380067522E+02  0.31714803193E+03  0.00000000000E+00 0. -1.
        -13    1    5    5    0    0 -0.56422879059E+01 -0.21142403638E+02 -0.20232678660E+01  0.21975674216E+02  0.00000000000E+00 0.  1.
          1    1    6    6  503    0 -0.51384303687E+02  0.36021891700E+03  0.32352009649E+03  0.48689143314E+03  0.00000000000E+00 0. -1.
         -1    1    6    6    0  503 -0.78745533222E+02  0.17042822972E+03  0.11349484363E+03  0.21938030909E+03  0.00000000000E+00 0.  1.
<mgrwt>
<rscale>  0 0.19516871E+04</rscale>
<asrwt>0</asrwt>
<pdfrwt beam="1">  1        3 0.19253658E+00 0.19516871E+04</pdfrwt>
<pdfrwt beam="2">  1       -2 0.11706320E+00 0.19516871E+04</pdfrwt>
<totfact> 0.35662658E-01</totfact>
</mgrwt>
</event>
<event>
12    5  0.5041746E-008  0.1722546E+04  0.7818608E-02  0.8748609E-01
         -2   -1    0    0    0  501 -0.00000000000E+00  0.00000000000E+00  0.41840903234E+03  0.41840903234E+03  0.00000000000E+00 0.  1.
          1   -1    0    0  501    0  0.00000000000E+00 -0.00000000000E+00 -0.17728842097E+04  0.17728842097E+04  0.00000000000E+00 0. -1.
        -24    2    1    2    0    0  0.18785136861E+03 -0.19986093136E+03  0.20727370664E+03  0.35157248525E+03  0.73541106548E+02 0.  0.
        254    2    1    2    0    0 -0.18785136861E+03  0.19986093136E+03 -0.15617488840E+04  0.18397207568E+04  0.93288818073E+03 0.  0.
         23    2    4    4    0    0 -0.32273345238E+03 -0.23145691472E+03 -0.32885386910E+03  0.52348877732E+03  0.90368402098E+02 0.  0.
         23    2    4    4    0    0  0.13488208377E+03  0.43131784607E+03 -0.12328950149E+04  0.13162319795E+04  0.90599366293E+02 0.  0.
          3    1    3    3  502    0  0.15746419705E+01 -0.24454716564E+02  0.36461311952E+02  0.43931081581E+02  0.00000000000E+00 0. -1.
         -4    1    3    3    0  502  0.18627672664E+03 -0.17540621479E+03  0.17081239469E+03  0.30764140367E+03  0.00000000000E+00 0.  1.
         13    1    5    5    0    0 -0.13428278588E+02  0.84371682550E+01 -0.12030739621E+02  0.19905857676E+02  0.00000000000E+00 0. -1.
        -13    1    5    5    0    0 -0.30930517379E+03 -0.23989408297E+03 -0.31682312948E+03  0.50358291964E+03  0.00000000000E+00 0.  1.
          4    1    6    6  503    0  0.11234252993E+03  0.36591721957E+03 -0.93309497821E+03  0.10085546559E+04  0.00000000000E+00 0.  1.
         -4    1    6    6    0  503  0.22539553839E+02  0.65400626503E+02 -0.29980003673E+03  0.30767732360E+03  0.00000000000E+00 0. -1.
<mgrwt>
<rscale>  0 0.17225455E+04</rscale>
<asrwt>0</asrwt>
<pdfrwt beam="1">  1        1 0.27275142E+00 0.17225455E+04</pdfrwt>
<pdfrwt beam="2">  1       -2 0.64370619E-01 0.17225455E+04</pdfrwt>
<totfact> 0.79013597E+00</totfact>
</mgrwt>
</event>
<event>
12    5  0.5041746E-008  0.1299874E+04  0.7818608E-02  0.9029665E-01
         -2   -1    0    0    0  501 -0.00000000000E+00  0.00000000000E+00  0.12083735706E+04  0.12083735706E+04  0.00000000000E+00 0.  1.
          1   -1    0    0  501    0  0.00000000000E+00 -0.00000000000E+00 -0.34957567147E+03  0.34957567147E+03  0.00000000000E+00 0. -1.
        -24    2    1    2    0    0  0.29251660746E+03  0.10396597138E+03  0.18104969717E+03  0.36800524232E+03  0.79208438230E+02 0.  0.
        254    2    1    2    0    0 -0.29251660746E+03 -0.10396597138E+03  0.67774820200E+03  0.11899439998E+04  0.92749620401E+03 0.  0.
         23    2    4    4    0    0  0.38289986022E+02 -0.41718161559E+03  0.56798904268E+03  0.71215846348E+03  0.95139377123E+02 0.  0.
         23    2    4    4    0    0 -0.33080659348E+03  0.31321564422E+03  0.10975915932E+03  0.47778553630E+03  0.93246466801E+02 0.  0.
          3    1    3    3  502    0  0.26258122645E+03  0.77157099208E+02  0.12986555335E+03  0.30293098288E+03  0.00000000000E+00 0. -1.
         -2    1    3    3    0  502  0.29935381008E+02  0.26808872171E+02  0.51184143817E+02  0.65074259438E+02  0.00000000000E+00 0.  1.
         13    1    5    5    0    0  0.29974482455E+02 -0.40763432146E+03  0.56764977913E+03  0.69949301739E+03  0.00000000000E+00 0. -1.
        -13    1    5    5    0    0  0.83155035670E+01 -0.95472941325E+01  0.33926354961E+00  0.12665446087E+02  0.00000000000E+00 0.  1.
          1    1    6    6  503    0 -0.31022973551E+03  0.25817730991E+03  0.78286941615E+02  0.41112876009E+03  0.00000000000E+00 0. -1.
         -1    1    6    6    0  503 -0.20576857971E+02  0.55038334309E+02  0.31472217706E+02  0.66656776210E+02  0.00000000000E+00 0.  1.
<mgrwt>
<rscale>  0 0.12998738E+04</rscale>
<asrwt>0</asrwt>
<pdfrwt beam="1">  1        1 0.53780873E-01 0.12998738E+04</pdfrwt>
<pdfrwt beam="2">  1       -2 0.18590363E+00 0.12998738E+04</pdfrwt>
<totfact> 0.10157799E+01</totfact>
</mgrwt>
</event>
<event>
12    5  0.5041746E-008  0.2407413E+04  0.7818608E-02  0.8436733E-01
          1   -1    0    0  501    0  0.00000000000E+00  0.00000000000E+00  0.17139256455E+04  0.17139256455E+04  0.00000000000E+00 0. -1.
         -2   -1    0    0    0  501 -0.00000000000E+00 -0.00000000000E+00 -0.84537479356E+03  0.84537479356E+03  0.00000000000E+00 0.  1.
        -24    2    1    2    0    0  0.31068632098E+03  0.50632873139E+03 -0.53903848868E+03  0.80632621034E+03  0.81882177107E+02 0.  0.
        254    2    1    2    0    0 -0.31068632098E+03 -0.50632873139E+03  0.14075893407E+04  0.17529742288E+04  0.85948596294E+03 0.  0.
         23    2    4    4    0    0 -0.47264405387E+03 -0.32961324056E+02  0.96415900386E+03  0.10781976708E+04  0.91808399093E+02 0.  0.
         23    2    4    4    0    0  0.16195773289E+03 -0.47336740734E+03  0.44343033679E+03  0.67477655791E+03  0.91574723311E+02 0.  0.
          3    1    3    3  502    0  0.98377652541E+02  0.10027543938E+03 -0.14651983116E+03  0.20298124836E+03  0.00000000000E+00 0. -1.
         -4    1    3    3    0  502  0.21230866844E+03  0.40605329201E+03 -0.39251865752E+03  0.60334496198E+03  0.00000000000E+00 0.  1.
         13    1    5    5    0    0 -0.26222749280E+03 -0.29908580030E+02  0.63317428586E+03  0.68597919605E+03  0.00000000000E+00 0.  1.
        -13    1    5    5    0    0 -0.21041656107E+03 -0.30527440258E+01  0.33098471799E+03  0.39221847479E+03  0.00000000000E+00 0. -1.
          3    1    6    6  503    0  0.80038448524E+02 -0.11617277559E+03  0.14332717257E+03  0.20110928727E+03  0.00000000000E+00 0. -1.
         -3    1    6    6    0  503  0.81919284366E+02 -0.35719463175E+03  0.30010316423E+03  0.47366727064E+03  0.00000000000E+00 0.  1.
<mgrwt>
<rscale>  0 0.24074132E+04</rscale>
<asrwt>0</asrwt>
<pdfrwt beam="1">  1        1 0.26368087E+00 0.24074132E+04</pdfrwt>
<pdfrwt beam="2">  1       -2 0.13005766E+00 0.24074132E+04</pdfrwt>
<totfact> 0.15911708E+00</totfact>
</mgrwt>
</event>
<event>
12    5  0.5041746E-008  0.1554722E+04  0.7818608E-02  0.8848857E-01
         -2   -1    0    0    0  501 -0.00000000000E+00  0.00000000000E+00  0.12091791420E+04  0.12091791420E+04  0.00000000000E+00 0.  1.
          1   -1    0    0  501    0  0.00000000000E+00 -0.00000000000E+00 -0.49975262300E+03  0.49975262300E+03  0.00000000000E+00 0. -1.
        -24    2    1    2    0    0  0.45400844731E+02  0.19622388069E+03 -0.30211277878E+03  0.37175365292E+03  0.79772171198E+02 0.  0.
        254    2    1    2    0    0 -0.45400844731E+02 -0.19622388069E+03  0.10115392977E+04  0.13371781120E+04  0.85103966088E+03 0.  0.
         23    2    4    4    0    0  0.56503681021E+02 -0.38813315720E+03  0.10247136867E+04  0.11009841806E+04  0.91038522520E+02 0.  0.
         23    2    4    4    0    0 -0.10190452575E+03  0.19190927651E+03 -0.13174388981E+02  0.23619393140E+03  0.91653182850E+02 0.  0.
          3    1    3    3  502    0  0.54939832485E+02  0.18734315896E+03 -0.30086903108E+03  0.35866142567E+03  0.00000000000E+00 0. -1.
         -4    1    3    3    0  502 -0.95389877535E+01  0.88807217341E+01 -0.12437477007E+01  0.13092227245E+02  0.00000000000E+00 0.  1.
         13    1    5    5    0    0  0.53696767898E+02 -0.31676277971E+03  0.91778223324E+03  0.97239201413E+03  0.00000000000E+00 0. -1.
        -13    1    5    5    0    0  0.28069131231E+01 -0.71370377492E+02  0.10693145347E+03  0.12859216651E+03  0.00000000000E+00 0.  1.
          2    1    6    6  503    0 -0.75383732971E+02  0.87908446224E+02 -0.45008745179E+02  0.12424326644E+03  0.00000000000E+00 0. -1.
         -2    1    6    6    0  503 -0.26520792781E+02  0.10400083028E+03  0.31834356198E+02  0.11195066495E+03  0.00000000000E+00 0.  1.
<mgrwt>
<rscale>  0 0.15547224E+04</rscale>
<asrwt>0</asrwt>
<pdfrwt beam="1">  1        1 0.76885019E-01 0.15547224E+04</pdfrwt>
<pdfrwt beam="2">  1       -2 0.18602756E+00 0.15547224E+04</pdfrwt>
<totfact> 0.61539427E+00</totfact>
</mgrwt>
</event>
<event>
12    5  0.5041746E-008  0.2849546E+04  0.7818608E-02  0.8288049E-01
          1   -1    0    0  501    0  0.00000000000E+00  0.00000000000E+00  0.12176466846E+04  0.12176466846E+04  0.00000000000E+00 0. -1.
         -2   -1    0    0    0  501 -0.00000000000E+00 -0.00000000000E+00 -0.16671320028E+04  0.16671320028E+04  0.00000000000E+00 0.  1.
        -24    2    1    2    0    0 -0.10616572044E+04  0.61327083384E+03  0.13142919506E+03  0.12356552531E+04  0.79706561690E+02 0.  0.
        254    2    1    2    0    0  0.10616572044E+04 -0.61327083384E+03 -0.58091451325E+03  0.16491234344E+04  0.93751229054E+03 0.  0.
         23    2    4    4    0    0  0.11212211482E+04 -0.58195741009E+03 -0.23809022247E+03  0.12887641246E+04  0.91731807242E+02 0.  0.
         23    2    4    4    0    0 -0.59563943882E+02 -0.31313423749E+02 -0.34282429079E+03  0.36035930976E+03  0.88328612925E+02 0.  0.
          1    1    3    3  502    0 -0.85791928708E+03  0.53018678235E+03  0.11370757366E+03  0.10149152377E+04  0.00000000000E+00 0. -1.
         -4    1    3    3    0  502 -0.20373791728E+03  0.83084051488E+02  0.17721621397E+02  0.22074001543E+03  0.00000000000E+00 0.  1.
         13    1    5    5    0    0  0.46047565650E+03 -0.23884622294E+03 -0.14380088855E+03  0.53829735648E+03  0.00000000000E+00 0. -1.
        -13    1    5    5    0    0  0.66074549173E+03 -0.34311118715E+03 -0.94289333924E+02  0.75046676814E+03  0.00000000000E+00 0.  1.
          4    1    6    6  503    0 -0.35198975223E+02  0.18949926762E+02 -0.60173333547E+02  0.72241938313E+02  0.00000000000E+00 0. -1.
         -4    1    6    6    0  503 -0.24364968659E+02 -0.50263350511E+02 -0.28265095724E+03  0.28811737145E+03  0.00000000000E+00 0.  1.
<mgrwt>
<rscale>  0 0.28495458E+04</rscale>
<asrwt>0</asrwt>
<pdfrwt beam="1">  1        1 0.18733026E+00 0.28495458E+04</pdfrwt>
<pdfrwt beam="2">  1       -2 0.25648185E+00 0.28495458E+04</pdfrwt>
<totfact> 0.46017318E-01</totfact>
</mgrwt>
</event>
<event>
12    5  0.5041746E-008  0.1601381E+04  0.7818608E-02  0.8819700E-01
         -2   -1    0    0    0  501 -0.00000000000E+00  0.00000000000E+00  0.44131881398E+03  0.44131881398E+03  0.00000000000E+00 0.  1.
          1   -1    0    0  501    0  0.00000000000E+00 -0.00000000000E+00 -0.14527024574E+04  0.14527024574E+04  0.00000000000E+00 0. -1.
        -24    2    1    2    0    0 -0.12773003465E+03  0.48792699887E+03 -0.11800596933E+03  0.52338550995E+03  0.74961758509E+02 0.  0.
        254    2    1    2    0    0  0.12773003465E+03 -0.48792699887E+03 -0.89337767412E+03  0.13706357615E+04  0.90891749023E+03 0.  0.
         23    2    4    4    0    0 -0.16626800328E+02 -0.15221986307E+03  0.16771310072E+03  0.24449905114E+03  0.90580155956E+02 0.  0.
         23    2    4    4    0    0  0.14435683498E+03 -0.33570713581E+03 -0.10610907748E+04  0.11261367103E+04  0.93445605038E+02 0.  0.
          1    1    3    3  502    0 -0.64224522272E+02  0.29585779140E+03 -0.35160434999E+02  0.30478332990E+03  0.00000000000E+00 0. -1.
         -2    1    3    3    0  502 -0.63505512382E+02  0.19206920747E+03 -0.82845534336E+02  0.21860218005E+03  0.00000000000E+00 0.  1.
         13    1    5    5    0    0 -0.12184421980E+02 -0.20367646215E+02  0.86230817923E+02  0.89437436854E+02  0.00000000000E+00 0. -1.
        -13    1    5    5    0    0 -0.44423783479E+01 -0.13185221685E+03  0.81482282793E+02  0.15506161428E+03  0.00000000000E+00 0.  1.
          4    1    6    6  503    0  0.44636872027E+02 -0.58847703622E+02 -0.32748541957E+03  0.33571148714E+03  0.00000000000E+00 0. -1.
         -4    1    6    6    0  503  0.99719962954E+02 -0.27685943218E+03 -0.73360535526E+03  0.79042522320E+03  0.00000000000E+00 0.  1.
<mgrwt>
<rscale>  0 0.16013806E+04</rscale>
<asrwt>0</asrwt>
<pdfrwt beam="1">  1        1 0.22349268E+00 0.16013806E+04</pdfrwt>
<pdfrwt beam="2">  1       -2 0.67895202E-01 0.16013806E+04</pdfrwt>
<totfact> 0.11802571E+01</totfact>
</mgrwt>
</event>
<event>
12    5  0.5041746E-008  0.1658728E+04  0.7818608E-02  0.8785260E-01
          1   -1    0    0  501    0  0.00000000000E+00  0.00000000000E+00  0.29149075146E+04  0.29149075146E+04  0.00000000000E+00 0. -1.
         -2   -1    0    0    0  501 -0.00000000000E+00 -0.00000000000E+00 -0.23597489219E+03  0.23597489219E+03  0.00000000000E+00 0.  1.
        -24    2    1    2    0    0 -0.51016231076E+03 -0.27043230294E+03  0.95499096454E+03  0.11195590424E+04  0.89473421893E+02 0.  0.
        254    2    1    2    0    0  0.51016231076E+03  0.27043230294E+03  0.17239416579E+04  0.20313233644E+04  0.90603562691E+03 0.  0.
         23    2    4    4    0    0  0.25585466601E+03  0.58400388548E+03  0.86081415342E+03  0.10742211700E+04  0.80174602712E+02 0.  0.
         23    2    4    4    0    0  0.25430764476E+03 -0.31357158254E+03  0.86312750443E+03  0.95710219441E+03  0.89755256558E+02 0.  0.
          1    1    3    3  502    0 -0.37143525690E+03 -0.17769256589E+03  0.60499499798E+03  0.73181810966E+03  0.00000000000E+00 0. -1.
         -2    1    3    3    0  502 -0.13872705387E+03 -0.92739737041E+02  0.34999596655E+03  0.38774093272E+03  0.00000000000E+00 0.  1.
         13    1    5    5    0    0  0.17505739838E+03  0.40489579922E+03  0.65484197537E+03  0.78955918946E+03  0.00000000000E+00 0. -1.
        -13    1    5    5    0    0  0.80797267632E+02  0.17910808626E+03  0.20597217805E+03  0.28466198052E+03  0.00000000000E+00 0.  1.
          4    1    6    6  503    0  0.35125344686E+02 -0.79242378982E+02  0.12355641484E+03  0.15092823498E+03  0.00000000000E+00 0.  1.
         -4    1    6    6    0  503  0.21918230007E+03 -0.23432920356E+03  0.73957108959E+03  0.80617395943E+03  0.00000000000E+00 0. -1.
<mgrwt>
<rscale>  0 0.16587284E+04</rscale>
<asrwt>0</asrwt>
<pdfrwt beam="1">  1        1 0.44844728E+00 0.16587284E+04</pdfrwt>
<pdfrwt beam="2">  1       -2 0.36303832E-01 0.16587284E+04</pdfrwt>
<totfact> 0.41430795E+00</totfact>
</mgrwt>
</event>
<event>
12    5  0.5041746E-008  0.1907260E+04  0.7818608E-02  0.8651251E-01
          1   -1    0    0  501    0  0.00000000000E+00  0.00000000000E+00  0.82406356310E+03  0.82406356310E+03  0.00000000000E+00 0. -1.
         -2   -1    0    0    0  501 -0.00000000000E+00 -0.00000000000E+00 -0.11035682953E+04  0.11035682953E+04  0.00000000000E+00 0.  1.
        -24    2    1    2    0    0 -0.58579894622E+03 -0.93121056693E+02  0.33422250781E+03  0.68573976098E+03  0.81868177381E+02 0.  0.
        254    2    1    2    0    0  0.58579894622E+03  0.93121056693E+02 -0.61372723997E+03  0.12418920974E+04  0.90211025925E+03 0.  0.
         23    2    4    4    0    0  0.13150888741E+03 -0.35068970930E+03 -0.42355565238E+03  0.57252974422E+03  0.90072513420E+02 0.  0.
         23    2    4    4    0    0  0.45429005881E+03  0.44381076600E+03 -0.19017158760E+03  0.66936235316E+03  0.92375719504E+02 0.  0.
          1    1    3    3  502    0 -0.50839563481E+03 -0.85595804897E+02  0.25666480238E+03  0.57590761766E+03  0.00000000000E+00 0. -1.
         -2    1    3    3    0  502 -0.77403311414E+02 -0.75252517960E+01  0.77557705438E+02  0.10983214332E+03  0.00000000000E+00 0.  1.
         13    1    5    5    0    0  0.65362749010E+02 -0.87316350733E+02 -0.83558814006E+02  0.13739908829E+03  0.00000000000E+00 0. -1.
        -13    1    5    5    0    0  0.66146138402E+02 -0.26337335857E+03 -0.33999683837E+03  0.43513065593E+03  0.00000000000E+00 0.  1.
          3    1    6    6  503    0  0.34859182632E+02  0.53221803400E+02  0.52259134504E+01  0.63835986264E+02  0.00000000000E+00 0. -1.
         -3    1    6    6    0  503  0.41943087618E+03  0.39058896260E+03 -0.19539750105E+03  0.60552636690E+03  0.00000000000E+00 0.  1.
<mgrwt>
<rscale>  0 0.19072603E+04</rscale>
<asrwt>0</asrwt>
<pdfrwt beam="1">  1        1 0.12677901E+00 0.19072603E+04</pdfrwt>
<pdfrwt beam="2">  1       -2 0.16977974E+00 0.19072603E+04</pdfrwt>
<totfact> 0.36913881E+00</totfact>
</mgrwt>
</event>
<event>
12    5  0.5041746E-008  0.1664851E+04  0.7818608E-02  0.8781669E-01
          1   -1    0    0  501    0  0.00000000000E+00  0.00000000000E+00  0.10175770497E+04  0.10175770497E+04  0.00000000000E+00 0. -1.
         -2   -1    0    0    0  501 -0.00000000000E+00 -0.00000000000E+00 -0.68096291114E+03  0.68096291114E+03  0.00000000000E+00 0.  1.
        -24    2    1    2    0    0  0.22247215295E+03  0.31879013167E+03 -0.32776688214E+03  0.51466973849E+03  0.79578915600E+02 0.  0.
        254    2    1    2    0    0 -0.22247215295E+03 -0.31879013167E+03  0.66438102075E+03  0.11838702224E+04  0.89945847922E+03 0.  0.
         23    2    4    4    0    0 -0.53151910771E+03 -0.31548605585E+03  0.28791469301E+03  0.68782476177E+03  0.90354962037E+02 0.  0.
         23    2    4    4    0    0  0.30904695476E+03 -0.33040758180E+01  0.37646632775E+03  0.49604546062E+03  0.93878996099E+02 0.  0.
          1    1    3    3  502    0  0.33650137694E+02  0.11120038083E+03 -0.94817036733E+02  0.14996041784E+03  0.00000000000E+00 0. -1.
         -2    1    3    3    0  502  0.18882201526E+03  0.20758975083E+03 -0.23294984541E+03  0.36470932065E+03  0.00000000000E+00 0.  1.
         13    1    5    5    0    0 -0.34872374667E+02  0.20789895316E+01  0.20555535374E+02  0.40533131471E+02  0.00000000000E+00 0. -1.
        -13    1    5    5    0    0 -0.49664673304E+03 -0.31756504538E+03  0.26735915763E+03  0.64729163030E+03  0.00000000000E+00 0.  1.
          4    1    6    6  503    0  0.19160779998E+03  0.20197568846E+02  0.16801748323E+03  0.25563913134E+03  0.00000000000E+00 0. -1.
         -4    1    6    6    0  503  0.11743915478E+03 -0.23501644664E+02  0.20844884451E+03  0.24040632928E+03  0.00000000000E+00 0.  1.
<mgrwt>
<rscale>  0 0.16648510E+04</rscale>
<asrwt>0</asrwt>
<pdfrwt beam="1">  1        1 0.15655032E+00 0.16648510E+04</pdfrwt>
<pdfrwt beam="2">  1       -2 0.10476352E+00 0.16648510E+04</pdfrwt>
<totfact> 0.90662318E+00</totfact>
</mgrwt>
</event>
<event>
12    5  0.5041746E-008  0.1278448E+04  0.7818608E-02  0.9046833E-01
          1   -1    0    0  501    0  0.00000000000E+00  0.00000000000E+00  0.20586505518E+04  0.20586505518E+04  0.00000000000E+00 0. -1.
         -2   -1    0    0    0  501 -0.00000000000E+00 -0.00000000000E+00 -0.19848296809E+03  0.19848296809E+03  0.00000000000E+00 0.  1.
        -24    2    1    2    0    0 -0.17557605647E+03 -0.21739366093E+02  0.93115925905E+03  0.95125961943E+03  0.80856330530E+02 0.  0.
        254    2    1    2    0    0  0.17557605647E+03  0.21739366093E+02  0.92900832467E+03  0.13058739005E+04  0.90052797013E+03 0.  0.
         23    2    4    4    0    0 -0.42844421621E+02 -0.41190102486E+03  0.41761321853E+03  0.59482532325E+03  0.88984639868E+02 0.  0.
         23    2    4    4    0    0  0.21842047809E+03  0.43364039095E+03  0.51139510613E+03  0.71104857722E+03  0.91179113181E+02 0.  0.
          3    1    3    3  502    0 -0.15209605415E+03 -0.11480722551E+01  0.86280478910E+03  0.87610880138E+03  0.00000000000E+00 0. -1.
         -4    1    3    3    0  502 -0.23480002314E+02 -0.20591293838E+02  0.68354469951E+02  0.75150818045E+02  0.00000000000E+00 0.  1.
         13    1    5    5    0    0 -0.12486037426E+02 -0.37547536602E+03  0.36154981497E+03  0.52139804403E+03  0.00000000000E+00 0.  1.
        -13    1    5    5    0    0 -0.30358384195E+02 -0.36425658844E+02  0.56063403570E+02  0.73427279215E+02  0.00000000000E+00 0. -1.
          4    1    6    6  503    0  0.12721870081E+02  0.84720419364E+02  0.12290241240E+03  0.14981454672E+03  0.00000000000E+00 0. -1.
         -4    1    6    6    0  503  0.20569860801E+03  0.34891997159E+03  0.38849269373E+03  0.56123403050E+03  0.00000000000E+00 0.  1.
<mgrwt>
<rscale>  0 0.12784476E+04</rscale>
<asrwt>0</asrwt>
<pdfrwt beam="1">  1        1 0.31671545E+00 0.12784476E+04</pdfrwt>
<pdfrwt beam="2">  1       -2 0.30535843E-01 0.12784476E+04</pdfrwt>
<totfact> 0.23341295E+01</totfact>
</mgrwt>
</event>
<event>
12    5  0.5041746E-008  0.1654262E+04  0.7818608E-02  0.8787889E-01
          3   -1    0    0  501    0  0.00000000000E+00  0.00000000000E+00  0.40459953520E+03  0.40459953520E+03  0.00000000000E+00 0. -1.
         -4   -1    0    0    0  501 -0.00000000000E+00 -0.00000000000E+00 -0.16909210997E+04  0.16909210997E+04  0.00000000000E+00 0.  1.
        -24    2    1    2    0    0 -0.36609660867E+02  0.39183119643E+02 -0.11726143080E+04  0.11764670361E+04  0.78579816627E+02 0.  0.
        254    2    1    2    0    0  0.36609660867E+02 -0.39183119643E+02 -0.11370725645E+03  0.91905359873E+03  0.91041451715E+03 0.  0.
         23    2    4    4    0    0  0.17104565962E+03  0.39992631661E+03 -0.41152301869E+02  0.44617752255E+03  0.90461004231E+02 0.  0.
         23    2    4    4    0    0 -0.13443599875E+03 -0.43910943626E+03 -0.72554954578E+02  0.47287607618E+03  0.86356396507E+02 0.  0.
          3    1    3    3  502    0 -0.22339854983E+02  0.58120859790E+02 -0.57087618149E+03  0.57426188978E+03  0.00000000000E+00 0. -1.
         -2    1    3    3    0  502 -0.14269805884E+02 -0.18937740147E+02 -0.60173812654E+03  0.60220514635E+03  0.00000000000E+00 0.  1.
         13    1    5    5    0    0 -0.49655041391E+01  0.39663067997E+02 -0.19904217300E+02  0.44654149422E+02  0.00000000000E+00 0. -1.
        -13    1    5    5    0    0  0.17601116376E+03  0.36026324862E+03 -0.21248084569E+02  0.40152337313E+03  0.00000000000E+00 0.  1.
          1    1    6    6  503    0 -0.11722898215E+02 -0.17798300928E+03 -0.37059306543E+02  0.18217785304E+03  0.00000000000E+00 0. -1.
         -1    1    6    6    0  503 -0.12271310054E+03 -0.26112642698E+03 -0.35495648035E+02  0.29069822314E+03  0.00000000000E+00 0.  1.
<mgrwt>
<rscale>  0 0.16542622E+04</rscale>
<asrwt>0</asrwt>
<pdfrwt beam="1">  1        3 0.62246081E-01 0.16542622E+04</pdfrwt>
<pdfrwt beam="2">  1       -4 0.26014171E+00 0.16542622E+04</pdfrwt>
<totfact> 0.30008745E-01</totfact>
</mgrwt>
</event>
<event>
12    5  0.5041746E-008  0.2298584E+04  0.7818608E-02  0.8478480E-01
          1   -1    0    0  501    0  0.00000000000E+00  0.00000000000E+00  0.72953259958E+03  0.72953259958E+03  0.00000000000E+00 0. -1.
         -2   -1    0    0    0  501 -0.00000000000E+00 -0.00000000000E+00 -0.18105729012E+04  0.18105729012E+04  0.00000000000E+00 0.  1.
        -24    2    1    2    0    0  0.95617958939E+03 -0.97355415298E+02 -0.30043452229E+03  0.10101618911E+04  0.80054106230E+02 0.  0.
        254    2    1    2    0    0 -0.95617958939E+03  0.97355415298E+02 -0.78060577936E+03  0.15299436097E+04  0.89867935446E+03 0.  0.
         23    2    4    4    0    0 -0.10136934244E+04  0.23684327135E+03 -0.41774435025E+03  0.11256890290E+04  0.94849112560E+02 0.  0.
         23    2    4    4    0    0  0.57513834971E+02 -0.13948785605E+03 -0.36286142911E+03  0.40425458070E+03  0.94808470489E+02 0.  0.
          1    1    3    3  502    0  0.64340306347E+03 -0.88601495010E+02 -0.17147858810E+03  0.67173107206E+03  0.00000000000E+00 0. -1.
         -2    1    3    3    0  502  0.31277652593E+03 -0.87539202878E+01 -0.12895593419E+03  0.33843081901E+03  0.00000000000E+00 0.  1.
         13    1    5    5    0    0 -0.73537316295E+03  0.17358710020E+03 -0.25685744517E+03  0.79804881886E+03  0.00000000000E+00 0.  1.
        -13    1    5    5    0    0 -0.27832026142E+03  0.63256171147E+02 -0.16088690507E+03  0.32764021018E+03  0.00000000000E+00 0. -1.
          1    1    6    6  503    0  0.21481723468E+02  0.10420929571E+02 -0.43393849220E+02  0.49528641879E+02  0.00000000000E+00 0. -1.
         -1    1    6    6    0  503  0.36032111503E+02 -0.14990878562E+03 -0.31946757989E+03  0.35472593882E+03  0.00000000000E+00 0.  1.
<mgrwt>
<rscale>  0 0.22985839E+04</rscale>
<asrwt>0</asrwt>
<pdfrwt beam="1">  1        1 0.11223578E+00 0.22985839E+04</pdfrwt>
<pdfrwt beam="2">  1       -2 0.27854968E+00 0.22985839E+04</pdfrwt>
<totfact> 0.87076622E-01</totfact>
</mgrwt>
</event>
<event>
12    5  0.5041746E-008  0.1157885E+04  0.7818608E-02  0.9150540E-01
          1   -1    0    0  501    0  0.00000000000E+00  0.00000000000E+00  0.76338334271E+03  0.76338334271E+03  0.00000000000E+00 0. -1.
         -2   -1    0    0    0  501 -0.00000000000E+00 -0.00000000000E+00 -0.43906406222E+03  0.43906406222E+03  0.00000000000E+00 0.  1.
        -24    2    1    2    0    0  0.78628658924E+02 -0.11706272174E+02 -0.13750603781E+03  0.17684946999E+03  0.77770957244E+02 0.  0.
        254    2    1    2    0    0 -0.78628658924E+02  0.11706272174E+02  0.46182531830E+03  0.10255979349E+04  0.91227682022E+03 0.  0.
         23    2    4    4    0    0 -0.69142758801E+02 -0.69158422746E+02  0.72379139738E+03  0.73632728060E+03  0.93489404206E+02 0.  0.
         23    2    4    4    0    0 -0.94859001229E+01  0.80864694920E+02 -0.26196607908E+03  0.28927065433E+03  0.91772564971E+02 0.  0.
          1    1    3    3  502    0  0.41204277409E+02 -0.42391465477E+02 -0.97667543288E+02  0.11416557202E+03  0.00000000000E+00 0. -1.
         -2    1    3    3    0  502  0.37424381515E+02  0.30685193303E+02 -0.39838494521E+02  0.62683897976E+02  0.00000000000E+00 0.  1.
         13    1    5    5    0    0 -0.87412834359E+02 -0.64340614805E+02  0.49515215278E+03  0.50690864338E+03  0.00000000000E+00 0. -1.
        -13    1    5    5    0    0  0.18270075558E+02 -0.48178079411E+01  0.22863924460E+03  0.22941863722E+03  0.00000000000E+00 0.  1.
          2    1    6    6  503    0  0.12421631693E+02  0.95241654414E+02 -0.21525602206E+03  0.23571258919E+03  0.00000000000E+00 0. -1.
         -2    1    6    6    0  503 -0.21907531816E+02 -0.14376959494E+02 -0.46710057020E+02  0.53558065138E+02  0.00000000000E+00 0.  1.
<mgrwt>
<rscale>  0 0.11578846E+04</rscale>
<asrwt>0</asrwt>
<pdfrwt beam="1">  1        1 0.11744359E+00 0.11578846E+04</pdfrwt>
<pdfrwt beam="2">  1       -2 0.67548317E-01 0.11578846E+04</pdfrwt>
<totfact> 0.41627315E+01</totfact>
</mgrwt>
</event>
<event>
12    5  0.5041746E-008  0.1507525E+04  0.7818608E-02  0.8879464E-01
          1   -1    0    0  501    0  0.00000000000E+00  0.00000000000E+00  0.13216895699E+04  0.13216895699E+04  0.00000000000E+00 0. -1.
         -2   -1    0    0    0  501 -0.00000000000E+00 -0.00000000000E+00 -0.42987269987E+03  0.42987269987E+03  0.00000000000E+00 0.  1.
        -24    2    1    2    0    0 -0.30902574493E+03  0.26388668361E+03  0.58582806844E+03  0.71739708899E+03  0.79567359553E+02 0.  0.
        254    2    1    2    0    0  0.30902574493E+03 -0.26388668361E+03  0.30598880161E+03  0.10341651808E+04  0.90040845268E+03 0.  0.
         23    2    4    4    0    0  0.36080171265E+03 -0.28331702494E+03 -0.20592858006E+03  0.51126391597E+03  0.92400212200E+02 0.  0.
         23    2    4    4    0    0 -0.51775967719E+02  0.19430341328E+02  0.51191738167E+03  0.52290126483E+03  0.91148439961E+02 0.  0.
          3    1    3    3  502    0 -0.29776402260E+03  0.23593447778E+03  0.51116395221E+03  0.63688074001E+03  0.00000000000E+00 0. -1.
         -4    1    3    3    0  502 -0.11261722331E+02  0.27952205832E+02  0.74664116231E+02  0.80516348982E+02  0.00000000000E+00 0.  1.
         13    1    5    5    0    0  0.30959713992E+03 -0.23212625314E+03 -0.13478441915E+03  0.40975581275E+03  0.00000000000E+00 0.  1.
        -13    1    5    5    0    0  0.51204572735E+02 -0.51190771800E+02 -0.71144160913E+02  0.10150810322E+03  0.00000000000E+00 0. -1.
          3    1    6    6  503    0 -0.43164096396E+02  0.24531674068E+01  0.83208981426E+02  0.93770420912E+02  0.00000000000E+00 0. -1.
         -3    1    6    6    0  503 -0.86118713231E+01  0.16977173921E+02  0.42870840024E+03  0.42913084392E+03  0.00000000000E+00 0.  1.
<mgrwt>
<rscale>  0 0.15075255E+04</rscale>
<asrwt>0</asrwt>
<pdfrwt beam="1">  1        1 0.20333685E+00 0.15075255E+04</pdfrwt>
<pdfrwt beam="2">  1       -2 0.66134262E-01 0.15075255E+04</pdfrwt>
<totfact> 0.15569033E+01</totfact>
</mgrwt>
</event>
<event>
12    5  0.5041746E-008  0.2562786E+04  0.7818608E-02  0.8380953E-01
         -2   -1    0    0    0  501 -0.00000000000E+00  0.00000000000E+00  0.15379888678E+04  0.15379888678E+04  0.00000000000E+00 0.  1.
          1   -1    0    0  501    0  0.00000000000E+00 -0.00000000000E+00 -0.10676072676E+04  0.10676072676E+04  0.00000000000E+00 0. -1.
        -24    2    1    2    0    0 -0.32090986049E+03 -0.10374836810E+04 -0.76259306886E+02  0.10915442483E+04  0.79358912876E+02 0.  0.
        254    2    1    2    0    0  0.32090986049E+03  0.10374836810E+04  0.54664090704E+03  0.15140518871E+04  0.90231995906E+03 0.  0.
         23    2    4    4    0    0  0.45442691813E+03  0.10215893357E+04  0.67411181815E+03  0.13085607766E+04  0.88067973912E+02 0.  0.
         23    2    4    4    0    0 -0.13351705764E+03  0.15894345341E+02 -0.12747091111E+03  0.20549111044E+03  0.88872540171E+02 0.  0.
          3    1    3    3  502    0 -0.31146896475E+03 -0.94410319726E+03 -0.81870185372E+02  0.99752017039E+03  0.00000000000E+00 0. -1.
         -4    1    3    3    0  502 -0.94408957390E+01 -0.93380483784E+02  0.56108784861E+01  0.94024077882E+02  0.00000000000E+00 0.  1.
         13    1    5    5    0    0  0.44466912149E+03  0.99159534725E+03  0.63627141981E+03  0.12592987255E+04  0.00000000000E+00 0. -1.
        -13    1    5    5    0    0  0.97577966437E+01  0.29993988460E+02  0.37840398346E+02  0.49262051176E+02  0.00000000000E+00 0.  1.
          1    1    6    6  503    0 -0.13115681368E+03 -0.13351763812E+02 -0.10442497249E+03  0.16818131362E+03  0.00000000000E+00 0. -1.
         -1    1    6    6    0  503 -0.23602439644E+01  0.29246109153E+02 -0.23045938621E+02  0.37309796824E+02  0.00000000000E+00 0.  1.
<mgrwt>
<rscale>  0 0.25627861E+04</rscale>
<asrwt>0</asrwt>
<pdfrwt beam="1">  1        1 0.16424727E+00 0.25627861E+04</pdfrwt>
<pdfrwt beam="2">  1       -2 0.23661367E+00 0.25627861E+04</pdfrwt>
<totfact> 0.80848046E-01</totfact>
</mgrwt>
</event>
<event>
12    5  0.5041746E-008  0.1152446E+04  0.7818608E-02  0.9155530E-01
          3   -1    0    0  501    0  0.00000000000E+00  0.00000000000E+00  0.64882873724E+03  0.64882873724E+03  0.00000000000E+00 0. -1.
         -4   -1    0    0    0  501 -0.00000000000E+00 -0.00000000000E+00 -0.51174241003E+03  0.51174241003E+03  0.00000000000E+00 0.  1.
        -24    2    1    2    0    0 -0.11428161379E+03 -0.67832448154E+02 -0.14089508224E+03  0.20926961586E+03  0.79251622392E+02 0.  0.
        254    2    1    2    0    0  0.11428161379E+03  0.67832448154E+02  0.27798140945E+03  0.95130153140E+03  0.90002189495E+03 0.  0.
         23    2    4    4    0    0 -0.16750107190E+03 -0.30488839071E+03 -0.64747560936E+02  0.36474295717E+03  0.88496543888E+02 0.  0.
         23    2    4    4    0    0  0.28178268569E+03  0.37272083886E+03  0.34272897038E+03  0.58655857424E+03  0.90914840335E+02 0.  0.
          1    1    3    3  502    0 -0.44184818558E+02  0.14028349103E+02 -0.34124773708E+02  0.57563816327E+02  0.00000000000E+00 0. -1.
         -2    1    3    3    0  502 -0.70096795232E+02 -0.81860797257E+02 -0.10677030853E+03  0.15170579954E+03  0.00000000000E+00 0.  1.
         13    1    5    5    0    0 -0.43018158108E+02 -0.60154914690E+02  0.21373218483E+02  0.76980453082E+02  0.00000000000E+00 0. -1.
        -13    1    5    5    0    0 -0.12448291379E+03 -0.24473347602E+03 -0.86120779418E+02  0.28776250409E+03  0.00000000000E+00 0.  1.
          2    1    6    6  503    0  0.22317635939E+03  0.23314010683E+03  0.20847679067E+03  0.38421942826E+03  0.00000000000E+00 0. -1.
         -2    1    6    6    0  503  0.58606326297E+02  0.13958073203E+03  0.13425217971E+03  0.20233914597E+03  0.00000000000E+00 0.  1.
<mgrwt>
<rscale>  0 0.11524464E+04</rscale>
<asrwt>0</asrwt>
<pdfrwt beam="1">  1        3 0.99819805E-01 0.11524464E+04</pdfrwt>
<pdfrwt beam="2">  1       -4 0.78729602E-01 0.11524464E+04</pdfrwt>
<totfact> 0.28615428E+00</totfact>
</mgrwt>
</event>
<event>
12    5  0.5041746E-008  0.1684223E+04  0.7818608E-02  0.8770414E-01
          1   -1    0    0  501    0  0.00000000000E+00  0.00000000000E+00  0.11864672616E+04  0.11864672616E+04  0.00000000000E+00 0. -1.
         -2   -1    0    0    0  501 -0.00000000000E+00 -0.00000000000E+00 -0.59769998865E+03  0.59769998865E+03  0.00000000000E+00 0.  1.
        -24    2    1    2    0    0  0.16688041990E+03  0.49963674318E+03 -0.85265710905E+02  0.53957014549E+03  0.79873342006E+02 0.  0.
        254    2    1    2    0    0 -0.16688041990E+03 -0.49963674318E+03  0.67403298389E+03  0.12445971048E+04  0.90399974569E+03 0.  0.
         23    2    4    4    0    0  0.12843569850E+03 -0.47709493545E+03  0.77073905491E+03  0.91940821163E+03  0.84601789306E+02 0.  0.
         23    2    4    4    0    0 -0.29531611841E+03 -0.22541807727E+02 -0.96706071025E+02  0.32518889317E+03  0.93145097448E+02 0.  0.
          3    1    3    3  502    0  0.80167420330E+02  0.14686932944E+03 -0.49781821336E+02  0.17457274973E+03  0.00000000000E+00 0. -1.
         -4    1    3    3    0  502  0.86712999575E+02  0.35276741374E+03 -0.35483889569E+02  0.36499739576E+03  0.00000000000E+00 0.  1.
         13    1    5    5    0    0  0.25668825376E+02 -0.25447707970E+03  0.40964231607E+03  0.48293301793E+03  0.00000000000E+00 0. -1.
        -13    1    5    5    0    0  0.10276687313E+03 -0.22261785575E+03  0.36109673884E+03  0.43647519370E+03  0.00000000000E+00 0.  1.
          2    1    6    6  503    0 -0.23709573777E+01 -0.41566818338E+01 -0.21719304174E+02  0.22240225191E+02  0.00000000000E+00 0. -1.
         -2    1    6    6    0  503 -0.29294516103E+03 -0.18385125893E+02 -0.74986766851E+02  0.30294866797E+03  0.00000000000E+00 0.  1.
<mgrwt>
<rscale>  0 0.16842226E+04</rscale>
<asrwt>0</asrwt>
<pdfrwt beam="1">  1        1 0.18253342E+00 0.16842226E+04</pdfrwt>
<pdfrwt beam="2">  1       -2 0.91953845E-01 0.16842226E+04</pdfrwt>
<totfact> 0.91876504E+00</totfact>
</mgrwt>
</event>
<event>
12    5  0.5041746E-008  0.1562069E+04  0.7818608E-02  0.8844195E-01
         -2   -1    0    0    0  501 -0.00000000000E+00  0.00000000000E+00  0.17806321152E+03  0.17806321152E+03  0.00000000000E+00 0.  1.
          1   -1    0    0  501    0  0.00000000000E+00 -0.00000000000E+00 -0.34258329712E+04  0.34258329712E+04  0.00000000000E+00 0. -1.
        -24    2    1    2    0    0  0.36815993043E+02 -0.49797411666E+03 -0.12215936727E+04  0.13222356151E+04  0.81745229693E+02 0.  0.
        254    2    1    2    0    0 -0.36815993043E+02  0.49797411666E+03 -0.20261760870E+04  0.22816605676E+04  0.92263306463E+03 0.  0.
         23    2    4    4    0    0 -0.40521973888E+03  0.29887916335E+03 -0.15896269704E+04  0.16699453113E+04  0.90948592652E+02 0.  0.
         23    2    4    4    0    0  0.36840374584E+03  0.19909495331E+03 -0.43654911655E+03  0.61171525629E+03  0.90886210347E+02 0.  0.
          1    1    3    3  502    0  0.83846332833E+01 -0.11405357825E+03 -0.37866881013E+03  0.39556110597E+03  0.00000000000E+00 0. -1.
         -2    1    3    3    0  502  0.28431359759E+02 -0.38392053841E+03 -0.84292486257E+03  0.92667450918E+03  0.00000000000E+00 0.  1.
         13    1    5    5    0    0 -0.39392502924E+03  0.26653991326E+03 -0.15132984393E+04  0.15862826420E+04  0.00000000000E+00 0. -1.
        -13    1    5    5    0    0 -0.11294709635E+02  0.32339250088E+02 -0.76328531114E+02  0.83662669238E+02  0.00000000000E+00 0.  1.
          1    1    6    6  503    0  0.28695334228E+03  0.18050441460E+03 -0.38740436811E+03  0.51478753750E+03  0.00000000000E+00 0. -1.
         -1    1    6    6    0  503  0.81450403562E+02  0.18590538704E+02 -0.49144748443E+02  0.96927718787E+02  0.00000000000E+00 0.  1.
<mgrwt>
<rscale>  0 0.15620689E+04</rscale>
<asrwt>0</asrwt>
<pdfrwt beam="1">  1        1 0.52705123E+00 0.15620689E+04</pdfrwt>
<pdfrwt beam="2">  1       -2 0.27394340E-01 0.15620689E+04</pdfrwt>
<totfact> 0.29589541E+00</totfact>
</mgrwt>
</event>
<event>
12    5  0.5041746E-008  0.1748866E+04  0.7818608E-02  0.8733975E-01
         -2   -1    0    0    0  501 -0.00000000000E+00  0.00000000000E+00  0.45499898151E+04  0.45499898151E+04  0.00000000000E+00 0.  1.
          1   -1    0    0  501    0  0.00000000000E+00 -0.00000000000E+00 -0.16805164219E+03  0.16805164219E+03  0.00000000000E+00 0. -1.
        -24    2    1    2    0    0 -0.28368407335E+03  0.57545848776E+03  0.15810766452E+04  0.17081586684E+04  0.79834539660E+02 0.  0.
        254    2    1    2    0    0  0.28368407335E+03 -0.57545848776E+03  0.28008615277E+04  0.30098827890E+04  0.89606918320E+03 0.  0.
         23    2    4    4    0    0  0.58239929438E+03 -0.26278031266E+03  0.18966547961E+04  0.20033153918E+04  0.87924472284E+02 0.  0.
         23    2    4    4    0    0 -0.29871522103E+03 -0.31267817510E+03  0.90420673164E+03  0.10065673971E+04  0.92680563928E+02 0.  0.
          1    1    3    3  502    0 -0.71917347358E+02  0.18406740028E+03  0.40327508989E+03  0.44909209614E+03  0.00000000000E+00 0. -1.
         -2    1    3    3    0  502 -0.21176672600E+03  0.39139108748E+03  0.11778015553E+04  0.12590665722E+04  0.00000000000E+00 0.  1.
         13    1    5    5    0    0  0.41769057316E+02 -0.44511319284E+02  0.21278533625E+03  0.22136736665E+03  0.00000000000E+00 0. -1.
        -13    1    5    5    0    0  0.54063023706E+03 -0.21826899338E+03  0.16838694599E+04  0.17819480252E+04  0.00000000000E+00 0.  1.
          4    1    6    6  503    0 -0.10309939666E+03 -0.71908574698E+02  0.34331908636E+03  0.36560678846E+03  0.00000000000E+00 0. -1.
         -4    1    6    6    0  503 -0.19561582436E+03 -0.24076960040E+03  0.56088764527E+03  0.64096060865E+03  0.00000000000E+00 0.  1.
<mgrwt>
<rscale>  0 0.17488662E+04</rscale>
<asrwt>0</asrwt>
<pdfrwt beam="1">  1        1 0.25854102E-01 0.17488662E+04</pdfrwt>
<pdfrwt beam="2">  1       -2 0.69999834E+00 0.17488662E+04</pdfrwt>
<totfact> 0.34992585E-02</totfact>
</mgrwt>
</event>
<event>
12    5  0.5041746E-008  0.1984950E+04  0.7818608E-02  0.8613690E-01
          3   -1    0    0  501    0  0.00000000000E+00  0.00000000000E+00  0.27745559265E+04  0.27745559265E+04  0.00000000000E+00 0. -1.
         -4   -1    0    0    0  501 -0.00000000000E+00 -0.00000000000E+00 -0.35501410648E+03  0.35501410648E+03  0.00000000000E+00 0.  1.
        -24    2    1    2    0    0  0.64406189142E+03 -0.21790059985E+03  0.15979499096E+04  0.17386630188E+04  0.84904581800E+02 0.  0.
        254    2    1    2    0    0 -0.64406189142E+03  0.21790059985E+03  0.82159191043E+03  0.13909070142E+04  0.89292366045E+03 0.  0.
         23    2    4    4    0    0 -0.61908433942E+03 -0.19970064766E+03  0.66567351944E+03  0.93528236472E+03  0.92120026462E+02 0.  0.
         23    2    4    4    0    0 -0.24977551991E+02  0.41760124751E+03  0.15591839098E+03  0.45562464944E+03  0.90931823388E+02 0.  0.
          1    1    3    3  502    0  0.43973342006E+03 -0.15484103672E+03  0.99194089796E+03  0.10960328336E+04  0.00000000000E+00 0. -1.
         -2    1    3    3    0  502  0.20432847135E+03 -0.63059563132E+02  0.60600901162E+03  0.64263018516E+03  0.00000000000E+00 0.  1.
         13    1    5    5    0    0 -0.33810442167E+03 -0.61252347849E+02  0.33852098895E+03  0.48235143830E+03  0.00000000000E+00 0. -1.
        -13    1    5    5    0    0 -0.28097991776E+03 -0.13844829981E+03  0.32715253049E+03  0.45293092642E+03  0.00000000000E+00 0.  1.
          1    1    6    6  503    0 -0.14012692557E+02  0.27657327411E+03  0.56246312323E+02  0.28258234048E+03  0.00000000000E+00 0. -1.
         -1    1    6    6    0  503 -0.10964859434E+02  0.14102797341E+03  0.99672078661E+02  0.17304230896E+03  0.00000000000E+00 0.  1.
<mgrwt>
<rscale>  0 0.19849499E+04</rscale>
<asrwt>0</asrwt>
<pdfrwt beam="1">  1        3 0.42685474E+00 0.19849499E+04</pdfrwt>
<pdfrwt beam="2">  1       -4 0.54617557E-01 0.19849499E+04</pdfrwt>
<totfact> 0.55161083E-02</totfact>
</mgrwt>
</event>
<event>
12    5  0.5041746E-008  0.1426491E+04  0.7818608E-02  0.8934863E-01
         -2   -1    0    0    0  501 -0.00000000000E+00  0.00000000000E+00  0.29590145685E+03  0.29590145685E+03  0.00000000000E+00 0.  1.
          1   -1    0    0  501    0  0.00000000000E+00 -0.00000000000E+00 -0.17192185198E+04  0.17192185198E+04  0.00000000000E+00 0. -1.
        -24    2    1    2    0    0 -0.12672744519E+03 -0.26104079424E+03 -0.81827892910E+03  0.87171403097E+03  0.78120447794E+02 0.  0.
        254    2    1    2    0    0  0.12672744519E+03  0.26104079424E+03 -0.60503813385E+03  0.11434059457E+04  0.92579904492E+03 0.  0.
         23    2    4    4    0    0 -0.24671927483E+03  0.21684088581E+03  0.85670414797E+02  0.35172920268E+03  0.92106686589E+02 0.  0.
         23    2    4    4    0    0  0.37344672002E+03  0.44199908421E+02 -0.69070854864E+03  0.79167674299E+03  0.90871786705E+02 0.  0.
          3    1    3    3  502    0 -0.16980991993E+02 -0.32557534396E+02 -0.20257383687E+03  0.20587497789E+03  0.00000000000E+00 0. -1.
         -4    1    3    3    0  502 -0.10974645319E+03 -0.22848325984E+03 -0.61570509223E+03  0.66583905308E+03  0.00000000000E+00 0.  1.
         13    1    5    5    0    0 -0.22646900566E+03  0.22287176875E+03  0.89826375447E+02  0.33019511437E+03  0.00000000000E+00 0. -1.
        -13    1    5    5    0    0 -0.20250269172E+02 -0.60308829325E+01 -0.41559606501E+01  0.21534088312E+02  0.00000000000E+00 0.  1.
          1    1    6    6  503    0  0.37412458239E+03  0.53157537747E+02 -0.67557134581E+03  0.77407465418E+03  0.00000000000E+00 0. -1.
         -1    1    6    6    0  503 -0.67786237690E+00 -0.89576293261E+01 -0.15137202836E+02  0.17602088803E+02  0.00000000000E+00 0.  1.
<mgrwt>
<rscale>  0 0.14264912E+04</rscale>
<asrwt>0</asrwt>
<pdfrwt beam="1">  1        1 0.26449516E+00 0.14264912E+04</pdfrwt>
<pdfrwt beam="2">  1       -2 0.45523301E-01 0.14264912E+04</pdfrwt>
<totfact> 0.18073961E+01</totfact>
</mgrwt>
</event>
<event>
12    5  0.5041746E-008  0.1223100E+04  0.7818608E-02  0.9092874E-01
          3   -1    0    0  501    0  0.00000000000E+00  0.00000000000E+00  0.19013595769E+03  0.19013595769E+03  0.00000000000E+00 0. -1.
         -4   -1    0    0    0  501 -0.00000000000E+00 -0.00000000000E+00 -0.19669785539E+04  0.19669785539E+04  0.00000000000E+00 0.  1.
        -24    2    1    2    0    0 -0.14824465089E+03 -0.10728343322E+03 -0.50974993578E+02  0.20476864540E+03  0.76456109028E+02 0.  0.
        254    2    1    2    0    0  0.14824465089E+03  0.10728343322E+03 -0.17258676026E+04  0.19523458662E+04  0.89417514383E+03 0.  0.
         23    2    4    4    0    0  0.50942234688E+03  0.14258019794E+03 -0.93957996900E+03  0.10823335286E+04  0.93782240376E+02 0.  0.
         23    2    4    4    0    0 -0.36117769599E+03 -0.35296764718E+02 -0.78628763364E+03  0.87001233761E+03  0.83534634099E+02 0.  0.
          1    1    3    3  502    0 -0.13283795253E+03 -0.10982830205E+03 -0.24585541977E+02  0.17410521657E+03  0.00000000000E+00 0. -1.
         -2    1    3    3    0  502 -0.15406698361E+02  0.25448688284E+01 -0.26389451600E+02  0.30663428828E+02  0.00000000000E+00 0.  1.
         13    1    5    5    0    0  0.14677437701E+03  0.67538919295E+02 -0.35924859474E+03  0.39390833476E+03  0.00000000000E+00 0.  1.
        -13    1    5    5    0    0  0.36264796987E+03  0.75041278647E+02 -0.58033137425E+03  0.68842519383E+03  0.00000000000E+00 0. -1.
          1    1    6    6  503    0 -0.35322391373E+03 -0.19388394764E+02 -0.75967955849E+03  0.83800720443E+03  0.00000000000E+00 0. -1.
         -1    1    6    6    0  503 -0.79537822626E+01 -0.15908369954E+02 -0.26608075151E+02  0.32005133184E+02  0.00000000000E+00 0.  1.
<mgrwt>
<rscale>  0 0.12230999E+04</rscale>
<asrwt>0</asrwt>
<pdfrwt beam="1">  1        3 0.29251685E-01 0.12230999E+04</pdfrwt>
<pdfrwt beam="2">  1       -4 0.30261209E+00 0.12230999E+04</pdfrwt>
<totfact> 0.77140566E-01</totfact>
</mgrwt>
</event>
<event>
12    5  0.5041746E-008  0.1337188E+04  0.7818608E-02  0.9000584E-01
         -2   -1    0    0    0  501 -0.00000000000E+00  0.00000000000E+00  0.35827596707E+03  0.35827596707E+03  0.00000000000E+00 0.  1.
          1   -1    0    0  501    0  0.00000000000E+00 -0.00000000000E+00 -0.12476907975E+04  0.12476907975E+04  0.00000000000E+00 0. -1.
        -24    2    1    2    0    0 -0.25054624210E+03  0.24195578051E+03 -0.13266751112E+03  0.38145010720E+03  0.81163394605E+02 0.  0.
        254    2    1    2    0    0  0.25054624210E+03 -0.24195578051E+03 -0.75674731932E+03  0.12245166574E+04  0.89747340894E+03 0.  0.
         23    2    4    4    0    0 -0.66227797128E+02 -0.31101085629E+03 -0.81836194513E+03  0.88255352604E+03  0.89836402677E+02 0.  0.
         23    2    4    4    0    0  0.31677403923E+03  0.69055075789E+02  0.61614625806E+02  0.34196313134E+03  0.89599250340E+02 0.  0.
          1    1    3    3  502    0 -0.13986662329E+03  0.15684284590E+03 -0.40127202956E+02  0.21394518699E+03  0.00000000000E+00 0. -1.
         -2    1    3    3    0  502 -0.11067961881E+03  0.85112934603E+02 -0.92540308168E+02  0.16750492020E+03  0.00000000000E+00 0.  1.
         13    1    5    5    0    0  0.16433584801E+02 -0.11518587234E+03 -0.25012750978E+03  0.27586521899E+03  0.00000000000E+00 0.  1.
        -13    1    5    5    0    0 -0.82661381929E+02 -0.19582498395E+03 -0.56823443535E+03  0.60668830706E+03  0.00000000000E+00 0. -1.
          2    1    6    6  503    0  0.22816746728E+03  0.77342688126E+01  0.48710296982E+02  0.23343715443E+03  0.00000000000E+00 0. -1.
         -2    1    6    6    0  503  0.88606571950E+02  0.61320806976E+02  0.12904328824E+02  0.10852597691E+03  0.00000000000E+00 0.  1.
<mgrwt>
<rscale>  0 0.13371875E+04</rscale>
<asrwt>0</asrwt>
<pdfrwt beam="1">  1        1 0.19195243E+00 0.13371875E+04</pdfrwt>
<pdfrwt beam="2">  1       -2 0.55119380E-01 0.13371875E+04</pdfrwt>
<totfact> 0.26236380E+01</totfact>
</mgrwt>
</event>
<event>
12    5  0.5041746E-008  0.3350521E+04  0.7818608E-02  0.8150158E-01
          1   -1    0    0  501    0  0.00000000000E+00  0.00000000000E+00  0.17157822901E+04  0.17157822901E+04  0.00000000000E+00 0. -1.
         -2   -1    0    0    0  501 -0.00000000000E+00 -0.00000000000E+00 -0.16356954218E+04  0.16356954218E+04  0.00000000000E+00 0.  1.
        -24    2    1    2    0    0  0.61376190438E+03 -0.48122843599E+03  0.13789271264E+04  0.15869882259E+04  0.93846292048E+02 0.  0.
        254    2    1    2    0    0 -0.61376190438E+03  0.48122843599E+03 -0.12988402581E+04  0.17644894861E+04  0.90451790892E+03 0.  0.
         23    2    4    4    0    0  0.16253993361E+03 -0.53881017171E+02 -0.59736671577E+02  0.20488046646E+03  0.95316009018E+02 0.  0.
         23    2    4    4    0    0 -0.77630183799E+03  0.53510945316E+03 -0.12391035865E+04  0.15596090196E+04  0.89531700696E+02 0.  0.
          1    1    3    3  502    0  0.60402941474E+03 -0.47483246782E+03  0.13742340524E+04  0.15744321634E+04  0.00000000000E+00 0. -1.
         -2    1    3    3    0  502  0.97324896372E+01 -0.63959681730E+01  0.46930739998E+01  0.12556062559E+02  0.00000000000E+00 0.  1.
         13    1    5    5    0    0  0.77494305813E+01  0.20983419071E+02 -0.15877068215E+02  0.27430618756E+02  0.00000000000E+00 0.  1.
        -13    1    5    5    0    0  0.15479050303E+03 -0.74864436242E+02 -0.43859603363E+02  0.17744984770E+03  0.00000000000E+00 0. -1.
          1    1    6    6  503    0 -0.23229044546E+03  0.20994277321E+03 -0.42540059614E+03  0.52820496616E+03  0.00000000000E+00 0. -1.
         -1    1    6    6    0  503 -0.54401139253E+03  0.32516667995E+03 -0.81370299035E+03  0.10314040534E+04  0.00000000000E+00 0.  1.
<mgrwt>
<rscale>  0 0.33505207E+04</rscale>
<asrwt>0</asrwt>
<pdfrwt beam="1">  1        1 0.26396651E+00 0.33505207E+04</pdfrwt>
<pdfrwt beam="2">  1       -2 0.25164545E+00 0.33505207E+04</pdfrwt>
<totfact> 0.21189008E-01</totfact>
</mgrwt>
</event>
<event>
12    5  0.5041746E-008  0.1329815E+04  0.7818608E-02  0.9006250E-01
         -2   -1    0    0    0  501 -0.00000000000E+00  0.00000000000E+00  0.48972761214E+03  0.48972761214E+03  0.00000000000E+00 0.  1.
          1   -1    0    0  501    0  0.00000000000E+00 -0.00000000000E+00 -0.90275072433E+03  0.90275072433E+03  0.00000000000E+00 0. -1.
        -24    2    1    2    0    0  0.83265235609E+02  0.87130247650E+02  0.23600742090E+03  0.27619671552E+03  0.77848207621E+02 0.  0.
        254    2    1    2    0    0 -0.83265235609E+02 -0.87130247650E+02 -0.64903053309E+03  0.11162816209E+04  0.90017734079E+03 0.  0.
         23    2    4    4    0    0  0.30299558897E+03  0.23616584601E+03 -0.30336979273E+03  0.49850241610E+03  0.94291006770E+02 0.  0.
         23    2    4    4    0    0 -0.38626082458E+03 -0.32329609366E+03 -0.34566074036E+03  0.61777920485E+03  0.91934812422E+02 0.  0.
          3    1    3    3  502    0  0.16576585802E+02 -0.13228399241E+02  0.52968155812E+02  0.57056106364E+02  0.00000000000E+00 0. -1.
         -4    1    3    3    0  502  0.66688649807E+02  0.10035864689E+03  0.18303926509E+03  0.21914060916E+03  0.00000000000E+00 0.  1.
         13    1    5    5    0    0  0.11347611837E+03  0.88546719294E+02 -0.17345163619E+03  0.22539481147E+03  0.00000000000E+00 0. -1.
        -13    1    5    5    0    0  0.18951947061E+03  0.14761912672E+03 -0.12991815654E+03  0.27310760463E+03  0.00000000000E+00 0.  1.
          4    1    6    6  503    0 -0.75710045992E+02 -0.25918015911E+02 -0.75236217952E+02  0.10983734840E+03  0.00000000000E+00 0.  1.
         -4    1    6    6    0  503 -0.31055077859E+03 -0.29737807775E+03 -0.27042452241E+03  0.50794185644E+03  0.00000000000E+00 0. -1.
<mgrwt>
<rscale>  0 0.13298150E+04</rscale>
<asrwt>0</asrwt>
<pdfrwt beam="1">  1        1 0.13888472E+00 0.13298150E+04</pdfrwt>
<pdfrwt beam="2">  1       -2 0.75342711E-01 0.13298150E+04</pdfrwt>
<totfact> 0.24588349E+01</totfact>
</mgrwt>
</event>
<event>
12    5  0.5041746E-008  0.1594009E+04  0.7818608E-02  0.8824237E-01
         -2   -1    0    0    0  501 -0.00000000000E+00  0.00000000000E+00  0.23955870726E+03  0.23955870726E+03  0.00000000000E+00 0.  1.
          1   -1    0    0  501    0  0.00000000000E+00 -0.00000000000E+00 -0.26516099978E+04  0.26516099978E+04  0.00000000000E+00 0. -1.
        -24    2    1    2    0    0 -0.24258008918E+03 -0.14095120469E+03 -0.16606674970E+04  0.16860729153E+04  0.79454377123E+02 0.  0.
        254    2    1    2    0    0  0.24258008918E+03  0.14095120469E+03 -0.75138379349E+03  0.12050957898E+04  0.89942532524E+03 0.  0.
         23    2    4    4    0    0 -0.29637948491E+03 -0.12074894036E+03 -0.23185118795E+03  0.40629246191E+03  0.94326483955E+02 0.  0.
         23    2    4    4    0    0  0.53895957409E+03  0.26170014505E+03 -0.51953260554E+03  0.79880332788E+03  0.95959574778E+02 0.  0.
          3    1    3    3  502    0 -0.10103795291E+03 -0.27558907653E+02 -0.45898589039E+03  0.47078254948E+03  0.00000000000E+00 0. -1.
         -4    1    3    3    0  502 -0.14154213626E+03 -0.11339229704E+03 -0.12016816067E+04  0.12152903658E+04  0.00000000000E+00 0.  1.
         13    1    5    5    0    0 -0.30139791151E+03 -0.11068107527E+03 -0.22984244873E+03  0.39486523362E+03  0.00000000000E+00 0. -1.
        -13    1    5    5    0    0  0.50184265993E+01 -0.10067865093E+02 -0.20087392216E+01  0.11427228287E+02  0.00000000000E+00 0.  1.
          3    1    6    6  503    0  0.52734878864E+03  0.23900221575E+03 -0.48159761143E+03  0.75309698137E+03  0.00000000000E+00 0. -1.
         -3    1    6    6    0  503  0.11610785449E+02  0.22697929298E+02 -0.37934994106E+02  0.45706346506E+02  0.00000000000E+00 0.  1.
<mgrwt>
<rscale>  0 0.15940091E+04</rscale>
<asrwt>0</asrwt>
<pdfrwt beam="1">  1        1 0.40793997E+00 0.15940091E+04</pdfrwt>
<pdfrwt beam="2">  1       -2 0.36855188E-01 0.15940091E+04</pdfrwt>
<totfact> 0.62247257E+00</totfact>
</mgrwt>
</event>
<event>
12    5  0.5041746E-008  0.1847858E+04  0.7818608E-02  0.8681255E-01
          1   -1    0    0  501    0  0.00000000000E+00  0.00000000000E+00  0.14555838829E+04  0.14555838829E+04  0.00000000000E+00 0. -1.
         -2   -1    0    0    0  501 -0.00000000000E+00 -0.00000000000E+00 -0.58646199582E+03  0.58646199582E+03  0.00000000000E+00 0.  1.
        -24    2    1    2    0    0 -0.15330004638E+03 -0.31035273496E+03 -0.35228544343E+03  0.50031945347E+03  0.79967478079E+02 0.  0.
        254    2    1    2    0    0  0.15330004638E+03  0.31035273496E+03  0.12214073305E+04  0.15417264252E+04  0.87479413518E+03 0.  0.
         23    2    4    4    0    0  0.27174307738E+03  0.74269825138E+02  0.79521389009E+01  0.29617670528E+03  0.91088403258E+02 0.  0.
         23    2    4    4    0    0 -0.11844303100E+03  0.23608290982E+03  0.12134551916E+04  0.12455497200E+04  0.95690704565E+02 0.  0.
          1    1    3    3  502    0  0.34562527634E+01 -0.18850630422E+02 -0.34856916268E+01  0.19479270946E+02  0.00000000000E+00 0. -1.
         -2    1    3    3    0  502 -0.15675629914E+03 -0.29150210453E+03 -0.34879975181E+03  0.48084018252E+03  0.00000000000E+00 0.  1.
         13    1    5    5    0    0  0.13808653620E+03  0.70098354250E+02  0.37263304775E+02  0.15928033347E+03  0.00000000000E+00 0.  1.
        -13    1    5    5    0    0  0.13365654118E+03  0.41714708880E+01 -0.29311165874E+02  0.13689637181E+03  0.00000000000E+00 0. -1.
          1    1    6    6  503    0  0.12935648499E+02  0.30810750617E+02  0.91017876928E+02  0.96958172818E+02  0.00000000000E+00 0. -1.
         -1    1    6    6    0  503 -0.13137867950E+03  0.20527215920E+03  0.11224373147E+04  0.11485915471E+04  0.00000000000E+00 0.  1.
<mgrwt>
<rscale>  0 0.18478578E+04</rscale>
<asrwt>0</asrwt>
<pdfrwt beam="1">  1        1 0.22393598E+00 0.18478578E+04</pdfrwt>
<pdfrwt beam="2">  1       -2 0.90224923E-01 0.18478578E+04</pdfrwt>
<totfact> 0.60866838E+00</totfact>
</mgrwt>
</event>
<event>
12    5  0.5041746E-008  0.1878768E+04  0.7818608E-02  0.8665498E-01
         -2   -1    0    0    0  501 -0.00000000000E+00  0.00000000000E+00  0.20333476330E+04  0.20333476330E+04  0.00000000000E+00 0.  1.
          1   -1    0    0  501    0  0.00000000000E+00 -0.00000000000E+00 -0.43398508217E+03  0.43398508217E+03  0.00000000000E+00 0. -1.
        -24    2    1    2    0    0 -0.17515362862E+03  0.55499800446E+03  0.11737008661E+04  0.13128382613E+04  0.85258423734E+02 0.  0.
        254    2    1    2    0    0  0.17515362862E+03 -0.55499800446E+03  0.42566168479E+03  0.11544944539E+04  0.90164737874E+03 0.  0.
         23    2    4    4    0    0  0.16248615930E+03 -0.78145448961E+03  0.21833412218E+03  0.83231340130E+03  0.89459140327E+02 0.  0.
         23    2    4    4    0    0  0.12667469318E+02  0.22645648516E+03  0.20732756261E+03  0.32218105258E+03  0.96813779881E+02 0.  0.
          1    1    3    3  502    0 -0.52037127252E+02  0.22655893070E+03  0.38634021080E+03  0.45088310034E+03  0.00000000000E+00 0. -1.
         -2    1    3    3    0  502 -0.12311650137E+03  0.32843907375E+03  0.78736065527E+03  0.86195516098E+03  0.00000000000E+00 0.  1.
         13    1    5    5    0    0 -0.64271573225E+01 -0.11791372217E+03  0.23182808794E+02  0.12034283050E+03  0.00000000000E+00 0.  1.
        -13    1    5    5    0    0  0.16891331662E+03 -0.66354076744E+03  0.19515131338E+03  0.71197057081E+03  0.00000000000E+00 0. -1.
          3    1    6    6  503    0 -0.16454690357E+01  0.23023330065E+03  0.18482565941E+03  0.29524668444E+03  0.00000000000E+00 0. -1.
         -3    1    6    6    0  503  0.14312938353E+02 -0.37768154900E+01  0.22501903202E+02  0.26934368143E+02  0.00000000000E+00 0.  1.
<mgrwt>
<rscale>  0 0.18787683E+04</rscale>
<asrwt>0</asrwt>
<pdfrwt beam="1">  1        1 0.66766937E-01 0.18787683E+04</pdfrwt>
<pdfrwt beam="2">  1       -2 0.31282271E+00 0.18787683E+04</pdfrwt>
<totfact> 0.11714286E+00</totfact>
</mgrwt>
</event>
<event>
12    5  0.8385119E-008  0.1604495E+04  0.7818608E-02  0.8817791E-01
          1   -1    0    0  501    0  0.00000000000E+00  0.00000000000E+00  0.17883328319E+04  0.17883328319E+04  0.00000000000E+00 0. -1.
         -2   -1    0    0    0  501 -0.00000000000E+00 -0.00000000000E+00 -0.35988891352E+03  0.35988891352E+03  0.00000000000E+00 0.  1.
        -24    2    1    2    0    0  0.41433381113E+03  0.84470099484E+02  0.30249887241E+02  0.43218003514E+03  0.84004894752E+02 0.  0.
        254    2    1    2    0    0 -0.41433381113E+03 -0.84470099484E+02  0.13981940312E+04  0.17160417103E+04  0.90058031178E+03 0.  0.
         23    2    4    4    0    0 -0.33086111209E+03 -0.70160371392E+02  0.15100468579E+04  0.15501769979E+04  0.91736898344E+02 0.  0.
         23    2    4    4    0    0 -0.83472699043E+02 -0.14309728092E+02 -0.11185282675E+03  0.16586471240E+03  0.88473658011E+02 0.  0.
          1    1    3    3  502    0  0.23546141839E+02  0.19816401593E+02 -0.13627444691E+02  0.33657359023E+02  0.00000000000E+00 0. -1.
         -2    1    3    3    0  502  0.39078766929E+03  0.64653697891E+02  0.43877331933E+02  0.39852267611E+03  0.00000000000E+00 0.  1.
         13    1    5    5    0    0 -0.29732973062E+03 -0.41125519415E+02  0.13938327164E+04  0.14257860703E+04  0.00000000000E+00 0. -1.
        -13    1    5    5    0    0 -0.33531381467E+02 -0.29034851977E+02  0.11621414151E+03  0.12439092756E+03  0.00000000000E+00 0.  1.
          3    1    6    6  503    0 -0.50317659884E+02  0.72003897126E+01 -0.11548529185E+03  0.12617672187E+03  0.00000000000E+00 0. -1.
         -3    1    6    6    0  503 -0.33155039160E+02 -0.21510117804E+02  0.36324650927E+01  0.39687990530E+02  0.00000000000E+00 0.  1.
<mgrwt>
<rscale>  0 0.16044951E+04</rscale>
<asrwt>0</asrwt>
<pdfrwt beam="1">  1        1 0.27512812E+00 0.16044951E+04</pdfrwt>
<pdfrwt beam="2">  1       -2 0.55367527E-01 0.16044951E+04</pdfrwt>
<totfact> 0.10712475E+01</totfact>
</mgrwt>
</event>
<event>
12    5  0.5041746E-008  0.4195890E+04  0.7818608E-02  0.7966155E-01
         -2   -1    0    0    0  501 -0.00000000000E+00  0.00000000000E+00  0.19190565369E+04  0.19190565369E+04  0.00000000000E+00 0.  1.
          1   -1    0    0  501    0  0.00000000000E+00 -0.00000000000E+00 -0.22935086216E+04  0.22935086216E+04  0.00000000000E+00 0. -1.
        -24    2    1    2    0    0  0.16060933653E+04  0.29923011783E+03  0.97091492540E+03  0.19019507921E+04  0.75275902708E+02 0.  0.
        254    2    1    2    0    0 -0.16060933653E+04 -0.29923011783E+03 -0.13453670101E+04  0.23106143664E+04  0.92728194022E+03 0.  0.
         23    2    4    4    0    0 -0.63059543655E+03 -0.10329687232E+03 -0.13808301541E+02  0.64587754971E+03  0.92985437520E+02 0.  0.
         23    2    4    4    0    0 -0.97549792876E+03 -0.19593324551E+03 -0.13315587086E+04  0.16647368167E+04  0.91181295645E+02 0.  0.
          3    1    3    3  502    0  0.10816783116E+02  0.43748070756E+01  0.14876196672E+02  0.18906161994E+02  0.00000000000E+00 0. -1.
         -4    1    3    3    0  502  0.15952765822E+04  0.29485531076E+03  0.95603872873E+03  0.18830446301E+04  0.00000000000E+00 0.  1.
         13    1    5    5    0    0 -0.40629894336E+03 -0.94529247133E+02 -0.43678424628E+02  0.41943106074E+03  0.00000000000E+00 0.  1.
        -13    1    5    5    0    0 -0.22429649320E+03 -0.87676251869E+01  0.29870123086E+02  0.22644648897E+03  0.00000000000E+00 0. -1.
          4    1    6    6  503    0 -0.41312079035E+03 -0.12248330451E+03 -0.53638799754E+03  0.68802836512E+03  0.00000000000E+00 0. -1.
         -4    1    6    6    0  503 -0.56237713842E+03 -0.73449941002E+02 -0.79517071103E+03  0.97670845155E+03  0.00000000000E+00 0.  1.
<mgrwt>
<rscale>  0 0.41958898E+04</rscale>
<asrwt>0</asrwt>
<pdfrwt beam="1">  1        1 0.35284748E+00 0.41958898E+04</pdfrwt>
<pdfrwt beam="2">  1       -2 0.29523947E+00 0.41958898E+04</pdfrwt>
<totfact> 0.43288212E-02</totfact>
</mgrwt>
</event>
<event>
12    5  0.5041746E-008  0.2542931E+04  0.7818608E-02  0.8387849E-01
         -2   -1    0    0    0  501 -0.00000000000E+00  0.00000000000E+00  0.58292189232E+03  0.58292189232E+03  0.00000000000E+00 0.  1.
          1   -1    0    0  501    0  0.00000000000E+00 -0.00000000000E+00 -0.27733131531E+04  0.27733131531E+04  0.00000000000E+00 0. -1.
        -24    2    1    2    0    0 -0.19717552080E+03 -0.15453997480E+03  0.46762566269E+03  0.53649846603E+03  0.79975332654E+02 0.  0.
        254    2    1    2    0    0  0.19717552080E+03  0.15453997480E+03 -0.26580169235E+04  0.28197365794E+04  0.90724837939E+03 0.  0.
         23    2    4    4    0    0  0.75983164751E+02 -0.36698180695E+03 -0.13421539985E+04  0.13961894616E+04  0.86709682887E+02 0.  0.
         23    2    4    4    0    0  0.12119235605E+03  0.52152178175E+03 -0.13158629249E+04  0.14235471177E+04  0.91206376966E+02 0.  0.
          1    1    3    3  502    0 -0.34794269272E+02 -0.57822293246E+02  0.75910273600E+02  0.10156982036E+03  0.00000000000E+00 0. -1.
         -2    1    3    3    0  502 -0.16238125153E+03 -0.96717681551E+02  0.39171538909E+03  0.43492864567E+03  0.00000000000E+00 0.  1.
         13    1    5    5    0    0  0.12171554985E+02 -0.19793373334E+02 -0.33562919833E+02  0.40821489027E+02  0.00000000000E+00 0. -1.
        -13    1    5    5    0    0  0.63811609766E+02 -0.34718843361E+03 -0.13085910787E+04  0.13553679726E+04  0.00000000000E+00 0.  1.
          2    1    6    6  503    0  0.30643205632E+02  0.32786870806E+03 -0.78785211808E+03  0.85390154921E+03  0.00000000000E+00 0. -1.
         -2    1    6    6    0  503  0.90549150419E+02  0.19365307368E+03 -0.52801080686E+03  0.56964556853E+03  0.00000000000E+00 0.  1.
<mgrwt>
<rscale>  0 0.25429313E+04</rscale>
<asrwt>0</asrwt>
<pdfrwt beam="1">  1        1 0.42666355E+00 0.25429313E+04</pdfrwt>
<pdfrwt beam="2">  1       -2 0.89680293E-01 0.25429313E+04</pdfrwt>
<totfact> 0.72189134E-01</totfact>
</mgrwt>
</event>
<event>
12    5  0.5041746E-008  0.2950846E+04  0.7818608E-02  0.8257908E-01
          3   -1    0    0  501    0  0.00000000000E+00  0.00000000000E+00  0.19875574589E+04  0.19875574589E+04  0.00000000000E+00 0. -1.
         -4   -1    0    0    0  501 -0.00000000000E+00 -0.00000000000E+00 -0.10952506199E+04  0.10952506199E+04  0.00000000000E+00 0.  1.
        -24    2    1    2    0    0  0.44499845517E+03 -0.11196583152E+04 -0.19845494861E+03  0.12233888571E+04  0.75083694283E+02 0.  0.
        254    2    1    2    0    0 -0.44499845517E+03  0.11196583152E+04  0.10907617876E+04  0.18594192216E+04  0.90333836214E+03 0.  0.
         23    2    4    4    0    0 -0.12014103834E+03  0.11231017800E+04  0.99562701829E+03  0.15084115328E+04  0.90778385947E+02 0.  0.
         23    2    4    4    0    0 -0.32485741683E+03 -0.34434647807E+01  0.95134769332E+02  0.35100768885E+03  0.92798569926E+02 0.  0.
          3    1    3    3  502    0  0.21818159628E+03 -0.63655900806E+03 -0.91870258269E+02  0.67915441841E+03  0.00000000000E+00 0. -1.
         -4    1    3    3    0  502  0.22681685889E+03 -0.48309930714E+03 -0.10658469034E+03  0.54423443869E+03  0.00000000000E+00 0.  1.
         13    1    5    5    0    0 -0.13199983622E+03  0.10698575989E+04  0.93635163382E+03  0.14278563026E+04  0.00000000000E+00 0.  1.
        -13    1    5    5    0    0  0.11858797877E+02  0.53244181125E+02  0.59275384474E+02  0.80555230217E+02  0.00000000000E+00 0. -1.
          3    1    6    6  503    0 -0.90742859786E+02  0.39484482382E+02  0.39648235173E+02  0.10660803677E+03  0.00000000000E+00 0. -1.
         -3    1    6    6    0  503 -0.23411455704E+03 -0.42927947162E+02  0.55486534160E+02  0.24439965209E+03  0.00000000000E+00 0.  1.
<mgrwt>
<rscale>  0 0.29508463E+04</rscale>
<asrwt>0</asrwt>
<pdfrwt beam="1">  1        3 0.30577807E+00 0.29508463E+04</pdfrwt>
<pdfrwt beam="2">  1       -4 0.16850010E+00 0.29508463E+04</pdfrwt>
<totfact> 0.15248213E-02</totfact>
</mgrwt>
</event>
<event>
12    5  0.5041746E-008  0.1871451E+04  0.7818608E-02  0.8669199E-01
         -2   -1    0    0    0  501 -0.00000000000E+00  0.00000000000E+00  0.41290865516E+03  0.41290865516E+03  0.00000000000E+00 0.  1.
          1   -1    0    0  501    0  0.00000000000E+00 -0.00000000000E+00 -0.21205225263E+04  0.21205225263E+04  0.00000000000E+00 0. -1.
        -24    2    1    2    0    0 -0.32564399930E+03  0.60519386825E+03 -0.40445776965E+03  0.80129045051E+03  0.78591769242E+02 0.  0.
        254    2    1    2    0    0  0.32564399930E+03 -0.60519386825E+03 -0.13031561015E+04  0.17321407310E+04  0.91092922587E+03 0.  0.
         23    2    4    4    0    0  0.48760777421E+03 -0.49078947225E+03 -0.13401992569E+04  0.15110413204E+04  0.92066151406E+02 0.  0.
         23    2    4    4    0    0 -0.16196377491E+03 -0.11440439600E+03  0.37043155452E+02  0.22109941052E+03  0.90510351667E+02 0.  0.
          1    1    3    3  502    0 -0.20306929739E+03  0.34334911897E+03 -0.27502755660E+03  0.48452648424E+03  0.00000000000E+00 0. -1.
         -2    1    3    3    0  502 -0.12257470191E+03  0.26184474928E+03 -0.12943021305E+03  0.31676396627E+03  0.00000000000E+00 0.  1.
         13    1    5    5    0    0  0.43214770182E+03 -0.40453022922E+03 -0.11910830438E+04  0.13300658479E+04  0.00000000000E+00 0. -1.
        -13    1    5    5    0    0  0.55460072383E+02 -0.86259243024E+02 -0.14911621313E+03  0.18097547252E+03  0.00000000000E+00 0.  1.
          4    1    6    6  503    0 -0.23328749597E+02 -0.51218850237E+02 -0.18025328556E+02  0.59097492730E+02  0.00000000000E+00 0.  1.
         -4    1    6    6    0  503 -0.13863502531E+03 -0.63185545766E+02  0.55068484009E+02  0.16200191779E+03  0.00000000000E+00 0. -1.
<mgrwt>
<rscale>  0 0.18714509E+04</rscale>
<asrwt>0</asrwt>
<pdfrwt beam="1">  1        1 0.32623424E+00 0.18714509E+04</pdfrwt>
<pdfrwt beam="2">  1       -2 0.63524407E-01 0.18714509E+04</pdfrwt>
<totfact> 0.46625636E+00</totfact>
</mgrwt>
</event>
<event>
12    5  0.5041746E-008  0.1322536E+04  0.7818608E-02  0.9011882E-01
         -2   -1    0    0    0  501 -0.00000000000E+00  0.00000000000E+00  0.12374985485E+04  0.12374985485E+04  0.00000000000E+00 0.  1.
          1   -1    0    0  501    0  0.00000000000E+00 -0.00000000000E+00 -0.35335446998E+03  0.35335446998E+03  0.00000000000E+00 0. -1.
        -24    2    1    2    0    0  0.27243578864E+03  0.20169950525E+03  0.13478376074E+03  0.37330450236E+03  0.79282028056E+02 0.  0.
        254    2    1    2    0    0 -0.27243578864E+03 -0.20169950525E+03  0.74936031774E+03  0.12175485161E+04  0.89776364031E+03 0.  0.
         23    2    4    4    0    0  0.18207961080E+03 -0.39594609524E+03  0.25869851195E+03  0.51503227784E+03  0.91689869288E+02 0.  0.
         23    2    4    4    0    0 -0.45451539944E+03  0.19424658998E+03  0.49066180579E+03  0.70251623824E+03  0.92000387366E+02 0.  0.
          3    1    3    3  502    0  0.16078502132E+03  0.13963848606E+03  0.46356563589E+02  0.21794416913E+03  0.00000000000E+00 0. -1.
         -4    1    3    3    0  502  0.11165076732E+03  0.62061019200E+02  0.88427197147E+02  0.15536033323E+03  0.00000000000E+00 0.  1.
         13    1    5    5    0    0  0.18838391088E+03 -0.39597787272E+03  0.25777689376E+03  0.50866088951E+03  0.00000000000E+00 0.  1.
        -13    1    5    5    0    0 -0.63043000715E+01  0.31777481521E-01  0.92161818913E+00  0.63713883327E+01  0.00000000000E+00 0. -1.
          3    1    6    6  503    0 -0.45260906452E+03  0.19312315219E+03  0.49479063803E+03  0.69783185130E+03  0.00000000000E+00 0.  1.
         -3    1    6    6    0  503 -0.19063349196E+01  0.11234377957E+01 -0.41288322438E+01  0.46843869400E+01  0.00000000000E+00 0. -1.
<mgrwt>
<rscale>  0 0.13225364E+04</rscale>
<asrwt>0</asrwt>
<pdfrwt beam="1">  1        1 0.54362227E-01 0.13225364E+04</pdfrwt>
<pdfrwt beam="2">  1       -2 0.19038439E+00 0.13225364E+04</pdfrwt>
<totfact> 0.93262194E+00</totfact>
</mgrwt>
</event>
<event>
12    5  0.5041746E-008  0.1999654E+04  0.7818608E-02  0.8606782E-01
          1   -1    0    0  501    0  0.00000000000E+00  0.00000000000E+00  0.59636817297E+03  0.59636817297E+03  0.00000000000E+00 0. -1.
         -2   -1    0    0    0  501 -0.00000000000E+00 -0.00000000000E+00 -0.16762369999E+04  0.16762369999E+04  0.00000000000E+00 0.  1.
        -24    2    1    2    0    0  0.11978265643E+03  0.77318572830E+03 -0.59665352084E+03  0.98752623035E+03  0.83955800700E+02 0.  0.
        254    2    1    2    0    0 -0.11978265643E+03 -0.77318572830E+03 -0.48321530610E+03  0.12850789425E+04  0.89764514217E+03 0.  0.
         23    2    4    4    0    0 -0.49024369792E+03 -0.32476756657E+03 -0.17493402840E+03  0.62034121678E+03  0.91697629734E+02 0.  0.
         23    2    4    4    0    0  0.37046104149E+03 -0.44841816173E+03 -0.30828127769E+03  0.66473772574E+03  0.92296624117E+02 0.  0.
          3    1    3    3  502    0  0.68303679568E+02  0.55858392801E+03 -0.46912559994E+03  0.73263921939E+03  0.00000000000E+00 0. -1.
         -4    1    3    3    0  502  0.51478976863E+02  0.21460180028E+03 -0.12752792091E+03  0.25488701096E+03  0.00000000000E+00 0.  1.
         13    1    5    5    0    0 -0.24458333635E+03 -0.21584083176E+03 -0.10459294874E+03  0.34256088218E+03  0.00000000000E+00 0. -1.
        -13    1    5    5    0    0 -0.24566036157E+03 -0.10892673481E+03 -0.70341079661E+02  0.27778033460E+03  0.00000000000E+00 0.  1.
          2    1    6    6  503    0  0.32490069756E+03 -0.33798302614E+03 -0.25800073465E+03  0.53512369440E+03  0.00000000000E+00 0. -1.
         -2    1    6    6    0  503  0.45560343928E+02 -0.11043513559E+03 -0.50280543047E+02  0.12961403134E+03  0.00000000000E+00 0.  1.
<mgrwt>
<rscale>  0 0.19996544E+04</rscale>
<asrwt>0</asrwt>
<pdfrwt beam="1">  1        1 0.91748950E-01 0.19996544E+04</pdfrwt>
<pdfrwt beam="2">  1       -2 0.25788261E+00 0.19996544E+04</pdfrwt>
<totfact> 0.16133529E+00</totfact>
</mgrwt>
</event>
<event>
12    5  0.5041746E-008  0.2012261E+04  0.7818608E-02  0.8600910E-01
         -2   -1    0    0    0  501 -0.00000000000E+00  0.00000000000E+00  0.40813879700E+03  0.40813879700E+03  0.00000000000E+00 0.  1.
          1   -1    0    0  501    0  0.00000000000E+00 -0.00000000000E+00 -0.24802802452E+04  0.24802802452E+04  0.00000000000E+00 0. -1.
        -24    2    1    2    0    0  0.17704259860E+03  0.42512833331E+03  0.10506303650E+03  0.47899420903E+03  0.79492321297E+02 0.  0.
        254    2    1    2    0    0 -0.17704259860E+03 -0.42512833331E+03 -0.21772044847E+04  0.24094248332E+04  0.92359649038E+03 0.  0.
         23    2    4    4    0    0 -0.61656886362E+02  0.22120970730E+03 -0.18357897357E+03  0.30853806210E+03  0.93590544322E+02 0.  0.
         23    2    4    4    0    0 -0.11538571223E+03 -0.64633804062E+03 -0.19936255112E+04  0.21008867711E+04  0.90087851162E+02 0.  0.
          3    1    3    3  502    0  0.14989572557E+03  0.30930757043E+03  0.47979311218E+02  0.34704742612E+03  0.00000000000E+00 0. -1.
         -4    1    3    3    0  502  0.27146873023E+02  0.11582076288E+03  0.57083725277E+02  0.13194678292E+03  0.00000000000E+00 0.  1.
         13    1    5    5    0    0 -0.65753801569E+02  0.69883500608E+02 -0.60491156988E+02  0.11343035816E+03  0.00000000000E+00 0. -1.
        -13    1    5    5    0    0  0.40969152068E+01  0.15132620670E+03 -0.12308781658E+03  0.19510770394E+03  0.00000000000E+00 0.  1.
          4    1    6    6  503    0  0.19596298184E+00 -0.20388457360E+03 -0.68227456438E+03  0.71208674960E+03  0.00000000000E+00 0. -1.
         -4    1    6    6    0  503 -0.11558167522E+03 -0.44245346701E+03 -0.13113509468E+04  0.13888000215E+04  0.00000000000E+00 0.  1.
<mgrwt>
<rscale>  0 0.20122610E+04</rscale>
<asrwt>0</asrwt>
<pdfrwt beam="1">  1        1 0.38158158E+00 0.20122610E+04</pdfrwt>
<pdfrwt beam="2">  1       -2 0.62790584E-01 0.20122610E+04</pdfrwt>
<totfact> 0.26771810E+00</totfact>
</mgrwt>
</event>
<event>
12    5  0.5041746E-008  0.1514522E+04  0.7818608E-02  0.8874853E-01
          1   -1    0    0  501    0  0.00000000000E+00  0.00000000000E+00  0.55423541283E+03  0.55423541283E+03  0.00000000000E+00 0. -1.
         -2   -1    0    0    0  501 -0.00000000000E+00 -0.00000000000E+00 -0.10346578693E+04  0.10346578693E+04  0.00000000000E+00 0.  1.
        -24    2    1    2    0    0  0.21742459460E+03 -0.19643382794E+03  0.25443113416E+03  0.39625866114E+03  0.80162468752E+02 0.  0.
        254    2    1    2    0    0 -0.21742459460E+03  0.19643382794E+03 -0.73485359060E+03  0.11926346210E+04  0.89247287711E+03 0.  0.
         23    2    4    4    0    0  0.16761693284E+03  0.25423831953E+03  0.40176826005E+02  0.32003335890E+03  0.89858856924E+02 0.  0.
         23    2    4    4    0    0 -0.38504152745E+03 -0.57804491593E+02 -0.77503041661E+03  0.87260126205E+03  0.95720837626E+02 0.  0.
          1    1    3    3  502    0  0.17885903583E+03 -0.19102063516E+03  0.23889405143E+03  0.35433007996E+03  0.00000000000E+00 0. -1.
         -2    1    3    3    0  502  0.38565558777E+02 -0.54131927768E+01  0.15537082737E+02  0.41928581180E+02  0.00000000000E+00 0.  1.
         13    1    5    5    0    0  0.64096239323E+02  0.14941187241E+03  0.55780445679E+02  0.17188279039E+03  0.00000000000E+00 0. -1.
        -13    1    5    5    0    0  0.10352069352E+03  0.10482644713E+03 -0.15603619674E+02  0.14815056852E+03  0.00000000000E+00 0.  1.
          1    1    6    6  503    0 -0.37124534030E+03 -0.48857276037E+02 -0.76857278168E+03  0.85493523548E+03  0.00000000000E+00 0. -1.
         -1    1    6    6    0  503 -0.13796187149E+02 -0.89472155559E+01 -0.64576349244E+01  0.17666026573E+02  0.00000000000E+00 0.  1.
<mgrwt>
<rscale>  0 0.15145217E+04</rscale>
<asrwt>0</asrwt>
<pdfrwt beam="1">  1        1 0.85266987E-01 0.15145217E+04</pdfrwt>
<pdfrwt beam="2">  1       -2 0.15917813E+00 0.15145217E+04</pdfrwt>
<totfact> 0.82790633E+00</totfact>
</mgrwt>
</event>
<event>
12    5  0.5041746E-008  0.1704869E+04  0.7818608E-02  0.8758592E-01
          1   -1    0    0  501    0  0.00000000000E+00  0.00000000000E+00  0.25071922884E+04  0.25071922884E+04  0.00000000000E+00 0. -1.
         -2   -1    0    0    0  501 -0.00000000000E+00 -0.00000000000E+00 -0.28982393845E+03  0.28982393845E+03  0.00000000000E+00 0.  1.
        -24    2    1    2    0    0  0.11520753898E+03  0.78225693125E+02  0.17542184014E+04  0.17615202547E+04  0.79242486916E+02 0.  0.
        254    2    1    2    0    0 -0.11520753898E+03 -0.78225693125E+02  0.46314994849E+03  0.10354959721E+04  0.91561563845E+03 0.  0.
         23    2    4    4    0    0  0.37156335159E+03  0.10408612511E+03  0.16404028309E+03  0.42904880035E+03  0.90996774198E+02 0.  0.
         23    2    4    4    0    0 -0.48677089058E+03 -0.18231181824E+03  0.29910966540E+03  0.60644717177E+03  0.90155871856E+02 0.  0.
          1    1    3    3  502    0  0.12519315602E+03  0.76064087224E+02  0.17032549647E+04  0.17095427887E+04  0.00000000000E+00 0. -1.
         -2    1    3    3    0  502 -0.99856170366E+01  0.21616059008E+01  0.50963436740E+02  0.51977466002E+02  0.00000000000E+00 0.  1.
         13    1    5    5    0    0  0.22334284472E+03  0.86428734859E+02  0.14129299608E+03  0.27805694243E+03  0.00000000000E+00 0. -1.
        -13    1    5    5    0    0  0.14822050688E+03  0.17657390252E+02  0.22747287015E+02  0.15099185791E+03  0.00000000000E+00 0.  1.
          3    1    6    6  503    0 -0.13815635073E+03 -0.89307636983E+02  0.68252467379E+02  0.17810511103E+03  0.00000000000E+00 0. -1.
         -3    1    6    6    0  503 -0.34861453985E+03 -0.93004181252E+02  0.23085719802E+03  0.42834206074E+03  0.00000000000E+00 0.  1.
<mgrwt>
<rscale>  0 0.17048687E+04</rscale>
<asrwt>0</asrwt>
<pdfrwt beam="1">  1        1 0.38572187E+00 0.17048687E+04</pdfrwt>
<pdfrwt beam="2">  1       -2 0.44588300E-01 0.17048687E+04</pdfrwt>
<totfact> 0.53447842E+00</totfact>
</mgrwt>
</event>
<event>
12    5  0.5041746E-008  0.1021690E+04  0.7818608E-02  0.9285070E-01
          1   -1    0    0  501    0  0.00000000000E+00  0.00000000000E+00  0.15161513037E+04  0.15161513037E+04  0.00000000000E+00 0. -1.
         -2   -1    0    0    0  501 -0.00000000000E+00 -0.00000000000E+00 -0.17212171799E+03  0.17212171799E+03  0.00000000000E+00 0.  1.
        -24    2    1    2    0    0 -0.68484388012E+02  0.43358800938E+02  0.19298486932E+03  0.22351733387E+03  0.78401159006E+02 0.  0.
        254    2    1    2    0    0  0.68484388012E+02 -0.43358800938E+02  0.11510447164E+04  0.14647556878E+04  0.90223898653E+03 0.  0.
         23    2    4    4    0    0  0.34967971617E+03  0.10703249268E+03  0.14038706782E+03  0.40097346386E+03  0.85669898580E+02 0.  0.
         23    2    4    4    0    0 -0.28119532816E+03 -0.15039129362E+03  0.10106576485E+04  0.10637822239E+04  0.92278836133E+02 0.  0.
          3    1    3    3  502    0 -0.41215438222E+02  0.58917435592E+02  0.86402415266E+02  0.11240709020E+03  0.00000000000E+00 0. -1.
         -4    1    3    3    0  502 -0.27268949790E+02 -0.15558634654E+02  0.10658245406E+03  0.11111024367E+03  0.00000000000E+00 0.  1.
         13    1    5    5    0    0  0.55293162378E+02  0.14335040181E+02 -0.94345830787E+01  0.57895064907E+02  0.00000000000E+00 0. -1.
        -13    1    5    5    0    0  0.29438655379E+03  0.92697452500E+02  0.14982165090E+03  0.34307839896E+03  0.00000000000E+00 0.  1.
          2    1    6    6  503    0 -0.28731407336E+02  0.99327290673E+01  0.13771917683E+03  0.14103447997E+03  0.00000000000E+00 0. -1.
         -2    1    6    6    0  503 -0.25246392082E+03 -0.16032402269E+03  0.87293847171E+03  0.92274774395E+03  0.00000000000E+00 0.  1.
<mgrwt>
<rscale>  0 0.10216899E+04</rscale>
<asrwt>0</asrwt>
<pdfrwt beam="1">  1        1 0.23325404E+00 0.10216899E+04</pdfrwt>
<pdfrwt beam="2">  1       -2 0.26480265E-01 0.10216899E+04</pdfrwt>
<totfact> 0.72371782E+01</totfact>
</mgrwt>
</event>
<event>
12    5  0.5041746E-008  0.1416666E+04  0.7818608E-02  0.8941843E-01
          1   -1    0    0  501    0  0.00000000000E+00  0.00000000000E+00  0.10452592519E+04  0.10452592519E+04  0.00000000000E+00 0. -1.
         -2   -1    0    0    0  501 -0.00000000000E+00 -0.00000000000E+00 -0.48001056848E+03  0.48001056848E+03  0.00000000000E+00 0.  1.
        -24    2    1    2    0    0  0.82830473287E+02 -0.29437988511E+03  0.46474731726E+03  0.56176280851E+03  0.77890821456E+02 0.  0.
        254    2    1    2    0    0 -0.82830473287E+02  0.29437988511E+03  0.10050136620E+03  0.96350701190E+03  0.90814361932E+03 0.  0.
         23    2    4    4    0    0 -0.26797678309E+03  0.24323734630E+03 -0.32053354571E+03  0.49213516140E+03  0.92083115997E+02 0.  0.
         23    2    4    4    0    0  0.18514630980E+03  0.51142538811E+02  0.42103491191E+03  0.47137185050E+03  0.89589670648E+02 0.  0.
          3    1    3    3  502    0  0.55100059644E+02 -0.23107602515E+03  0.40894512675E+03  0.47293579127E+03  0.00000000000E+00 0. -1.
         -4    1    3    3    0  502  0.27730413643E+02 -0.63303859957E+02  0.55802190505E+02  0.88827017238E+02  0.00000000000E+00 0.  1.
         13    1    5    5    0    0 -0.20804213979E+03  0.18508025107E+03 -0.29297839321E+03  0.40419372849E+03  0.00000000000E+00 0. -1.
        -13    1    5    5    0    0 -0.59934643302E+02  0.58157095224E+02 -0.27555152503E+02  0.87941432909E+02  0.00000000000E+00 0.  1.
          3    1    6    6  503    0  0.16903864351E+03  0.65766927313E+02  0.40671113410E+03  0.44532381290E+03  0.00000000000E+00 0. -1.
         -3    1    6    6    0  503  0.16107666291E+02 -0.14624388502E+02  0.14323777809E+02  0.26048037606E+02  0.00000000000E+00 0.  1.
<mgrwt>
<rscale>  0 0.14166658E+04</rscale>
<asrwt>0</asrwt>
<pdfrwt beam="1">  1        1 0.16080912E+00 0.14166658E+04</pdfrwt>
<pdfrwt beam="2">  1       -2 0.73847780E-01 0.14166658E+04</pdfrwt>
<totfact> 0.19691425E+01</totfact>
</mgrwt>
</event>
<event>
12    5  0.5041746E-008  0.1460275E+04  0.7818608E-02  0.8911308E-01
         -2   -1    0    0    0  501 -0.00000000000E+00  0.00000000000E+00  0.16059862226E+04  0.16059862226E+04  0.00000000000E+00 0.  1.
          1   -1    0    0  501    0  0.00000000000E+00 -0.00000000000E+00 -0.33194582487E+03  0.33194582487E+03  0.00000000000E+00 0. -1.
        -24    2    1    2    0    0 -0.99967511520E+02  0.20751712006E+03 -0.10483014737E+03  0.26523186893E+03  0.79383411509E+02 0.  0.
        254    2    1    2    0    0  0.99967511520E+02 -0.20751712006E+03  0.13788705451E+04  0.16727001785E+04  0.91846886102E+03 0.  0.
         23    2    4    4    0    0  0.37515297795E+03 -0.57849807981E+02  0.17530704682E+03  0.42562776337E+03  0.79624588809E+02 0.  0.
         23    2    4    4    0    0 -0.27518546643E+03 -0.14966731208E+03  0.12035634982E+04  0.12470724151E+04  0.92180090260E+02 0.  0.
          3    1    3    3  502    0 -0.46046279843E+02  0.77412642659E+02 -0.83439965057E+02  0.12278112599E+03  0.00000000000E+00 0. -1.
         -4    1    3    3    0  502 -0.53921231677E+02  0.13010447740E+03 -0.21390182311E+02  0.14245074294E+03  0.00000000000E+00 0.  1.
         13    1    5    5    0    0  0.51335014077E+02 -0.29556068035E+02  0.49083492888E+02  0.76928759914E+02  0.00000000000E+00 0. -1.
        -13    1    5    5    0    0  0.32381796387E+03 -0.28293739947E+02  0.12622355393E+03  0.34869900346E+03  0.00000000000E+00 0.  1.
          3    1    6    6  503    0 -0.10202913897E+02 -0.15571713011E+01  0.15787721859E+03  0.15821422308E+03  0.00000000000E+00 0. -1.
         -3    1    6    6    0  503 -0.26498255253E+03 -0.14811014078E+03  0.10456862797E+04  0.10888581921E+04  0.00000000000E+00 0.  1.
<mgrwt>
<rscale>  0 0.14602745E+04</rscale>
<asrwt>0</asrwt>
<pdfrwt beam="1">  1        1 0.51068590E-01 0.14602745E+04</pdfrwt>
<pdfrwt beam="2">  1       -2 0.24707480E+00 0.14602745E+04</pdfrwt>
<totfact> 0.43630571E+00</totfact>
</mgrwt>
</event>
<event>
12    5  0.5041746E-008  0.1828406E+04  0.7818608E-02  0.8691337E-01
         -2   -1    0    0    0  501 -0.00000000000E+00  0.00000000000E+00  0.42858859302E+03  0.42858859302E+03  0.00000000000E+00 0.  1.
          1   -1    0    0  501    0  0.00000000000E+00 -0.00000000000E+00 -0.19500461675E+04  0.19500461675E+04  0.00000000000E+00 0. -1.
        -24    2    1    2    0    0 -0.48599561478E+03  0.39131061456E+03 -0.19246960277E+03  0.65949490893E+03  0.92591858558E+02 0.  0.
        254    2    1    2    0    0  0.48599561478E+03 -0.39131061456E+03 -0.13289879717E+04  0.17191398516E+04  0.89438082810E+03 0.  0.
         23    2    4    4    0    0  0.11144894874E+03  0.13675463849E+03 -0.93458310193E+03  0.95561771611E+03  0.92935168840E+02 0.  0.
         23    2    4    4    0    0  0.37454666603E+03 -0.52806525305E+03 -0.39440486978E+03  0.76352213547E+03  0.90954568492E+02 0.  0.
          3    1    3    3  502    0 -0.39295894202E+03  0.29693923781E+03 -0.18707283818E+03  0.52686420247E+03  0.00000000000E+00 0. -1.
         -4    1    3    3    0  502 -0.93036672756E+02  0.94371376755E+02 -0.53967645826E+01  0.13263070646E+03  0.00000000000E+00 0.  1.
         13    1    5    5    0    0  0.68252133255E+01  0.25674504827E+02 -0.39385019328E+02  0.47507299255E+02  0.00000000000E+00 0.  1.
        -13    1    5    5    0    0  0.10462373542E+03  0.11108013366E+03 -0.89519808260E+03  0.90811041685E+03  0.00000000000E+00 0. -1.
          1    1    6    6  503    0  0.16116848689E+03 -0.28122067435E+03 -0.15795455744E+03  0.36056898240E+03  0.00000000000E+00 0. -1.
         -1    1    6    6    0  503  0.21337817914E+03 -0.24684457869E+03 -0.23645031233E+03  0.40295315307E+03  0.00000000000E+00 0.  1.
<mgrwt>
<rscale>  0 0.18284065E+04</rscale>
<asrwt>0</asrwt>
<pdfrwt beam="1">  1        1 0.30000711E+00 0.18284065E+04</pdfrwt>
<pdfrwt beam="2">  1       -2 0.65936705E-01 0.18284065E+04</pdfrwt>
<totfact> 0.56375463E+00</totfact>
</mgrwt>
</event>
<event>
12    5  0.5041746E-008  0.1786971E+04  0.7818608E-02  0.8713259E-01
         -2   -1    0    0    0  501 -0.00000000000E+00  0.00000000000E+00  0.37775146198E+03  0.37775146198E+03  0.00000000000E+00 0.  1.
          1   -1    0    0  501    0  0.00000000000E+00 -0.00000000000E+00 -0.21133384776E+04  0.21133384776E+04  0.00000000000E+00 0. -1.
        -24    2    1    2    0    0  0.60331101809E+03  0.15621411754E+03 -0.95237316878E+03  0.11409526084E+04  0.79819589455E+02 0.  0.
        254    2    1    2    0    0 -0.60331101809E+03 -0.15621411754E+03 -0.78321384682E+03  0.13501373312E+04  0.90612352809E+03 0.  0.
         23    2    4    4    0    0 -0.63441710865E+03 -0.36460033233E+03 -0.26524138204E+03  0.78337282247E+03  0.88890484036E+02 0.  0.
         23    2    4    4    0    0  0.31106090562E+02  0.20838621479E+03 -0.51797246477E+03  0.56676450872E+03  0.92380358827E+02 0.  0.
          3    1    3    3  502    0  0.56103416088E+03  0.13884134650E+03 -0.83986412656E+03  0.10195136096E+04  0.00000000000E+00 0. -1.
         -4    1    3    3    0  502  0.42276857212E+02  0.17372771043E+02 -0.11250904222E+03  0.12143899872E+03  0.00000000000E+00 0.  1.
         13    1    5    5    0    0 -0.49591037444E+03 -0.32484541860E+03 -0.22000649121E+03  0.63234049501E+03  0.00000000000E+00 0. -1.
        -13    1    5    5    0    0 -0.13850673421E+03 -0.39754913729E+02 -0.45234890839E+02  0.15103232746E+03  0.00000000000E+00 0.  1.
          3    1    6    6  503    0  0.41564248969E+02  0.19436417952E+03 -0.51034117137E+03  0.54767977164E+03  0.00000000000E+00 0.  1.
         -3    1    6    6    0  503 -0.10458158407E+02  0.14022035265E+02 -0.76312934061E+01  0.19084737077E+02  0.00000000000E+00 0. -1.
<mgrwt>
<rscale>  0 0.17869714E+04</rscale>
<asrwt>0</asrwt>
<pdfrwt beam="1">  1        1 0.32512900E+00 0.17869714E+04</pdfrwt>
<pdfrwt beam="2">  1       -2 0.58115609E-01 0.17869714E+04</pdfrwt>
<totfact> 0.57370813E+00</totfact>
</mgrwt>
</event>
<event>
12    5  0.5041746E-008  0.4952997E+04  0.7818608E-02  0.7835799E-01
          1   -1    0    0  501    0  0.00000000000E+00  0.00000000000E+00  0.32888052419E+04  0.32888052419E+04  0.00000000000E+00 0. -1.
         -2   -1    0    0    0  501 -0.00000000000E+00 -0.00000000000E+00 -0.18648248838E+04  0.18648248838E+04  0.00000000000E+00 0.  1.
        -24    2    1    2    0    0 -0.20591320611E+04 -0.68153973317E+03 -0.36421136022E+03  0.22007067429E+04  0.77064911774E+02 0.  0.
        254    2    1    2    0    0  0.20591320611E+04  0.68153973317E+03  0.17881917184E+04  0.29529233828E+04  0.90421547774E+03 0.  0.
         23    2    4    4    0    0  0.15026599144E+04  0.35090451818E+03  0.73043528857E+03  0.17095652032E+04  0.89200191011E+02 0.  0.
         23    2    4    4    0    0  0.55647214668E+03  0.33063521499E+03  0.10577564298E+04  0.12433581796E+04  0.90055552385E+02 0.  0.
          3    1    3    3  502    0 -0.32726947045E+03 -0.10285909916E+03 -0.85794394795E+02  0.35361840838E+03  0.00000000000E+00 0. -1.
         -4    1    3    3    0  502 -0.17318625906E+04 -0.57868063401E+03 -0.27841696543E+03  0.18470883346E+04  0.00000000000E+00 0.  1.
         13    1    5    5    0    0  0.53915828789E+03  0.12692067139E+03  0.30985467467E+03  0.63467348743E+03  0.00000000000E+00 0.  1.
        -13    1    5    5    0    0  0.96350162652E+03  0.22398384679E+03  0.42058061390E+03  0.10748917158E+04  0.00000000000E+00 0. -1.
          1    1    6    6  503    0  0.45149424570E+03  0.22446017412E+03  0.81572955745E+03  0.95898077904E+03  0.00000000000E+00 0. -1.
         -1    1    6    6    0  503  0.10497790098E+03  0.10617504087E+03  0.24202687234E+03  0.28437740053E+03  0.00000000000E+00 0.  1.
<mgrwt>
<rscale>  0 0.49529974E+04</rscale>
<asrwt>0</asrwt>
<pdfrwt beam="1">  1        1 0.50597004E+00 0.49529974E+04</pdfrwt>
<pdfrwt beam="2">  1       -2 0.28689614E+00 0.49529974E+04</pdfrwt>
<totfact> 0.88744369E-03</totfact>
</mgrwt>
</event>
<event>
12    5  0.5041746E-008  0.2220517E+04  0.7818608E-02  0.8509937E-01
         -2   -1    0    0    0  501 -0.00000000000E+00  0.00000000000E+00  0.72649063736E+03  0.72649063736E+03  0.00000000000E+00 0.  1.
          1   -1    0    0  501    0  0.00000000000E+00 -0.00000000000E+00 -0.16967518739E+04  0.16967518739E+04  0.00000000000E+00 0. -1.
        -24    2    1    2    0    0 -0.58596372778E+03  0.24476281017E+03  0.33285503058E+03  0.72143846356E+03  0.80116551364E+02 0.  0.
        254    2    1    2    0    0  0.58596372778E+03 -0.24476281017E+03 -0.13031162671E+04  0.17018040477E+04  0.89149463692E+03 0.  0.
         23    2    4    4    0    0 -0.14277010018E+03 -0.17573159246E+03 -0.52742085403E+02  0.24996109097E+03  0.91836405268E+02 0.  0.
         23    2    4    4    0    0  0.72873382796E+03 -0.69031217716E+02 -0.12503741817E+04  0.14518429567E+04  0.92704237760E+02 0.  0.
          1    1    3    3  502    0 -0.25276091192E+03  0.66362134356E+02  0.11863839435E+03  0.28699665518E+03  0.00000000000E+00 0. -1.
         -2    1    3    3    0  502 -0.33320281585E+03  0.17840067582E+03  0.21421663624E+03  0.43444180838E+03  0.00000000000E+00 0.  1.
         13    1    5    5    0    0 -0.57667824882E+02 -0.46438051198E+02 -0.59559799033E+02  0.95023367056E+02  0.00000000000E+00 0. -1.
        -13    1    5    5    0    0 -0.85102275301E+02 -0.12929354126E+03  0.68177136306E+01  0.15493772391E+03  0.00000000000E+00 0.  1.
          3    1    6    6  503    0  0.36806201296E+03 -0.14194770799E+02 -0.54642606064E+03  0.65897843413E+03  0.00000000000E+00 0. -1.
         -3    1    6    6    0  503  0.36067181500E+03 -0.54836446917E+02 -0.70394812107E+03  0.79286452260E+03  0.00000000000E+00 0.  1.
<mgrwt>
<rscale>  0 0.22205174E+04</rscale>
<asrwt>0</asrwt>
<pdfrwt beam="1">  1        1 0.26103875E+00 0.22205174E+04</pdfrwt>
<pdfrwt beam="2">  1       -2 0.11176779E+00 0.22205174E+04</pdfrwt>
<totfact> 0.24199474E+00</totfact>
</mgrwt>
</event>
<event>
12    5  0.5041746E-008  0.1352960E+04  0.7818608E-02  0.8988590E-01
         -2   -1    0    0    0  501 -0.00000000000E+00  0.00000000000E+00  0.20457769668E+03  0.20457769668E+03  0.00000000000E+00 0.  1.
          1   -1    0    0  501    0  0.00000000000E+00 -0.00000000000E+00 -0.22369264635E+04  0.22369264635E+04  0.00000000000E+00 0. -1.
        -24    2    1    2    0    0  0.75268435740E+01 -0.36935988438E+03 -0.68140979551E+03  0.77931655286E+03  0.80818330715E+02 0.  0.
        254    2    1    2    0    0 -0.75268435740E+01  0.36935988438E+03 -0.13509389713E+04  0.16621876073E+04  0.89518051818E+03 0.  0.
         23    2    4    4    0    0  0.45680337303E+01  0.19773444126E+03  0.68561933462E+02  0.22859805684E+03  0.91850730427E+02 0.  0.
         23    2    4    4    0    0 -0.12094877304E+02  0.17162544312E+03 -0.14195009048E+04  0.14335895505E+04  0.10293008201E+03 0.  0.
          1    1    3    3  502    0 -0.14064436470E+02 -0.31233124166E+03 -0.51975016941E+03  0.60653841716E+03  0.00000000000E+00 0. -1.
         -2    1    3    3    0  502  0.21591280044E+02 -0.57028642719E+02 -0.16165962610E+03  0.17277813570E+03  0.00000000000E+00 0.  1.
         13    1    5    5    0    0  0.75482181648E+01  0.11385146030E+03 -0.88110290455E+01  0.11444109770E+03  0.00000000000E+00 0. -1.
        -13    1    5    5    0    0 -0.29801844346E+01  0.83882980965E+02  0.77372962507E+02  0.11415695915E+03  0.00000000000E+00 0.  1.
          3    1    6    6  503    0 -0.45687791859E+01 -0.10802383712E+02 -0.31161615498E+02  0.33295818319E+02  0.00000000000E+00 0. -1.
         -3    1    6    6    0  503 -0.75260981183E+01  0.18242782683E+03 -0.13883392893E+04  0.14002937321E+04  0.00000000000E+00 0.  1.
<mgrwt>
<rscale>  0 0.13529601E+04</rscale>
<asrwt>0</asrwt>
<pdfrwt beam="1">  1        1 0.34414252E+00 0.13529601E+04</pdfrwt>
<pdfrwt beam="2">  1       -2 0.31473493E-01 0.13529601E+04</pdfrwt>
<totfact> 0.16590736E+01</totfact>
</mgrwt>
</event>
<event>
12    5  0.5041746E-008  0.2826313E+04  0.7818608E-02  0.8295146E-01
          3   -1    0    0  501    0  0.00000000000E+00  0.00000000000E+00  0.20307601378E+04  0.20307601378E+04  0.00000000000E+00 0. -1.
         -4   -1    0    0    0  501 -0.00000000000E+00 -0.00000000000E+00 -0.98338084530E+03  0.98338084530E+03  0.00000000000E+00 0.  1.
        -24    2    1    2    0    0  0.54777699045E+03 -0.42455632869E+03  0.16030621407E+04  0.17483084029E+04  0.80413539976E+02 0.  0.
        254    2    1    2    0    0 -0.54777699045E+03  0.42455632869E+03 -0.55568284816E+03  0.12658325802E+04  0.90179875017E+03 0.  0.
         23    2    4    4    0    0 -0.56299190776E+03 -0.11981300324E+03 -0.32547465210E+03  0.66763387333E+03  0.92120549894E+02 0.  0.
         23    2    4    4    0    0  0.15214917305E+02  0.54436933193E+03 -0.23020819606E+03  0.59819870685E+03  0.90974810197E+02 0.  0.
          1    1    3    3  502    0  0.43951847690E+03 -0.35833839542E+03  0.12347367453E+04  0.13587338692E+04  0.00000000000E+00 0. -1.
         -2    1    3    3    0  502  0.10825851355E+03 -0.66217933274E+02  0.36832539537E+03  0.38957453371E+03  0.00000000000E+00 0.  1.
         13    1    5    5    0    0 -0.46026379258E+03 -0.13303543411E+03 -0.26013569737E+03  0.54517131852E+03  0.00000000000E+00 0. -1.
        -13    1    5    5    0    0 -0.10272811517E+03  0.13222430868E+02 -0.65338954725E+02  0.12246255480E+03  0.00000000000E+00 0.  1.
          4    1    6    6  503    0 -0.14843689000E+02  0.48816138050E+03 -0.20399052973E+03  0.52927686964E+03  0.00000000000E+00 0. -1.
         -4    1    6    6    0  503  0.30058606305E+02  0.56207951431E+02 -0.26217666338E+02  0.68921837216E+02  0.00000000000E+00 0.  1.
<mgrwt>
<rscale>  0 0.28263125E+04</rscale>
<asrwt>0</asrwt>
<pdfrwt beam="1">  1        3 0.31242463E+00 0.28263125E+04</pdfrwt>
<pdfrwt beam="2">  1       -4 0.15128936E+00 0.28263125E+04</pdfrwt>
<totfact> 0.19045699E-02</totfact>
</mgrwt>
</event>
<event>
12    5  0.5041746E-008  0.1621510E+04  0.7818608E-02  0.8807442E-01
          1   -1    0    0  501    0  0.00000000000E+00  0.00000000000E+00  0.75444940888E+03  0.75444940888E+03  0.00000000000E+00 0. -1.
         -2   -1    0    0    0  501 -0.00000000000E+00 -0.00000000000E+00 -0.87126270560E+03  0.87126270560E+03  0.00000000000E+00 0.  1.
        -24    2    1    2    0    0  0.24596284009E+03  0.39015189171E+03 -0.35610491976E+03  0.58806097269E+03  0.79301805869E+02 0.  0.
        254    2    1    2    0    0 -0.24596284009E+03 -0.39015189171E+03  0.23929162304E+03  0.10376511418E+04  0.89818884088E+03 0.  0.
         23    2    4    4    0    0  0.43071952350E+02 -0.23506352452E+03  0.53106532119E+03  0.58934985286E+03  0.90514198099E+02 0.  0.
         23    2    4    4    0    0 -0.28903479244E+03 -0.15508836719E+03 -0.29177369815E+03  0.44830128892E+03  0.90822033900E+02 0.  0.
          1    1    3    3  502    0  0.45882083955E+02  0.30786786351E+02 -0.57826965044E+02  0.79980933528E+02  0.00000000000E+00 0. -1.
         -2    1    3    3    0  502  0.20008075613E+03  0.35936510536E+03 -0.29827795472E+03  0.50808003916E+03  0.00000000000E+00 0.  1.
         13    1    5    5    0    0  0.32532797526E+02 -0.97193310674E+02  0.13272146372E+03  0.16768992065E+03  0.00000000000E+00 0.  1.
        -13    1    5    5    0    0  0.10539154824E+02 -0.13787021385E+03  0.39834385747E+03  0.42165993222E+03  0.00000000000E+00 0. -1.
          1    1    6    6  503    0 -0.28535340670E+03 -0.13249831977E+03 -0.28480072125E+03  0.42437462493E+03  0.00000000000E+00 0. -1.
         -1    1    6    6    0  503 -0.36813857422E+01 -0.22590047417E+02 -0.69729768993E+01  0.23926663999E+02  0.00000000000E+00 0.  1.
<mgrwt>
<rscale>  0 0.16215100E+04</rscale>
<asrwt>0</asrwt>
<pdfrwt beam="1">  1        1 0.11606914E+00 0.16215100E+04</pdfrwt>
<pdfrwt beam="2">  1       -2 0.13404042E+00 0.16215100E+04</pdfrwt>
<totfact> 0.81763373E+00</totfact>
</mgrwt>
</event>
<event>
12    5  0.5041746E-008  0.1416089E+04  0.7818608E-02  0.8942254E-01
          1   -1    0    0  501    0  0.00000000000E+00  0.00000000000E+00  0.15226929506E+04  0.15226929506E+04  0.00000000000E+00 0. -1.
         -2   -1    0    0    0  501 -0.00000000000E+00 -0.00000000000E+00 -0.32923721100E+03  0.32923721100E+03  0.00000000000E+00 0.  1.
        -24    2    1    2    0    0  0.31220207984E+03 -0.24577893196E+03  0.21067892432E+03  0.45663306001E+03  0.79061496887E+02 0.  0.
        254    2    1    2    0    0 -0.31220207984E+03  0.24577893196E+03  0.98277681524E+03  0.13952971016E+04  0.90726308809E+03 0.  0.
         23    2    4    4    0    0 -0.51109995163E+03 -0.14355050508E+03  0.62017187199E+03  0.82133483113E+03  0.90265419428E+02 0.  0.
         23    2    4    4    0    0  0.19889787179E+03  0.38932943704E+03  0.36260494325E+03  0.57396227044E+03  0.82538288476E+02 0.  0.
          3    1    3    3  502    0  0.12790378675E+02 -0.63979355596E+01 -0.68670572675E+01  0.15864546687E+02  0.00000000000E+00 0. -1.
         -4    1    3    3    0  502  0.29941170116E+03 -0.23938099640E+03  0.21754598159E+03  0.44076851332E+03  0.00000000000E+00 0.  1.
         13    1    5    5    0    0 -0.36105348768E+02 -0.22453004694E+02  0.21692410994E+02  0.47731481479E+02  0.00000000000E+00 0.  1.
        -13    1    5    5    0    0 -0.47499460286E+03 -0.12109750039E+03  0.59847946100E+03  0.77360334965E+03  0.00000000000E+00 0. -1.
          3    1    6    6  503    0  0.18852793014E+03  0.39125945090E+03  0.35257273100E+03  0.55940528153E+03  0.00000000000E+00 0. -1.
         -3    1    6    6    0  503  0.10369941650E+02 -0.19300138577E+01  0.10032212252E+02  0.14556988905E+02  0.00000000000E+00 0.  1.
<mgrwt>
<rscale>  0 0.14160892E+04</rscale>
<asrwt>0</asrwt>
<pdfrwt beam="1">  1        1 0.23426045E+00 0.14160892E+04</pdfrwt>
<pdfrwt beam="2">  1       -2 0.50651879E-01 0.14160892E+04</pdfrwt>
<totfact> 0.19867802E+01</totfact>
</mgrwt>
</event>
<event>
12    5  0.5041746E-008  0.1473841E+04  0.7818608E-02  0.8902037E-01
          1   -1    0    0  501    0  0.00000000000E+00  0.00000000000E+00  0.34139671407E+04  0.34139671407E+04  0.00000000000E+00 0. -1.
         -2   -1    0    0    0  501 -0.00000000000E+00 -0.00000000000E+00 -0.15906771176E+03  0.15906771176E+03  0.00000000000E+00 0.  1.
        -24    2    1    2    0    0 -0.11663281845E+03 -0.37046308902E+03  0.16023736316E+04  0.16506607100E+04  0.78951945249E+02 0.  0.
        254    2    1    2    0    0  0.11663281845E+03  0.37046308902E+03  0.16525257974E+04  0.19223741425E+04  0.90212788341E+03 0.  0.
         23    2    4    4    0    0  0.55151075326E+02  0.58652491583E+03  0.61382394624E+03  0.85575787874E+03  0.92133555532E+02 0.  0.
         23    2    4    4    0    0  0.61481743128E+02 -0.21606182680E+03  0.10387018511E+04  0.10666162637E+04  0.91137263445E+02 0.  0.
          1    1    3    3  502    0 -0.19628498538E+02 -0.19298260993E+03  0.76645895321E+03  0.79062436887E+03  0.00000000000E+00 0. -1.
         -2    1    3    3    0  502 -0.97004319916E+02 -0.17748047910E+03  0.83591467835E+03  0.86003634111E+03  0.00000000000E+00 0.  1.
         13    1    5    5    0    0  0.78128900937E+02  0.39437616020E+03  0.43373551123E+03  0.59140779044E+03  0.00000000000E+00 0. -1.
        -13    1    5    5    0    0 -0.22977825611E+02  0.19214875562E+03  0.18008843501E+03  0.26435008830E+03  0.00000000000E+00 0.  1.
          1    1    6    6  503    0 -0.23130092056E+02 -0.54293001034E+02  0.21726487391E+03  0.22513719496E+03  0.00000000000E+00 0. -1.
         -1    1    6    6    0  503  0.84611835184E+02 -0.16176882577E+03  0.82143697722E+03  0.84147906877E+03  0.00000000000E+00 0.  1.
<mgrwt>
<rscale>  0 0.14738412E+04</rscale>
<asrwt>0</asrwt>
<pdfrwt beam="1">  1        1 0.52522566E+00 0.14738412E+04</pdfrwt>
<pdfrwt beam="2">  1       -2 0.24471958E-01 0.14738412E+04</pdfrwt>
<totfact> 0.37464136E+00</totfact>
</mgrwt>
</event>
<event>
12    5  0.5041746E-008  0.1847519E+04  0.7818608E-02  0.8681430E-01
          1   -1    0    0  501    0  0.00000000000E+00  0.00000000000E+00  0.17255503233E+04  0.17255503233E+04  0.00000000000E+00 0. -1.
         -2   -1    0    0    0  501 -0.00000000000E+00 -0.00000000000E+00 -0.49452703764E+03  0.49452703764E+03  0.00000000000E+00 0.  1.
        -24    2    1    2    0    0  0.42885981978E+03 -0.54011273930E+03  0.29973286270E+03  0.75628430218E+03  0.80521056693E+02 0.  0.
        254    2    1    2    0    0 -0.42885981978E+03  0.54011273930E+03  0.93129042296E+03  0.14637930588E+04  0.89428505010E+03 0.  0.
         23    2    4    4    0    0 -0.58211884907E+03  0.19614702543E+03  0.23007160374E+03  0.66236960740E+03  0.92002956128E+02 0.  0.
         23    2    4    4    0    0  0.15325902929E+03  0.34396571387E+03  0.70121881923E+03  0.80142345136E+03  0.93653476097E+02 0.  0.
          3    1    3    3  502    0  0.19397370086E+03 -0.22816778949E+03  0.88268512535E+02  0.31221413660E+03  0.00000000000E+00 0. -1.
         -4    1    3    3    0  502  0.23488611892E+03 -0.31194494981E+03  0.21146435017E+03  0.44407016559E+03  0.00000000000E+00 0.  1.
         13    1    5    5    0    0 -0.42937458151E+03  0.10093008555E+03  0.16752773440E+03  0.47182089315E+03  0.00000000000E+00 0. -1.
        -13    1    5    5    0    0 -0.15274426756E+03  0.95216939883E+02  0.62543869333E+02  0.19054871426E+03  0.00000000000E+00 0.  1.
          1    1    6    6  503    0  0.94055076030E+02  0.16031021798E+03  0.43111348419E+03  0.46947263985E+03  0.00000000000E+00 0.  1.
         -1    1    6    6    0  503  0.59203953262E+02  0.18365549589E+03  0.27010533504E+03  0.33195081152E+03  0.00000000000E+00 0. -1.
<mgrwt>
<rscale>  0 0.18475186E+04</rscale>
<asrwt>0</asrwt>
<pdfrwt beam="1">  1        1 0.26546928E+00 0.18475186E+04</pdfrwt>
<pdfrwt beam="2">  1       -2 0.76081084E-01 0.18475186E+04</pdfrwt>
<totfact> 0.58424951E+00</totfact>
</mgrwt>
</event>
<event>
12    5  0.5041746E-008  0.2086666E+04  0.7818608E-02  0.8567140E-01
         -2   -1    0    0    0  501 -0.00000000000E+00  0.00000000000E+00  0.20074683342E+04  0.20074683342E+04  0.00000000000E+00 0.  1.
          1   -1    0    0  501    0  0.00000000000E+00 -0.00000000000E+00 -0.54224680501E+03  0.54224680501E+03  0.00000000000E+00 0. -1.
        -24    2    1    2    0    0  0.55819110253E+03  0.26720396002E+03 -0.10517029291E+03  0.63260856578E+03  0.78470018464E+02 0.  0.
        254    2    1    2    0    0 -0.55819110253E+03 -0.26720396002E+03  0.15703918221E+04  0.19171065734E+04  0.90895097545E+03 0.  0.
         23    2    4    4    0    0 -0.67602408270E+03  0.49693877166E+02  0.13193330420E+04  0.14861907346E+04  0.92979471172E+02 0.  0.
         23    2    4    4    0    0  0.11783298018E+03 -0.31689783719E+03  0.25105878016E+03  0.43091583888E+03  0.91373402449E+02 0.  0.
          3    1    3    3  502    0  0.35964249988E+03  0.19023807809E+03 -0.10283000425E+03  0.41965135988E+03  0.00000000000E+00 0. -1.
         -4    1    3    3    0  502  0.19854860265E+03  0.76965881932E+02 -0.23402886653E+01  0.21295720590E+03  0.00000000000E+00 0.  1.
         13    1    5    5    0    0 -0.58288786337E+03  0.10169389866E+02  0.11182533108E+04  0.12610916481E+04  0.00000000000E+00 0.  1.
        -13    1    5    5    0    0 -0.93136219328E+02  0.39524487301E+02  0.20107973116E+03  0.22509908647E+03  0.00000000000E+00 0. -1.
          2    1    6    6  503    0  0.22908239294E+02 -0.99110408167E+02  0.12757400878E+03  0.16316491091E+03  0.00000000000E+00 0. -1.
         -2    1    6    6    0  503  0.94924740882E+02 -0.21778742902E+03  0.12348477138E+03  0.26775092798E+03  0.00000000000E+00 0.  1.
<mgrwt>
<rscale>  0 0.20866656E+04</rscale>
<asrwt>0</asrwt>
<pdfrwt beam="1">  1        1 0.83422586E-01 0.20866656E+04</pdfrwt>
<pdfrwt beam="2">  1       -2 0.30884128E+00 0.20866656E+04</pdfrwt>
<totfact> 0.89600067E-01</totfact>
</mgrwt>
</event>
<event>
12    5  0.5041746E-008  0.2129999E+04  0.7818608E-02  0.8548142E-01
          1   -1    0    0  501    0  0.00000000000E+00  0.00000000000E+00  0.21450512130E+04  0.21450512130E+04  0.00000000000E+00 0. -1.
         -4   -1    0    0    0  501 -0.00000000000E+00 -0.00000000000E+00 -0.52876330487E+03  0.52876330487E+03  0.00000000000E+00 0.  1.
        -24    2    1    2    0    0  0.30655570118E+02  0.77218214885E+03  0.11735570010E+04  0.14089967624E+04  0.10407116164E+03 0.  0.
        254    2    1    2    0    0 -0.30655570118E+02 -0.77218214885E+03  0.44273090713E+03  0.12648177555E+04  0.89808032137E+03 0.  0.
         23    2    4    4    0    0 -0.45005030589E+03 -0.47778733748E+03  0.27725859268E+03  0.71860887959E+03  0.93275811005E+02 0.  0.
         23    2    4    4    0    0  0.41939473577E+03 -0.29439481137E+03  0.16547231445E+03  0.54620887595E+03  0.91666787695E+02 0.  0.
          3    1    3    3  502    0  0.32375304063E+01  0.59811953582E+03  0.83227144899E+03  0.10249064472E+04  0.00000000000E+00 0. -1.
         -4    1    3    3    0  502  0.27418039712E+02  0.17406261303E+03  0.34128555205E+03  0.38409031515E+03  0.00000000000E+00 0.  1.
         13    1    5    5    0    0 -0.20898308718E+02 -0.36463168463E+02 -0.32036572446E+01  0.42149322431E+02  0.00000000000E+00 0. -1.
        -13    1    5    5    0    0 -0.42915199717E+03 -0.44132416901E+03  0.28046224992E+03  0.67645955716E+03  0.00000000000E+00 0.  1.
          3    1    6    6  503    0  0.47364938935E+01 -0.16061317930E+02  0.19913418010E+02  0.26018157600E+02  0.00000000000E+00 0. -1.
         -3    1    6    6    0  503  0.41465824188E+03 -0.27833349344E+03  0.14555889644E+03  0.52019071835E+03  0.00000000000E+00 0.  1.
<mgrwt>
<rscale>  0 0.21299994E+04</rscale>
<asrwt>0</asrwt>
<pdfrwt beam="1">  1        1 0.33000788E+00 0.21299994E+04</pdfrwt>
<pdfrwt beam="2">  1       -4 0.81348202E-01 0.21299994E+04</pdfrwt>
<totfact> 0.14347448E+00</totfact>
</mgrwt>
</event>
<event>
12    5  0.5041746E-008  0.2396034E+04  0.7818608E-02  0.8440990E-01
          3   -1    0    0  501    0  0.00000000000E+00  0.00000000000E+00  0.11139578043E+04  0.11139578043E+04  0.00000000000E+00 0. -1.
         -4   -1    0    0    0  501 -0.00000000000E+00 -0.00000000000E+00 -0.12884193931E+04  0.12884193931E+04  0.00000000000E+00 0.  1.
        -24    2    1    2    0    0  0.91124870271E+03  0.24677423211E+03  0.32685850690E+03  0.10021869134E+04  0.79185895272E+02 0.  0.
        254    2    1    2    0    0 -0.91124870271E+03 -0.24677423211E+03 -0.50132009569E+03  0.14001902840E+04  0.90439995202E+03 0.  0.
         23    2    4    4    0    0 -0.25759765595E+02  0.15696060831E+03  0.14236291661E+03  0.22999187988E+03  0.85608800367E+02 0.  0.
         23    2    4    4    0    0 -0.88548893712E+03 -0.40373484042E+03 -0.64368301230E+03  0.11701984041E+04  0.89129150830E+02 0.  0.
          1    1    3    3  502    0  0.73928453438E+03  0.16746177491E+03  0.26168804830E+03  0.80191377557E+03  0.00000000000E+00 0. -1.
         -2    1    3    3    0  502  0.17196416833E+03  0.79312457201E+02  0.65170458600E+02  0.20027313782E+03  0.00000000000E+00 0.  1.
         13    1    5    5    0    0 -0.49834806122E+02  0.72332885729E+02  0.44760436184E+02  0.98585246901E+02  0.00000000000E+00 0.  1.
        -13    1    5    5    0    0  0.24075040527E+02  0.84627722585E+02  0.97602480426E+02  0.13140663298E+03  0.00000000000E+00 0. -1.
          2    1    6    6  503    0 -0.16029315113E+03 -0.42785692645E+02 -0.87322001420E+02  0.18748237711E+03  0.00000000000E+00 0. -1.
         -2    1    6    6    0  503 -0.72519578598E+03 -0.36094914778E+03 -0.55636101088E+03  0.98271602700E+03  0.00000000000E+00 0.  1.
<mgrwt>
<rscale>  0 0.23960341E+04</rscale>
<asrwt>0</asrwt>
<pdfrwt beam="1">  1        3 0.17137812E+00 0.23960341E+04</pdfrwt>
<pdfrwt beam="2">  1       -4 0.19821837E+00 0.23960341E+04</pdfrwt>
<totfact> 0.63038202E-02</totfact>
</mgrwt>
</event>
<event>
12    5  0.5041746E-008  0.2318029E+04  0.7818608E-02  0.8470846E-01
          1   -1    0    0  501    0  0.00000000000E+00  0.00000000000E+00  0.50811467126E+03  0.50811467126E+03  0.00000000000E+00 0. -1.
         -2   -1    0    0    0  501 -0.00000000000E+00 -0.00000000000E+00 -0.26437223570E+04  0.26437223570E+04  0.00000000000E+00 0.  1.
        -24    2    1    2    0    0  0.16330523910E+03 -0.81486028910E+03 -0.19577850057E+03  0.85777911701E+03  0.82400852041E+02 0.  0.
        254    2    1    2    0    0 -0.16330523910E+03  0.81486028910E+03 -0.19398291852E+04  0.22940579113E+04  0.89949904986E+03 0.  0.
         23    2    4    4    0    0  0.13166097908E+03 -0.12401331365E+03 -0.16001258792E+03  0.25826174317E+03  0.91548808410E+02 0.  0.
         23    2    4    4    0    0 -0.29496621817E+03  0.93887360275E+03 -0.17798165973E+04  0.20357961681E+04  0.90720484574E+02 0.  0.
          1    1    3    3  502    0  0.13329903007E+03 -0.76757468593E+03 -0.17981098409E+03  0.79954457030E+03  0.00000000000E+00 0. -1.
         -2    1    3    3    0  502  0.30006209030E+02 -0.47285603171E+02 -0.15967516474E+02  0.58234546705E+02  0.00000000000E+00 0.  1.
         13    1    5    5    0    0  0.54811952743E+02 -0.42130350535E+02 -0.12104523624E+03  0.13939607532E+03  0.00000000000E+00 0. -1.
        -13    1    5    5    0    0  0.76849026333E+02 -0.81882963115E+02 -0.38967351683E+02  0.11886566785E+03  0.00000000000E+00 0.  1.
          1    1    6    6  503    0 -0.10585215696E+03  0.28008071105E+03 -0.62209060034E+03  0.69039597252E+03  0.00000000000E+00 0. -1.
         -1    1    6    6    0  503 -0.18911406122E+03  0.65879289170E+03 -0.11577259969E+04  0.13454001956E+04  0.00000000000E+00 0.  1.
<mgrwt>
<rscale>  0 0.23180286E+04</rscale>
<asrwt>0</asrwt>
<pdfrwt beam="1">  1        1 0.78171487E-01 0.23180286E+04</pdfrwt>
<pdfrwt beam="2">  1       -2 0.40672652E+00 0.23180286E+04</pdfrwt>
<totfact> 0.22998393E-01</totfact>
</mgrwt>
</event>
<event>
12    5  0.5041746E-008  0.1188727E+04  0.7818608E-02  0.9122781E-01
          1   -1    0    0  501    0  0.00000000000E+00  0.00000000000E+00  0.42376053937E+03  0.42376053937E+03  0.00000000000E+00 0. -1.
         -2   -1    0    0    0  501 -0.00000000000E+00 -0.00000000000E+00 -0.83364984418E+03  0.83364984418E+03  0.00000000000E+00 0.  1.
        -24    2    1    2    0    0 -0.11376687649E+03 -0.11227590054E+03  0.11394431900E+03  0.21214514171E+03  0.80457897615E+02 0.  0.
        254    2    1    2    0    0  0.11376687649E+03  0.11227590054E+03 -0.52383362381E+03  0.10452652418E+04  0.89029713036E+03 0.  0.
         23    2    4    4    0    0  0.34116462889E+03  0.38587340421E+03 -0.21598455165E+03  0.56604147713E+03  0.91989342845E+02 0.  0.
         23    2    4    4    0    0 -0.22739775241E+03 -0.27359750367E+03 -0.30784907217E+03  0.47922376470E+03  0.91208736478E+02 0.  0.
          1    1    3    3  502    0 -0.91672257778E+02 -0.64601137097E+02  0.11355348493E+03  0.15959794391E+03  0.00000000000E+00 0. -1.
         -2    1    3    3    0  502 -0.22094618709E+02 -0.47674763448E+02  0.39083407898E+00  0.52547197803E+02  0.00000000000E+00 0.  1.
         13    1    5    5    0    0  0.30873716062E+03  0.37986915642E+03 -0.19480429480E+03  0.52684715394E+03  0.00000000000E+00 0. -1.
        -13    1    5    5    0    0  0.32427468271E+02  0.60042477949E+01 -0.21180256846E+02  0.39194323188E+02  0.00000000000E+00 0.  1.
          4    1    6    6  503    0 -0.16195273592E+03 -0.13667049425E+03 -0.21185274297E+03  0.29964828946E+03  0.00000000000E+00 0. -1.
         -4    1    6    6    0  503 -0.65445016482E+02 -0.13692700942E+03 -0.95996329202E+02  0.17957547525E+03  0.00000000000E+00 0.  1.
<mgrwt>
<rscale>  0 0.11887269E+04</rscale>
<asrwt>0</asrwt>
<pdfrwt beam="1">  1        1 0.65193930E-01 0.11887269E+04</pdfrwt>
<pdfrwt beam="2">  1       -2 0.12825382E+00 0.11887269E+04</pdfrwt>
<totfact> 0.21590489E+01</totfact>
</mgrwt>
</event>
<event>
12    5  0.5041746E-008  0.3134036E+04  0.7818608E-02  0.8206459E-01
          1   -1    0    0  501    0  0.00000000000E+00  0.00000000000E+00  0.14921083440E+04  0.14921083440E+04  0.00000000000E+00 0. -1.
         -2   -1    0    0    0  501 -0.00000000000E+00 -0.00000000000E+00 -0.16456880750E+04  0.16456880750E+04  0.00000000000E+00 0.  1.
        -24    2    1    2    0    0 -0.11585822751E+04 -0.59045665911E+03  0.54452733611E+03  0.14124615855E+04  0.87096247161E+02 0.  0.
        254    2    1    2    0    0  0.11585822751E+04  0.59045665911E+03 -0.69810706709E+03  0.17253348335E+04  0.89357420302E+03 0.  0.
         23    2    4    4    0    0  0.11249275586E+04  0.26601099158E+03 -0.75248548361E+03  0.13823541180E+04  0.91894748359E+02 0.  0.
         23    2    4    4    0    0  0.33654716499E+02  0.32444566753E+03  0.54378416523E+02  0.34298071556E+03  0.91000702959E+02 0.  0.
          3    1    3    3  502    0 -0.80262579102E+03 -0.38990156961E+03  0.33340562678E+03  0.95257057815E+03  0.00000000000E+00 0. -1.
         -4    1    3    3    0  502 -0.35595648404E+03 -0.20055508950E+03  0.21112170933E+03  0.45989100731E+03  0.00000000000E+00 0.  1.
         13    1    5    5    0    0  0.10628569238E+04  0.27173932146E+03 -0.71796909392E+03  0.13111013382E+04  0.00000000000E+00 0. -1.
        -13    1    5    5    0    0  0.62070634801E+02 -0.57283298732E+01 -0.34516389695E+02  0.71252779773E+02  0.00000000000E+00 0.  1.
          4    1    6    6  503    0 -0.35108129862E+01  0.27300761372E+03  0.28744387420E+02  0.27453910972E+03  0.00000000000E+00 0. -1.
         -4    1    6    6    0  503  0.37165529485E+02  0.51438053807E+02  0.25634029103E+02  0.68441605836E+02  0.00000000000E+00 0.  1.
<mgrwt>
<rscale>  0 0.31340357E+04</rscale>
<asrwt>0</asrwt>
<pdfrwt beam="1">  1        1 0.22955513E+00 0.31340357E+04</pdfrwt>
<pdfrwt beam="2">  1       -2 0.25318278E+00 0.31340357E+04</pdfrwt>
<totfact> 0.30073323E-01</totfact>
</mgrwt>
</event>
<event>
12    5  0.5041746E-008  0.1328327E+04  0.7818608E-02  0.9007399E-01
         -2   -1    0    0    0  501 -0.00000000000E+00  0.00000000000E+00  0.89265307503E+03  0.89265307503E+03  0.00000000000E+00 0.  1.
          1   -1    0    0  501    0  0.00000000000E+00 -0.00000000000E+00 -0.49415952017E+03  0.49415952017E+03  0.00000000000E+00 0. -1.
        -24    2    1    2    0    0  0.30743302436E+03 -0.12325200283E+03  0.68514304118E+02  0.34746938559E+03  0.79590472948E+02 0.  0.
        254    2    1    2    0    0 -0.30743302436E+03  0.12325200283E+03  0.32997925074E+03  0.10393432096E+04  0.92824667023E+03 0.  0.
         23    2    4    4    0    0 -0.30372806011E+03  0.47091259321E+03  0.36845044342E+03  0.67782487494E+03  0.98394242167E+02 0.  0.
         23    2    4    4    0    0 -0.37049642480E+01 -0.34766059038E+03 -0.38471192681E+02  0.36151833468E+03  0.91289981795E+02 0.  0.
          3    1    3    3  502    0  0.10923574258E+03 -0.64424451961E+02 -0.78797903908E+01  0.12706316762E+03  0.00000000000E+00 0. -1.
         -4    1    3    3    0  502  0.19819728178E+03 -0.58827550868E+02  0.76394094509E+02  0.22040621797E+03  0.00000000000E+00 0.  1.
         13    1    5    5    0    0 -0.19544815775E+03  0.29004747030E+03  0.28477069585E+03  0.45102313312E+03  0.00000000000E+00 0. -1.
        -13    1    5    5    0    0 -0.10827990236E+03  0.18086512291E+03  0.83679747575E+02  0.22680174182E+03  0.00000000000E+00 0.  1.
          2    1    6    6  503    0 -0.13457381828E+02 -0.31177578614E+03 -0.61095370177E+02  0.31799038697E+03  0.00000000000E+00 0. -1.
         -2    1    6    6    0  503  0.97524175802E+01 -0.35884804245E+02  0.22624177496E+02  0.43527947708E+02  0.00000000000E+00 0.  1.
<mgrwt>
<rscale>  0 0.13283268E+04</rscale>
<asrwt>0</asrwt>
<pdfrwt beam="1">  1        1 0.76024542E-01 0.13283268E+04</pdfrwt>
<pdfrwt beam="2">  1       -2 0.13733124E+00 0.13283268E+04</pdfrwt>
<totfact> 0.14571507E+01</totfact>
</mgrwt>
</event>
<event>
12    5  0.5041746E-008  0.2621416E+04  0.7818608E-02  0.8360963E-01
         -2   -1    0    0    0  501 -0.00000000000E+00  0.00000000000E+00  0.64032739511E+03  0.64032739511E+03  0.00000000000E+00 0.  1.
          1   -1    0    0  501    0  0.00000000000E+00 -0.00000000000E+00 -0.26829329431E+04  0.26829329431E+04  0.00000000000E+00 0. -1.
        -24    2    1    2    0    0  0.25983121314E+03  0.94343341299E+03 -0.12419126899E+03  0.98965015781E+03  0.80031865475E+02 0.  0.
        254    2    1    2    0    0 -0.25983121314E+03 -0.94343341299E+03 -0.19184142790E+04  0.23336101804E+04  0.89880157107E+03 0.  0.
         23    2    4    4    0    0 -0.31806104672E+03 -0.89386736103E+03 -0.90813018571E+03  0.13164615799E+04  0.90603358583E+02 0.  0.
         23    2    4    4    0    0  0.58229833575E+02 -0.49566051957E+02 -0.10102840933E+04  0.10171486005E+04  0.89832173220E+02 0.  0.
          1    1    3    3  502    0  0.97256834176E+02  0.46754564240E+03 -0.34262607318E+02  0.47878152197E+03  0.00000000000E+00 0. -1.
         -2    1    3    3    0  502  0.16257437897E+03  0.47588777059E+03 -0.89928661674E+02  0.51086863584E+03  0.00000000000E+00 0.  1.
         13    1    5    5    0    0 -0.31192565532E+03 -0.81907754159E+03 -0.85575792707E+03  0.12249519433E+04  0.00000000000E+00 0.  1.
        -13    1    5    5    0    0 -0.61353913941E+01 -0.74789819443E+02 -0.52372258642E+02  0.91509636624E+02  0.00000000000E+00 0. -1.
          1    1    6    6  503    0 -0.85687658844E+01 -0.14481612935E+02 -0.33830023802E+02  0.37783744817E+02  0.00000000000E+00 0. -1.
         -1    1    6    6    0  503  0.66798599460E+02 -0.35084439022E+02 -0.97645406948E+03  0.97936485569E+03  0.00000000000E+00 0.  1.
<mgrwt>
<rscale>  0 0.26214160E+04</rscale>
<asrwt>0</asrwt>
<pdfrwt beam="1">  1        1 0.41275891E+00 0.26214160E+04</pdfrwt>
<pdfrwt beam="2">  1       -2 0.98511907E-01 0.26214160E+04</pdfrwt>
<totfact> 0.66734831E-01</totfact>
</mgrwt>
</event>
<event>
12    5  0.5041746E-008  0.1218012E+04  0.7818608E-02  0.9097236E-01
          1   -1    0    0  501    0  0.00000000000E+00  0.00000000000E+00  0.22923705247E+04  0.22923705247E+04  0.00000000000E+00 0. -1.
         -2   -1    0    0    0  501 -0.00000000000E+00 -0.00000000000E+00 -0.16179234582E+03  0.16179234582E+03  0.00000000000E+00 0.  1.
        -24    2    1    2    0    0  0.25786952625E+03  0.19460750287E+02  0.31472235692E+03  0.41495254454E+03  0.79120407646E+02 0.  0.
        254    2    1    2    0    0 -0.25786952625E+03 -0.19460750287E+02  0.18158558220E+04  0.20392103260E+04  0.89116270908E+03 0.  0.
         23    2    4    4    0    0 -0.47720927020E+03 -0.24454078714E+03  0.76813016666E+03  0.94150376027E+03  0.94215144877E+02 0.  0.
         23    2    4    4    0    0  0.21933974395E+03  0.22508003685E+03  0.10477256553E+04  0.10977065657E+04  0.91976678401E+02 0.  0.
          1    1    3    3  502    0  0.18816945941E+03  0.19098136791E+02  0.16994746251E+03  0.25427273604E+03  0.00000000000E+00 0. -1.
         -2    1    3    3    0  502  0.69700066841E+02  0.36261349563E+00  0.14477489441E+03  0.16067980850E+03  0.00000000000E+00 0.  1.
         13    1    5    5    0    0 -0.31973679561E+03 -0.11584730337E+03  0.50771143065E+03  0.61108355647E+03  0.00000000000E+00 0. -1.
        -13    1    5    5    0    0 -0.15747247458E+03 -0.12869348376E+03  0.26041873601E+03  0.33042020380E+03  0.00000000000E+00 0.  1.
          1    1    6    6  503    0  0.20929198500E+03  0.22521397153E+03  0.10413936973E+04  0.10858293148E+04  0.00000000000E+00 0. -1.
         -1    1    6    6    0  503  0.10047758947E+02 -0.13393467496E+00  0.63319579641E+01  0.11877250945E+02  0.00000000000E+00 0.  1.
<mgrwt>
<rscale>  0 0.12180115E+04</rscale>
<asrwt>0</asrwt>
<pdfrwt beam="1">  1        1 0.35267236E+00 0.12180115E+04</pdfrwt>
<pdfrwt beam="2">  1       -2 0.24891132E-01 0.12180115E+04</pdfrwt>
<totfact> 0.23731215E+01</totfact>
</mgrwt>
</event>
<event>
12    5  0.5041746E-008  0.1850128E+04  0.7818608E-02  0.8680087E-01
          1   -1    0    0  501    0  0.00000000000E+00  0.00000000000E+00  0.10065077698E+04  0.10065077698E+04  0.00000000000E+00 0. -1.
         -2   -1    0    0    0  501 -0.00000000000E+00 -0.00000000000E+00 -0.85021087680E+03  0.85021087680E+03  0.00000000000E+00 0.  1.
        -24    2    1    2    0    0  0.56377536277E+02  0.54911961122E+03  0.52634838955E+03  0.76687028234E+03  0.79602944201E+02 0.  0.
        254    2    1    2    0    0 -0.56377536277E+02 -0.54911961122E+03 -0.37005149655E+03  0.10898483643E+04  0.86378271166E+03 0.  0.
         23    2    4    4    0    0  0.25777770610E+03  0.93671099306E+02 -0.23858645023E+02  0.28965206617E+03  0.90030349799E+02 0.  0.
         23    2    4    4    0    0 -0.31415524238E+03 -0.64279071053E+03 -0.34619285153E+03  0.80019629810E+03  0.92688786717E+02 0.  0.
          1    1    3    3  502    0  0.51115296494E+02  0.41922450811E+03  0.44505476532E+03  0.61354356477E+03  0.00000000000E+00 0. -1.
         -2    1    3    3    0  502  0.52622397824E+01  0.12989510311E+03  0.81293624232E+02  0.15332671757E+03  0.00000000000E+00 0.  1.
         13    1    5    5    0    0  0.64071673316E+02  0.31378173425E+02 -0.46135586237E+02  0.84960351968E+02  0.00000000000E+00 0. -1.
        -13    1    5    5    0    0  0.19370603279E+03  0.62292925881E+02  0.22276941214E+02  0.20469171420E+03  0.00000000000E+00 0.  1.
          3    1    6    6  503    0 -0.29708941078E+02 -0.46443533634E+02 -0.19099500708E+01  0.55165849088E+02  0.00000000000E+00 0. -1.
         -3    1    6    6    0  503 -0.28444630130E+03 -0.59634717690E+03 -0.34428290146E+03  0.74503044901E+03  0.00000000000E+00 0.  1.
<mgrwt>
<rscale>  0 0.18501285E+04</rscale>
<asrwt>0</asrwt>
<pdfrwt beam="1">  1        1 0.15484735E+00 0.18501285E+04</pdfrwt>
<pdfrwt beam="2">  1       -2 0.13080167E+00 0.18501285E+04</pdfrwt>
<totfact> 0.52667289E+00</totfact>
</mgrwt>
</event>
<event>
12    5  0.5041746E-008  0.1743800E+04  0.7818608E-02  0.8736770E-01
          1   -1    0    0  501    0  0.00000000000E+00  0.00000000000E+00  0.79285209613E+03  0.79285209613E+03  0.00000000000E+00 0. -1.
         -2   -1    0    0    0  501 -0.00000000000E+00 -0.00000000000E+00 -0.95882939893E+03  0.95882939893E+03  0.00000000000E+00 0.  1.
        -24    2    1    2    0    0  0.53905758787E+03 -0.11169217580E+03 -0.38264277402E+03  0.67499176260E+03  0.78359185136E+02 0.  0.
        254    2    1    2    0    0 -0.53905758787E+03  0.11169217580E+03  0.21666547122E+03  0.10766897325E+04  0.89958803260E+03 0.  0.
         23    2    4    4    0    0 -0.62368796578E+03  0.12723680023E+03  0.46878538990E+03  0.79577603342E+03  0.91235254075E+02 0.  0.
         23    2    4    4    0    0  0.84630377911E+02 -0.15544624422E+02 -0.25211991868E+03  0.28091369905E+03  0.89129774509E+02 0.  0.
          3    1    3    3  502    0  0.17669924763E+03 -0.24786805561E+02 -0.82818045073E+02  0.19671257823E+03  0.00000000000E+00 0. -1.
         -4    1    3    3    0  502  0.36235834024E+03 -0.86905370244E+02 -0.29982472895E+03  0.47827918438E+03  0.00000000000E+00 0.  1.
         13    1    5    5    0    0 -0.44389664711E+03  0.80450296135E+02  0.28025789197E+03  0.53109412487E+03  0.00000000000E+00 0.  1.
        -13    1    5    5    0    0 -0.17979131867E+03  0.46786504092E+02  0.18852749793E+03  0.26468190854E+03  0.00000000000E+00 0. -1.
          3    1    6    6  503    0  0.51472564294E+02 -0.52598862103E+02 -0.16343747414E+03  0.17924249809E+03  0.00000000000E+00 0. -1.
         -3    1    6    6    0  503  0.33157813617E+02  0.37054237681E+02 -0.88682444538E+02  0.10167120095E+03  0.00000000000E+00 0.  1.
<mgrwt>
<rscale>  0 0.17438003E+04</rscale>
<asrwt>0</asrwt>
<pdfrwt beam="1">  1        1 0.12197724E+00 0.17438003E+04</pdfrwt>
<pdfrwt beam="2">  1       -2 0.14751222E+00 0.17438003E+04</pdfrwt>
<totfact> 0.58321632E+00</totfact>
</mgrwt>
</event>
<event>
12    5  0.5041746E-008  0.1935209E+04  0.7818608E-02  0.8637526E-01
         -2   -1    0    0    0  501 -0.00000000000E+00  0.00000000000E+00  0.73284056773E+03  0.73284056773E+03  0.00000000000E+00 0.  1.
          1   -1    0    0  501    0  0.00000000000E+00 -0.00000000000E+00 -0.12775750388E+04  0.12775750388E+04  0.00000000000E+00 0. -1.
        -24    2    1    2    0    0  0.33689876456E+03 -0.48889940824E+03  0.26550134107E+03  0.65373717229E+03  0.66014539151E+02 0.  0.
        254    2    1    2    0    0 -0.33689876456E+03  0.48889940824E+03 -0.81023581215E+03  0.13566784343E+04  0.91190509032E+03 0.  0.
         23    2    4    4    0    0  0.29034612638E+03  0.29169399032E+03 -0.26644084562E+03  0.49854655112E+03  0.90397358001E+02 0.  0.
         23    2    4    4    0    0 -0.62724489094E+03  0.19720541792E+03 -0.54379496653E+03  0.85813188313E+03  0.91385081678E+02 0.  0.
          1    1    3    3  502    0  0.48288289052E+02 -0.71109593419E+02  0.14018907328E+02  0.87091118368E+02  0.00000000000E+00 0. -1.
         -2    1    3    3    0  502  0.28861047551E+03 -0.41778981482E+03  0.25148243374E+03  0.56664605392E+03  0.00000000000E+00 0.  1.
         13    1    5    5    0    0  0.12272077240E+03  0.13978260561E+03 -0.69362897061E+02  0.19852147566E+03  0.00000000000E+00 0. -1.
        -13    1    5    5    0    0  0.16762535398E+03  0.15191138471E+03 -0.19707794856E+03  0.30002507547E+03  0.00000000000E+00 0.  1.
          1    1    6    6  503    0 -0.46346456421E+03  0.16496927395E+03 -0.35836555996E+03  0.60863793686E+03  0.00000000000E+00 0. -1.
         -1    1    6    6    0  503 -0.16378032673E+03  0.32236143971E+02 -0.18542940657E+03  0.24949394627E+03  0.00000000000E+00 0.  1.
<mgrwt>
<rscale>  0 0.19352094E+04</rscale>
<asrwt>0</asrwt>
<pdfrwt beam="1">  1        1 0.19655000E+00 0.19352094E+04</pdfrwt>
<pdfrwt beam="2">  1       -2 0.11274470E+00 0.19352094E+04</pdfrwt>
<totfact> 0.47541212E+00</totfact>
</mgrwt>
</event>
<event>
12    5  0.5041746E-008  0.2034401E+04  0.7818608E-02  0.8590704E-01
         -2   -1    0    0    0  501 -0.00000000000E+00  0.00000000000E+00  0.14786956767E+04  0.14786956767E+04  0.00000000000E+00 0.  1.
          1   -1    0    0  501    0  0.00000000000E+00 -0.00000000000E+00 -0.69973642592E+03  0.69973642592E+03  0.00000000000E+00 0. -1.
        -24    2    1    2    0    0  0.25722433401E+03  0.58427925842E+03  0.85790608523E+03  0.10722734943E+04  0.78873225395E+02 0.  0.
        254    2    1    2    0    0 -0.25722433401E+03 -0.58427925842E+03 -0.78946834443E+02  0.11061586083E+04  0.89989313492E+03 0.  0.
         23    2    4    4    0    0  0.28911618432E+03 -0.51082898500E+02 -0.13342135730E+03  0.33540724721E+03  0.92190738908E+02 0.  0.
         23    2    4    4    0    0 -0.54634051833E+03 -0.53319635992E+03  0.54474522857E+02  0.77075136112E+03  0.91125555243E+02 0.  0.
          3    1    3    3  502    0  0.10180641101E+03  0.25831394514E+03  0.31108144446E+03  0.41696798998E+03  0.00000000000E+00 0. -1.
         -4    1    3    3    0  502  0.15541792300E+03  0.32596531329E+03  0.54682464076E+03  0.65530550433E+03  0.00000000000E+00 0.  1.
         13    1    5    5    0    0  0.20988511557E+02 -0.30556653350E+02 -0.28465428216E+02  0.46738712914E+02  0.00000000000E+00 0. -1.
        -13    1    5    5    0    0  0.26812767276E+03 -0.20526245151E+02 -0.10495592908E+03  0.28866853429E+03  0.00000000000E+00 0.  1.
          2    1    6    6  503    0 -0.49373877994E+02 -0.77787135537E+02 -0.14074674348E+02  0.93202546860E+02  0.00000000000E+00 0. -1.
         -2    1    6    6    0  503 -0.49696664034E+03 -0.45540922439E+03  0.68549197205E+02  0.67754881426E+03  0.00000000000E+00 0.  1.
<mgrwt>
<rscale>  0 0.20344014E+04</rscale>
<asrwt>0</asrwt>
<pdfrwt beam="1">  1        1 0.10765176E+00 0.20344014E+04</pdfrwt>
<pdfrwt beam="2">  1       -2 0.22749164E+00 0.20344014E+04</pdfrwt>
<totfact> 0.19570914E+00</totfact>
</mgrwt>
</event>
<event>
12    5  0.5041746E-008  0.1367826E+04  0.7818608E-02  0.8977443E-01
          1   -1    0    0  501    0  0.00000000000E+00  0.00000000000E+00  0.21955163229E+04  0.21955163229E+04  0.00000000000E+00 0. -1.
         -2   -1    0    0    0  501 -0.00000000000E+00 -0.00000000000E+00 -0.21304183691E+03  0.21304183691E+03  0.00000000000E+00 0.  1.
        -24    2    1    2    0    0  0.23752130711E+03  0.21592448372E+03  0.19710748056E+03  0.38625022861E+03  0.85429071240E+02 0.  0.
        254    2    1    2    0    0 -0.23752130711E+03 -0.21592448372E+03  0.17853670054E+04  0.20223079312E+04  0.89395428882E+03 0.  0.
         23    2    4    4    0    0  0.31479250185E+03 -0.84151961822E+02  0.41021711811E+03  0.53176409533E+03  0.91209085011E+02 0.  0.
         23    2    4    4    0    0 -0.55231380896E+03 -0.13177252189E+03  0.13751498873E+04  0.14905438359E+04  0.90934992981E+02 0.  0.
          3    1    3    3  502    0  0.88136725750E+02  0.33261399913E+02  0.75873036481E+02  0.12095917003E+03  0.00000000000E+00 0. -1.
         -4    1    3    3    0  502  0.14938458136E+03  0.18266308380E+03  0.12123444408E+03  0.26529105858E+03  0.00000000000E+00 0.  1.
         13    1    5    5    0    0  0.10768525160E+02  0.58320409745E+01 -0.12496324299E+01  0.12309972269E+02  0.00000000000E+00 0.  1.
        -13    1    5    5    0    0  0.30402397669E+03 -0.89984002797E+02  0.41146675054E+03  0.51945412306E+03  0.00000000000E+00 0. -1.
          2    1    6    6  503    0 -0.50095645711E+03 -0.91709001773E+02  0.11958294496E+04  0.12997599723E+04  0.00000000000E+00 0. -1.
         -2    1    6    6    0  503 -0.51357351854E+02 -0.40063520119E+02  0.17932043771E+03  0.19078386361E+03  0.00000000000E+00 0.  1.
<mgrwt>
<rscale>  0 0.13678258E+04</rscale>
<asrwt>0</asrwt>
<pdfrwt beam="1">  1        1 0.33777173E+00 0.13678258E+04</pdfrwt>
<pdfrwt beam="2">  1       -2 0.32775669E-01 0.13678258E+04</pdfrwt>
<totfact> 0.16377402E+01</totfact>
</mgrwt>
</event>
<event>
12    5  0.5041746E-008  0.2101118E+04  0.7818608E-02  0.8560751E-01
         -2   -1    0    0    0  501 -0.00000000000E+00  0.00000000000E+00  0.88603034599E+03  0.88603034599E+03  0.00000000000E+00 0.  1.
          1   -1    0    0  501    0  0.00000000000E+00 -0.00000000000E+00 -0.12456389148E+04  0.12456389148E+04  0.00000000000E+00 0. -1.
        -24    2    1    2    0    0  0.25371476664E+03 -0.53231931708E+03  0.48544852869E+03  0.76792305495E+03  0.79438694334E+02 0.  0.
        254    2    1    2    0    0 -0.25371476664E+03  0.53231931708E+03 -0.84505709746E+03  0.13637462058E+04  0.89327889135E+03 0.  0.
         23    2    4    4    0    0 -0.37246086368E+03 -0.11887923420E+03 -0.29924529392E+03  0.50112288311E+03  0.93365040315E+02 0.  0.
         23    2    4    4    0    0  0.11874609704E+03  0.65119855128E+03 -0.54581180355E+03  0.86262332270E+03  0.89712224450E+02 0.  0.
          1    1    3    3  502    0  0.80685381345E+02 -0.23018885191E+03  0.16295384064E+03  0.29334449456E+03  0.00000000000E+00 0. -1.
         -4    1    3    3    0  502  0.17302938529E+03 -0.30213046517E+03  0.32249468805E+03  0.47457856039E+03  0.00000000000E+00 0.  1.
         13    1    5    5    0    0 -0.32586838657E+03 -0.12903655803E+03 -0.28385296428E+03  0.45101346322E+03  0.00000000000E+00 0. -1.
        -13    1    5    5    0    0 -0.46592477101E+02  0.10157323834E+02 -0.15392329635E+02  0.50109419888E+02  0.00000000000E+00 0.  1.
          3    1    6    6  503    0  0.10532603259E+03  0.52968223966E+03 -0.48594096517E+03  0.72649533362E+03  0.00000000000E+00 0. -1.
         -3    1    6    6    0  503  0.13420064452E+02  0.12151631162E+03 -0.59870838377E+02  0.13612798907E+03  0.00000000000E+00 0.  1.
<mgrwt>
<rscale>  0 0.21011177E+04</rscale>
<asrwt>0</asrwt>
<pdfrwt beam="1">  1        1 0.19163676E+00 0.21011177E+04</pdfrwt>
<pdfrwt beam="2">  1       -2 0.13631236E+00 0.21011177E+04</pdfrwt>
<totfact> 0.30735648E+00</totfact>
</mgrwt>
</event>
<event>
12    5  0.5041746E-008  0.1758867E+04  0.7818608E-02  0.8728484E-01
          1   -1    0    0  501    0  0.00000000000E+00  0.00000000000E+00  0.13908771576E+04  0.13908771576E+04  0.00000000000E+00 0. -1.
         -2   -1    0    0    0  501 -0.00000000000E+00 -0.00000000000E+00 -0.55605450921E+03  0.55605450921E+03  0.00000000000E+00 0.  1.
        -24    2    1    2    0    0 -0.61179559472E+03 -0.20026465287E+03  0.23666689352E+03  0.69067185544E+03  0.81342562632E+02 0.  0.
        254    2    1    2    0    0  0.61179559472E+03  0.20026465287E+03  0.59815575490E+03  0.12562598114E+04  0.89777426213E+03 0.  0.
         23    2    4    4    0    0  0.41305557862E+02  0.43499517171E+03  0.40826788037E+03  0.60479895013E+03  0.90399996743E+02 0.  0.
         23    2    4    4    0    0  0.57049003686E+03 -0.23473051884E+03  0.18988787453E+03  0.65146086128E+03  0.88241431676E+02 0.  0.
          3    1    3    3  502    0 -0.52346811609E+03 -0.17317586035E+03  0.17083667433E+03  0.57722951801E+03  0.00000000000E+00 0. -1.
         -4    1    3    3    0  502 -0.88327478630E+02 -0.27088792526E+02  0.65830219190E+02  0.11344233742E+03  0.00000000000E+00 0.  1.
         13    1    5    5    0    0 -0.11373366190E+02  0.40490326129E+02  0.13381847808E+02  0.44134950088E+02  0.00000000000E+00 0. -1.
        -13    1    5    5    0    0  0.52678924052E+02  0.39450484558E+03  0.39488603256E+03  0.56066400004E+03  0.00000000000E+00 0.  1.
          4    1    6    6  503    0  0.43858383234E+03 -0.17681497993E+03  0.18356152096E+03  0.50726141889E+03  0.00000000000E+00 0.  1.
         -4    1    6    6    0  503  0.13190620451E+03 -0.57915538908E+02  0.63263535694E+01  0.14419944239E+03  0.00000000000E+00 0. -1.
<mgrwt>
<rscale>  0 0.17588673E+04</rscale>
<asrwt>0</asrwt>
<pdfrwt beam="1">  1        1 0.21398110E+00 0.17588673E+04</pdfrwt>
<pdfrwt beam="2">  1       -2 0.85546848E-01 0.17588673E+04</pdfrwt>
<totfact> 0.76923503E+00</totfact>
</mgrwt>
</event>
<event>
12    5  0.5041746E-008  0.1723524E+04  0.7818608E-02  0.8748060E-01
          1   -1    0    0  501    0  0.00000000000E+00  0.00000000000E+00  0.22830782224E+04  0.22830782224E+04  0.00000000000E+00 0. -1.
         -2   -1    0    0    0  501 -0.00000000000E+00 -0.00000000000E+00 -0.32527729827E+03  0.32527729827E+03  0.00000000000E+00 0.  1.
        -24    2    1    2    0    0  0.67190475056E+02 -0.30703081704E+03  0.15193153779E+04  0.15537483980E+04  0.83859311564E+02 0.  0.
        254    2    1    2    0    0 -0.67190475056E+02  0.30703081704E+03  0.43848554624E+03  0.10546071227E+04  0.90617003175E+03 0.  0.
         23    2    4    4    0    0  0.23899487304E+03  0.46449798480E+03  0.57960643334E+02  0.53321885357E+03  0.89922090735E+02 0.  0.
         23    2    4    4    0    0 -0.30618534809E+03 -0.15746716776E+03  0.38052490290E+03  0.52138826914E+03  0.92201676527E+02 0.  0.
          1    1    3    3  502    0  0.30273490334E+02 -0.19211561991E+03  0.11137535901E+04  0.11306068968E+04  0.00000000000E+00 0. -1.
         -2    1    3    3    0  502  0.36916984723E+02 -0.11491519713E+03  0.40556178776E+03  0.42314150113E+03  0.00000000000E+00 0.  1.
         13    1    5    5    0    0  0.21375281744E+02  0.93675696336E+02  0.36298548238E+02  0.10271135944E+03  0.00000000000E+00 0. -1.
        -13    1    5    5    0    0  0.21761959129E+03  0.37082228847E+03  0.21662095096E+02  0.43050749413E+03  0.00000000000E+00 0.  1.
          1    1    6    6  503    0 -0.72640064745E+02 -0.15028023905E+00  0.10288660877E+03  0.12594544793E+03  0.00000000000E+00 0. -1.
         -1    1    6    6    0  503 -0.23354528335E+03 -0.15731688752E+03  0.27763829413E+03  0.39544282120E+03  0.00000000000E+00 0.  1.
<mgrwt>
<rscale>  0 0.17235237E+04</rscale>
<asrwt>0</asrwt>
<pdfrwt beam="1">  1        1 0.35124279E+00 0.17235237E+04</pdfrwt>
<pdfrwt beam="2">  1       -2 0.50042663E-01 0.17235237E+04</pdfrwt>
<totfact> 0.60270659E+00</totfact>
</mgrwt>
</event>
<event>
12    5  0.5041746E-008  0.2340019E+04  0.7818608E-02  0.8462307E-01
         -2   -1    0    0    0  501 -0.00000000000E+00  0.00000000000E+00  0.53390557325E+03  0.53390557325E+03  0.00000000000E+00 0.  1.
          1   -1    0    0  501    0  0.00000000000E+00 -0.00000000000E+00 -0.25639785946E+04  0.25639785946E+04  0.00000000000E+00 0. -1.
        -24    2    1    2    0    0  0.14194447419E+03 -0.46706032162E+03 -0.19980547519E+04  0.20583678921E+04  0.79762208286E+02 0.  0.
        254    2    1    2    0    0 -0.14194447419E+03  0.46706032162E+03 -0.32018269461E+02  0.10395162758E+04  0.91721063023E+03 0.  0.
         23    2    4    4    0    0  0.17801491718E+03  0.16759093926E+03 -0.38697016133E+03  0.46795048636E+03  0.97240517560E+02 0.  0.
         23    2    4    4    0    0 -0.31995939137E+03  0.29946938235E+03  0.35495189187E+03  0.57156578940E+03  0.92955274044E+02 0.  0.
          1    1    3    3  502    0  0.15110341560E+03 -0.43872405544E+03 -0.19031588043E+04  0.19589090008E+04  0.00000000000E+00 0. -1.
         -2    1    3    3    0  502 -0.91589414097E+01 -0.28336266172E+02 -0.94895947588E+02  0.99458891292E+02  0.00000000000E+00 0.  1.
         13    1    5    5    0    0  0.94119847656E+02  0.15047944610E+03 -0.25941786761E+03  0.31432505381E+03  0.00000000000E+00 0.  1.
        -13    1    5    5    0    0  0.83895069526E+02  0.17111493166E+02 -0.12755229373E+03  0.15362543254E+03  0.00000000000E+00 0. -1.
          4    1    6    6  503    0 -0.12032445941E+02  0.12615464627E+02 -0.46198207883E+01  0.18035311120E+02  0.00000000000E+00 0. -1.
         -4    1    6    6    0  503 -0.30792694543E+03  0.28685391773E+03  0.35957171266E+03  0.55353047828E+03  0.00000000000E+00 0.  1.
<mgrwt>
<rscale>  0 0.23400192E+04</rscale>
<asrwt>0</asrwt>
<pdfrwt beam="1">  1        1 0.39445825E+00 0.23400192E+04</pdfrwt>
<pdfrwt beam="2">  1       -2 0.82139318E-01 0.23400192E+04</pdfrwt>
<totfact> 0.12606552E+00</totfact>
</mgrwt>
</event>
<event>
12    5  0.5041746E-008  0.2444708E+04  0.7818608E-02  0.8422953E-01
         -2   -1    0    0    0  501 -0.00000000000E+00  0.00000000000E+00  0.15904720714E+04  0.15904720714E+04  0.00000000000E+00 0.  1.
          1   -1    0    0  501    0  0.00000000000E+00 -0.00000000000E+00 -0.93943746602E+03  0.93943746602E+03  0.00000000000E+00 0. -1.
        -24    2    1    2    0    0  0.38900329555E+03 -0.49136183202E+03 -0.60466147190E+03  0.87438770337E+03  0.78602457274E+02 0.  0.
        254    2    1    2    0    0 -0.38900329555E+03  0.49136183202E+03  0.12556960773E+04  0.16555218340E+04  0.87819126084E+03 0.  0.
         23    2    4    4    0    0 -0.35049702975E+03  0.71540169031E+03  0.77101309198E+03  0.11124684518E+04  0.92071287055E+02 0.  0.
         23    2    4    4    0    0 -0.38506265804E+02 -0.22403985829E+03  0.48468298528E+03  0.54305338223E+03  0.91174498213E+02 0.  0.
          3    1    3    3  502    0  0.16624571486E+03 -0.20926473545E+03 -0.20472901008E+03  0.33666501865E+03  0.00000000000E+00 0. -1.
         -4    1    3    3    0  502  0.22275758069E+03 -0.28209709656E+03 -0.39993246181E+03  0.53772268471E+03  0.00000000000E+00 0.  1.
         13    1    5    5    0    0 -0.26280300134E+03  0.49617551831E+03  0.59399842742E+03  0.81736753928E+03  0.00000000000E+00 0.  1.
        -13    1    5    5    0    0 -0.87694028409E+02  0.21922617199E+03  0.17701466456E+03  0.29510091253E+03  0.00000000000E+00 0. -1.
          4    1    6    6  503    0  0.23876544065E+02 -0.34456142117E+02  0.53903266963E+02  0.68285263969E+02  0.00000000000E+00 0.  1.
         -4    1    6    6    0  503 -0.62382809869E+02 -0.18958371617E+03  0.43077971832E+03  0.47476811826E+03  0.00000000000E+00 0. -1.
<mgrwt>
<rscale>  0 0.24447078E+04</rscale>
<asrwt>0</asrwt>
<pdfrwt beam="1">  1        1 0.14452884E+00 0.24447078E+04</pdfrwt>
<pdfrwt beam="2">  1       -2 0.24468801E+00 0.24447078E+04</pdfrwt>
<totfact> 0.91667403E-01</totfact>
</mgrwt>
</event>
<event>
12    5  0.5041746E-008  0.1196542E+04  0.7818608E-02  0.9115888E-01
         -2   -1    0    0    0  501 -0.00000000000E+00  0.00000000000E+00  0.40714227544E+03  0.40714227544E+03  0.00000000000E+00 0.  1.
          1   -1    0    0  501    0  0.00000000000E+00 -0.00000000000E+00 -0.87912375619E+03  0.87912375619E+03  0.00000000000E+00 0. -1.
        -24    2    1    2    0    0  0.30818376072E+02  0.31510878834E+02  0.15112296030E+03  0.17658241905E+03  0.80003086182E+02 0.  0.
        254    2    1    2    0    0 -0.30818376072E+02 -0.31510878834E+02 -0.62310444106E+03  0.11096836126E+04  0.91716730631E+03 0.  0.
         23    2    4    4    0    0  0.35494807485E+03 -0.26229428463E+03 -0.23024933962E+03  0.50588040825E+03  0.90076642131E+02 0.  0.
         23    2    4    4    0    0 -0.38576645092E+03  0.23078340580E+03 -0.39285510143E+03  0.60380320433E+03  0.90368378259E+02 0.  0.
          3    1    3    3  502    0  0.40490420593E+02  0.53547855927E+02  0.10679343841E+03  0.12614152972E+03  0.00000000000E+00 0. -1.
         -4    1    3    3    0  502 -0.96720445211E+01 -0.22036977093E+02  0.44329521895E+02  0.50440889327E+02  0.00000000000E+00 0.  1.
         13    1    5    5    0    0 -0.31714915255E+01  0.32422957357E+01 -0.33450024991E+01  0.56355906393E+01  0.00000000000E+00 0.  1.
        -13    1    5    5    0    0  0.35811956638E+03 -0.26553658037E+03 -0.22690433713E+03  0.50024481761E+03  0.00000000000E+00 0. -1.
          1    1    6    6  503    0 -0.27373079457E+03  0.12583094815E+03 -0.22277814702E+03  0.37468930889E+03  0.00000000000E+00 0. -1.
         -1    1    6    6    0  503 -0.11203565635E+03  0.10495245765E+03 -0.17007695442E+03  0.22911389544E+03  0.00000000000E+00 0.  1.
<mgrwt>
<rscale>  0 0.11965424E+04</rscale>
<asrwt>0</asrwt>
<pdfrwt beam="1">  1        1 0.13524981E+00 0.11965424E+04</pdfrwt>
<pdfrwt beam="2">  1       -2 0.62637273E-01 0.11965424E+04</pdfrwt>
<totfact> 0.38830073E+01</totfact>
</mgrwt>
</event>
<event>
12    5  0.5041746E-008  0.1460561E+04  0.7818608E-02  0.8911111E-01
          1   -1    0    0  501    0  0.00000000000E+00  0.00000000000E+00  0.25399722157E+04  0.25399722157E+04  0.00000000000E+00 0. -1.
         -2   -1    0    0    0  501 -0.00000000000E+00 -0.00000000000E+00 -0.20996682475E+03  0.20996682475E+03  0.00000000000E+00 0.  1.
        -24    2    1    2    0    0  0.12556185563E+03 -0.29457109357E+03  0.13664748375E+04  0.14058524077E+04  0.81422368416E+02 0.  0.
        254    2    1    2    0    0 -0.12556185563E+03  0.29457109357E+03  0.96353055352E+03  0.13440866328E+04  0.88070417285E+03 0.  0.
         23    2    4    4    0    0 -0.42014279578E+02 -0.41868979223E+02 -0.14320534611E+03  0.18071894593E+03  0.92915849865E+02 0.  0.
         23    2    4    4    0    0 -0.83547576056E+02  0.33644007279E+03  0.11067358996E+04  0.11633676868E+04  0.91585496709E+02 0.  0.
          1    1    3    3  502    0  0.10272741819E+03 -0.26251928528E+03  0.12824547233E+04  0.13130725094E+04  0.00000000000E+00 0. -1.
         -2    1    3    3    0  502  0.22834437442E+02 -0.32051808290E+02  0.84020114131E+02  0.92779898289E+02  0.00000000000E+00 0.  1.
         13    1    5    5    0    0 -0.47323302818E+02 -0.18828770590E+02 -0.19121710651E+02  0.54402733477E+02  0.00000000000E+00 0. -1.
        -13    1    5    5    0    0  0.53090232394E+01 -0.23040208632E+02 -0.12408363546E+03  0.12631621246E+03  0.00000000000E+00 0.  1.
          1    1    6    6  503    0  0.29671507251E+01  0.91598163415E+02  0.19660335909E+03  0.21691451849E+03  0.00000000000E+00 0. -1.
         -1    1    6    6    0  503 -0.86514726781E+02  0.24484190938E+03  0.91013254053E+03  0.94645316835E+03  0.00000000000E+00 0.  1.
<mgrwt>
<rscale>  0 0.14605614E+04</rscale>
<asrwt>0</asrwt>
<pdfrwt beam="1">  1        1 0.39076493E+00 0.14605614E+04</pdfrwt>
<pdfrwt beam="2">  1       -2 0.32302590E-01 0.14605614E+04</pdfrwt>
<totfact> 0.96938702E+00</totfact>
</mgrwt>
</event>
<event>
12    5  0.5041746E-008  0.1454475E+04  0.7818608E-02  0.8915304E-01
          1   -1    0    0  501    0  0.00000000000E+00  0.00000000000E+00  0.14629219222E+04  0.14629219222E+04  0.00000000000E+00 0. -1.
         -2   -1    0    0    0  501 -0.00000000000E+00 -0.00000000000E+00 -0.36151925750E+03  0.36151925750E+03  0.00000000000E+00 0.  1.
        -24    2    1    2    0    0  0.42761300801E+03  0.32453723319E+02  0.45861857004E+03  0.63298992081E+03  0.80244116839E+02 0.  0.
        254    2    1    2    0    0 -0.42761300801E+03 -0.32453723319E+02  0.64278409469E+03  0.11914512589E+04  0.90690604872E+03 0.  0.
         23    2    4    4    0    0 -0.68424920756E+03 -0.10993880186E+03  0.56398345466E+03  0.89799814027E+03  0.89664957465E+02 0.  0.
         23    2    4    4    0    0  0.25663619954E+03  0.77485078544E+02  0.78800640028E+02  0.29345311864E+03  0.89661115649E+02 0.  0.
          1    1    3    3  502    0  0.35930398307E+03  0.14294208988E+02  0.41831121153E+03  0.55162301108E+03  0.00000000000E+00 0. -1.
         -2    1    3    3    0  502  0.68309024945E+02  0.18159514330E+02  0.40307358504E+02  0.81366909731E+02  0.00000000000E+00 0.  1.
         13    1    5    5    0    0 -0.60848639095E+03 -0.77247108754E+02  0.52196463391E+03  0.80540044875E+03  0.00000000000E+00 0.  1.
        -13    1    5    5    0    0 -0.75762816605E+02 -0.32691693108E+02  0.42018820748E+02  0.92597691523E+02  0.00000000000E+00 0. -1.
          2    1    6    6  503    0  0.13345479526E+03  0.70616452345E+02  0.78295034065E+02  0.17007932878E+03  0.00000000000E+00 0. -1.
         -2    1    6    6    0  503  0.12318140429E+03  0.68686261989E+01  0.50560596228E+00  0.12337378986E+03  0.00000000000E+00 0.  1.
<mgrwt>
<rscale>  0 0.14544751E+04</rscale>
<asrwt>0</asrwt>
<pdfrwt beam="1">  1        1 0.22506491E+00 0.14544751E+04</pdfrwt>
<pdfrwt beam="2">  1       -2 0.55618348E-01 0.14544751E+04</pdfrwt>
<totfact> 0.17961221E+01</totfact>
</mgrwt>
</event>
<event>
12    5  0.5041746E-008  0.3049150E+04  0.7818608E-02  0.8229833E-01
         -2   -1    0    0    0  501 -0.00000000000E+00  0.00000000000E+00  0.14320426240E+04  0.14320426240E+04  0.00000000000E+00 0.  1.
          1   -1    0    0  501    0  0.00000000000E+00 -0.00000000000E+00 -0.16230863509E+04  0.16230863509E+04  0.00000000000E+00 0. -1.
        -24    2    1    2    0    0  0.17348924703E+02 -0.11022641372E+04 -0.93469804507E+03  0.14478018597E+04  0.84750080198E+02 0.  0.
        254    2    1    2    0    0 -0.17348924703E+02  0.11022641372E+04  0.74365431815E+03  0.16073271153E+04  0.90287955861E+03 0.  0.
         23    2    4    4    0    0 -0.13457493729E+03 -0.11459349456E+03  0.59258457302E+02  0.20326740308E+03  0.81018452535E+02 0.  0.
         23    2    4    4    0    0  0.11722601259E+03  0.12168576317E+04  0.68439586084E+03  0.14040597122E+04  0.92203834964E+02 0.  0.
          1    1    3    3  502    0  0.34240564842E+02 -0.72756014070E+03 -0.65966607735E+03  0.98268789970E+03  0.00000000000E+00 0. -1.
         -2    1    3    3    0  502 -0.16891640139E+02 -0.37470399648E+03 -0.27503196772E+03  0.46511395996E+03  0.00000000000E+00 0.  1.
         13    1    5    5    0    0 -0.12573079930E+03 -0.69255650870E+02  0.24873405295E+02  0.14568206945E+03  0.00000000000E+00 0.  1.
        -13    1    5    5    0    0 -0.88441379909E+01 -0.45337843688E+02  0.34385052007E+02  0.57585333624E+02  0.00000000000E+00 0. -1.
          2    1    6    6  503    0 -0.71231312301E+01  0.34716328031E+03  0.20499471863E+03  0.40323184008E+03  0.00000000000E+00 0. -1.
         -2    1    6    6    0  503  0.12434914382E+03  0.86969435143E+03  0.47940114222E+03  0.10008278721E+04  0.00000000000E+00 0.  1.
<mgrwt>
<rscale>  0 0.30491499E+04</rscale>
<asrwt>0</asrwt>
<pdfrwt beam="1">  1        1 0.24970559E+00 0.30491499E+04</pdfrwt>
<pdfrwt beam="2">  1       -2 0.22031425E+00 0.30491499E+04</pdfrwt>
<totfact> 0.39410904E-01</totfact>
</mgrwt>
</event>
<event>
12    5  0.5041746E-008  0.2312426E+04  0.7818608E-02  0.8473038E-01
          1   -1    0    0  501    0  0.00000000000E+00  0.00000000000E+00  0.16959136148E+04  0.16959136148E+04  0.00000000000E+00 0. -1.
         -2   -1    0    0    0  501 -0.00000000000E+00 -0.00000000000E+00 -0.78826469899E+03  0.78826469899E+03  0.00000000000E+00 0.  1.
        -24    2    1    2    0    0 -0.73815099681E+03  0.21457958190E+03  0.98916949847E+03  0.12553234853E+04  0.80432983953E+02 0.  0.
        254    2    1    2    0    0  0.73815099681E+03 -0.21457958190E+03 -0.81520582708E+02  0.12288548285E+04  0.95526294443E+03 0.  0.
         23    2    4    4    0    0  0.63075085901E+03 -0.20964122129E+03 -0.46796424187E+03  0.81794138310E+03  0.90782634434E+02 0.  0.
         23    2    4    4    0    0  0.10740013780E+03 -0.49383606091E+01  0.38644365916E+03  0.41091344537E+03  0.89173879992E+02 0.  0.
          1    1    3    3  502    0 -0.72800255599E+03  0.21847564501E+03  0.98375611485E+03  0.12431795616E+04  0.00000000000E+00 0. -1.
         -2    1    3    3    0  502 -0.10148440818E+02 -0.38960631084E+01  0.54133836248E+01  0.12143923627E+02  0.00000000000E+00 0.  1.
         13    1    5    5    0    0  0.71071878030E+02 -0.37917038656E+02 -0.91533058595E+02  0.12193118749E+03  0.00000000000E+00 0. -1.
        -13    1    5    5    0    0  0.55967898098E+03 -0.17172418264E+03 -0.37643118328E+03  0.69601019561E+03  0.00000000000E+00 0.  1.
          4    1    6    6  503    0 -0.18136103429E+01 -0.23511985051E+02  0.33322545272E+02  0.40822722189E+02  0.00000000000E+00 0. -1.
         -4    1    6    6    0  503  0.10921374815E+03  0.18573624442E+02  0.35312111389E+03  0.37009072318E+03  0.00000000000E+00 0.  1.
<mgrwt>
<rscale>  0 0.23124263E+04</rscale>
<asrwt>0</asrwt>
<pdfrwt beam="1">  1        1 0.26090979E+00 0.23124263E+04</pdfrwt>
<pdfrwt beam="2">  1       -2 0.12127149E+00 0.23124263E+04</pdfrwt>
<totfact> 0.19674765E+00</totfact>
</mgrwt>
</event>
<event>
12    5  0.5041746E-008  0.1230854E+04  0.7818608E-02  0.9086270E-01
          1   -1    0    0  501    0  0.00000000000E+00  0.00000000000E+00  0.74671759811E+03  0.74671759811E+03  0.00000000000E+00 0. -1.
         -2   -1    0    0    0  501 -0.00000000000E+00 -0.00000000000E+00 -0.50722078998E+03  0.50722078998E+03  0.00000000000E+00 0.  1.
        -24    2    1    2    0    0  0.24816481722E+03 -0.79399301028E+02 -0.35942062959E+02  0.27511865459E+03  0.80674758759E+02 0.  0.
        254    2    1    2    0    0 -0.24816481722E+03  0.79399301028E+02  0.27543887109E+03  0.97881973350E+03  0.90240316570E+03 0.  0.
         23    2    4    4    0    0  0.28961067118E+03  0.12915045309E+03  0.27882409299E+03  0.43212234012E+03  0.91829524657E+02 0.  0.
         23    2    4    4    0    0 -0.53777548841E+03 -0.49751152063E+02 -0.33852219059E+01  0.54669739338E+03  0.84787541174E+02 0.  0.
          1    1    3    3  502    0  0.60978702164E+02  0.88883927498E-01  0.20044205064E+02  0.64188629636E+02  0.00000000000E+00 0. -1.
         -2    1    3    3    0  502  0.18718611506E+03 -0.79488184956E+02 -0.55986268023E+02  0.21093002495E+03  0.00000000000E+00 0.  1.
         13    1    5    5    0    0  0.59441886163E+02  0.55379331683E+01  0.96709662407E+02  0.11365194823E+03  0.00000000000E+00 0.  1.
        -13    1    5    5    0    0  0.23016878502E+03  0.12361251992E+03  0.18211443059E+03  0.31847039189E+03  0.00000000000E+00 0. -1.
          1    1    6    6  503    0 -0.67682287376E+02  0.59198807508E+01  0.25183639742E+02  0.72457937614E+02  0.00000000000E+00 0. -1.
         -1    1    6    6    0  503 -0.47009320103E+03 -0.55671032813E+02 -0.28568861648E+02  0.47423945577E+03  0.00000000000E+00 0.  1.
<mgrwt>
<rscale>  0 0.12308545E+04</rscale>
<asrwt>0</asrwt>
<pdfrwt beam="1">  1        1 0.11487963E+00 0.12308545E+04</pdfrwt>
<pdfrwt beam="2">  1       -2 0.78033968E-01 0.12308545E+04</pdfrwt>
<totfact> 0.31188230E+01</totfact>
</mgrwt>
</event>
<event>
12    5  0.5041746E-008  0.1339922E+04  0.7818608E-02  0.8998493E-01
         -2   -1    0    0    0  501 -0.00000000000E+00  0.00000000000E+00  0.83787125019E+03  0.83787125019E+03  0.00000000000E+00 0.  1.
          1   -1    0    0  501    0  0.00000000000E+00 -0.00000000000E+00 -0.53569980657E+03  0.53569980657E+03  0.00000000000E+00 0. -1.
        -24    2    1    2    0    0  0.91665416487E+02  0.29920390684E+03  0.38150523676E+02  0.32534870746E+03  0.80441236580E+02 0.  0.
        254    2    1    2    0    0 -0.91665416487E+02 -0.29920390684E+03  0.26402091995E+03  0.10482223493E+04  0.96495467300E+03 0.  0.
         23    2    4    4    0    0 -0.24417544077E+03  0.29083720403E+03  0.16587600561E+03  0.42390525788E+03  0.89291059455E+02 0.  0.
         23    2    4    4    0    0  0.15251002428E+03 -0.59004111087E+03  0.98144914346E+02  0.62431709142E+03  0.93442958004E+02 0.  0.
          1    1    3    3  502    0  0.89942624604E+01  0.38053650949E+01 -0.10975033360E+02  0.14691116975E+02  0.00000000000E+00 0. -1.
         -2    1    3    3    0  502  0.82671154026E+02  0.29539854175E+03  0.49125557036E+02  0.31065759049E+03  0.00000000000E+00 0.  1.
         13    1    5    5    0    0 -0.24719534888E+02 -0.73012874988E+00  0.15647712910E+02  0.29264986116E+02  0.00000000000E+00 0. -1.
        -13    1    5    5    0    0 -0.21945590588E+03  0.29156733278E+03  0.15022829270E+03  0.39464027176E+03  0.00000000000E+00 0.  1.
          4    1    6    6  503    0  0.46529247036E+02 -0.68963507948E+02  0.28962564286E+02  0.88089536202E+02  0.00000000000E+00 0. -1.
         -4    1    6    6    0  503  0.10598077725E+03 -0.52107760292E+03  0.69182350060E+02  0.53622755522E+03  0.00000000000E+00 0.  1.
<mgrwt>
<rscale>  0 0.13399216E+04</rscale>
<asrwt>0</asrwt>
<pdfrwt beam="1">  1        1 0.82415355E-01 0.13399216E+04</pdfrwt>
<pdfrwt beam="2">  1       -2 0.12890327E+00 0.13399216E+04</pdfrwt>
<totfact> 0.15299481E+01</totfact>
</mgrwt>
</event>
<event>
12    5  0.5041746E-008  0.1860391E+04  0.7818608E-02  0.8674828E-01
          1   -1    0    0  501    0  0.00000000000E+00  0.00000000000E+00  0.11822568535E+04  0.11822568535E+04  0.00000000000E+00 0. -1.
         -2   -1    0    0    0  501 -0.00000000000E+00 -0.00000000000E+00 -0.73187429323E+03  0.73187429323E+03  0.00000000000E+00 0.  1.
        -24    2    1    2    0    0 -0.20127173981E+03 -0.34479855882E+03  0.77136439987E+03  0.87226074672E+03  0.80245956178E+02 0.  0.
        254    2    1    2    0    0  0.20127173981E+03  0.34479855882E+03 -0.32098183964E+03  0.10418704000E+04  0.90723107836E+03 0.  0.
         23    2    4    4    0    0 -0.16692266289E+03  0.34297926548E+03  0.16470187523E+03  0.42534943728E+03  0.91090527249E+02 0.  0.
         23    2    4    4    0    0  0.36819440269E+03  0.18192933378E+01 -0.48568371488E+03  0.61652096269E+03  0.92946213124E+02 0.  0.
          3    1    3    3  502    0 -0.17215438019E+03 -0.32031007547E+03  0.64679007679E+03  0.74200611756E+03  0.00000000000E+00 0. -1.
         -4    1    3    3    0  502 -0.29117359614E+02 -0.24488483352E+02  0.12457432308E+03  0.13025462916E+03  0.00000000000E+00 0.  1.
         13    1    5    5    0    0 -0.47462721648E+01  0.44981288123E+02 -0.58769820028E+01  0.45611208032E+02  0.00000000000E+00 0.  1.
        -13    1    5    5    0    0 -0.16217639072E+03  0.29799797736E+03  0.17057885723E+03  0.37973822925E+03  0.00000000000E+00 0. -1.
          3    1    6    6  503    0  0.30345764723E+03 -0.11949327129E+02 -0.44526136725E+03  0.53896847333E+03  0.00000000000E+00 0. -1.
         -3    1    6    6    0  503  0.64736755464E+02  0.13768620466E+02 -0.40422347626E+02  0.77552489355E+02  0.00000000000E+00 0.  1.
<mgrwt>
<rscale>  0 0.18603907E+04</rscale>
<asrwt>0</asrwt>
<pdfrwt beam="1">  1        1 0.18188567E+00 0.18603907E+04</pdfrwt>
<pdfrwt beam="2">  1       -2 0.11259605E+00 0.18603907E+04</pdfrwt>
<totfact> 0.56288346E+00</totfact>
</mgrwt>
</event>
<event>
12    5  0.5041746E-008  0.1584636E+04  0.7818608E-02  0.8830043E-01
         -2   -1    0    0    0  501 -0.00000000000E+00  0.00000000000E+00  0.55508841657E+03  0.55508841657E+03  0.00000000000E+00 0.  1.
          1   -1    0    0  501    0  0.00000000000E+00 -0.00000000000E+00 -0.11309333244E+04  0.11309333244E+04  0.00000000000E+00 0. -1.
        -24    2    1    2    0    0 -0.23157510410E+03 -0.15136831210E+02  0.32190364614E+03  0.40565076781E+03  0.84109663721E+02 0.  0.
        254    2    1    2    0    0  0.23157510410E+03  0.15136831210E+02 -0.89774855402E+03  0.12803709732E+04  0.88291630990E+03 0.  0.
         23    2    4    4    0    0  0.50097849462E+03  0.16530602354E+03 -0.33165750685E+03  0.62936476042E+03  0.88304961987E+02 0.  0.
         23    2    4    4    0    0 -0.26940339052E+03 -0.15016919233E+03 -0.56609104717E+03  0.65100621279E+03  0.90669963356E+02 0.  0.
          3    1    3    3  502    0 -0.15652104190E+02  0.19681226265E+02  0.55769821507E+02  0.61176891256E+02  0.00000000000E+00 0. -1.
         -4    1    3    3    0  502 -0.21592299991E+03 -0.34818057475E+02  0.26613382463E+03  0.34447387656E+03  0.00000000000E+00 0.  1.
         13    1    5    5    0    0  0.40442944361E+03  0.14846283886E+03 -0.23085986393E+03  0.48877465785E+03  0.00000000000E+00 0.  1.
        -13    1    5    5    0    0  0.96549051009E+02  0.16843184682E+02 -0.10079764292E+03  0.14059010257E+03  0.00000000000E+00 0. -1.
          1    1    6    6  503    0 -0.80446864337E+01  0.70136634256E+01 -0.37988964931E+01  0.11328727600E+02  0.00000000000E+00 0. -1.
         -1    1    6    6    0  503 -0.26135870409E+03 -0.15718285575E+03 -0.56229215067E+03  0.63967748519E+03  0.00000000000E+00 0.  1.
<mgrwt>
<rscale>  0 0.15846362E+04</rscale>
<asrwt>0</asrwt>
<pdfrwt beam="1">  1        1 0.17398974E+00 0.15846362E+04</pdfrwt>
<pdfrwt beam="2">  1       -2 0.85398219E-01 0.15846362E+04</pdfrwt>
<totfact> 0.12071926E+01</totfact>
</mgrwt>
</event>
<event>
12    5  0.5041746E-008  0.1484853E+04  0.7818608E-02  0.8894588E-01
          1   -1    0    0  501    0  0.00000000000E+00  0.00000000000E+00  0.10352805465E+04  0.10352805465E+04  0.00000000000E+00 0. -1.
         -2   -1    0    0    0  501 -0.00000000000E+00 -0.00000000000E+00 -0.53241343629E+03  0.53241343629E+03  0.00000000000E+00 0.  1.
        -24    2    1    2    0    0  0.20561284061E+03  0.22663335367E+03  0.53241102219E+03  0.62052054981E+03  0.89134387155E+02 0.  0.
        254    2    1    2    0    0 -0.20561284061E+03 -0.22663335367E+03 -0.29543912016E+02  0.94717343295E+03  0.89589360536E+03 0.  0.
         23    2    4    4    0    0 -0.95483916149E+02  0.14862881400E+03  0.34467644719E+03  0.39829331450E+03  0.92887074080E+02 0.  0.
         23    2    4    4    0    0 -0.11012892446E+03 -0.37526216767E+03 -0.37422035921E+03  0.54888011845E+03  0.90985892884E+02 0.  0.
          3    1    3    3  502    0  0.11240919352E+03  0.16331408436E+03  0.40159035492E+03  0.44786396384E+03  0.00000000000E+00 0. -1.
         -4    1    3    3    0  502  0.93203647088E+02  0.63319269309E+02  0.13082066727E+03  0.17265658598E+03  0.00000000000E+00 0.  1.
         13    1    5    5    0    0 -0.10131886090E+03  0.76628688325E+02  0.20874966992E+03  0.24436426117E+03  0.00000000000E+00 0.  1.
        -13    1    5    5    0    0  0.58349447489E+01  0.72000125673E+02  0.13592677727E+03  0.15392905332E+03  0.00000000000E+00 0. -1.
          2    1    6    6  503    0 -0.10255364633E+03 -0.20004303135E+03 -0.18773576941E+03  0.29288083564E+03  0.00000000000E+00 0. -1.
         -2    1    6    6    0  503 -0.75752781255E+01 -0.17521913632E+03 -0.18648458980E+03  0.25599928282E+03  0.00000000000E+00 0.  1.
<mgrwt>
<rscale>  0 0.14848532E+04</rscale>
<asrwt>0</asrwt>
<pdfrwt beam="1">  1        1 0.15927393E+00 0.14848532E+04</pdfrwt>
<pdfrwt beam="2">  1       -2 0.81909759E-01 0.14848532E+04</pdfrwt>
<totfact> 0.15809764E+01</totfact>
</mgrwt>
</event>
<event>
12    5  0.5041746E-008  0.1328692E+04  0.7818608E-02  0.9007117E-01
         -2   -1    0    0    0  501 -0.00000000000E+00  0.00000000000E+00  0.26011761121E+03  0.26011761121E+03  0.00000000000E+00 0.  1.
          1   -1    0    0  501    0  0.00000000000E+00 -0.00000000000E+00 -0.16967533747E+04  0.16967533747E+04  0.00000000000E+00 0. -1.
        -24    2    1    2    0    0  0.14520315743E+03  0.45035517154E+02  0.77085410903E+02  0.18852430392E+03  0.80542522072E+02 0.  0.
        254    2    1    2    0    0 -0.14520315743E+03 -0.45035517154E+02 -0.15137211744E+04  0.17683466820E+04  0.90143554355E+03 0.  0.
         23    2    4    4    0    0  0.22395660958E+01 -0.20283758987E+03 -0.15171439451E+04  0.15333758603E+04  0.91474998576E+02 0.  0.
         23    2    4    4    0    0 -0.14744272353E+03  0.15780207272E+03  0.34227707056E+01  0.23497082166E+03  0.92513354710E+02 0.  0.
          3    1    3    3  502    0 -0.56048115918E+01 -0.40054321375E+01  0.18034250317E+02  0.19305221679E+02  0.00000000000E+00 0. -1.
         -4    1    3    3    0  502  0.15080796903E+03  0.49040949291E+02  0.59051160586E+02  0.16921908224E+03  0.00000000000E+00 0.  1.
         13    1    5    5    0    0  0.14468829357E+02 -0.10113685026E+02 -0.40795748944E+02  0.44451397949E+02  0.00000000000E+00 0. -1.
        -13    1    5    5    0    0 -0.12229263261E+02 -0.19272390484E+03 -0.14763481962E+04  0.14889244624E+04  0.00000000000E+00 0.  1.
          1    1    6    6  503    0 -0.10376992634E+02 -0.99291170439E+01 -0.10683605871E+02  0.17899965804E+02  0.00000000000E+00 0. -1.
         -1    1    6    6    0  503 -0.13706573090E+03  0.16773118976E+03  0.14106376577E+02  0.21707085586E+03  0.00000000000E+00 0.  1.
<mgrwt>
<rscale>  0 0.13286917E+04</rscale>
<asrwt>0</asrwt>
<pdfrwt beam="1">  1        1 0.26103898E+00 0.13286917E+04</pdfrwt>
<pdfrwt beam="2">  1       -2 0.40018095E-01 0.13286917E+04</pdfrwt>
<totfact> 0.24361920E+01</totfact>
</mgrwt>
</event>
<event>
12    5  0.5041746E-008  0.1757056E+04  0.7818608E-02  0.8729476E-01
          1   -1    0    0  501    0  0.00000000000E+00  0.00000000000E+00  0.11614300351E+04  0.11614300351E+04  0.00000000000E+00 0. -1.
         -2   -1    0    0    0  501 -0.00000000000E+00 -0.00000000000E+00 -0.66453542690E+03  0.66453542690E+03  0.00000000000E+00 0.  1.
        -24    2    1    2    0    0 -0.29448450198E+03  0.44490731115E+03  0.52972724716E+03  0.75598026792E+03  0.78940304491E+02 0.  0.
        254    2    1    2    0    0  0.29448450198E+03 -0.44490731115E+03 -0.32832638993E+02  0.10699851941E+04  0.92689087593E+03 0.  0.
         23    2    4    4    0    0  0.98423743590E+02 -0.59160041009E+03  0.27515699997E+03  0.66617641707E+03  0.91658963038E+02 0.  0.
         23    2    4    4    0    0  0.19606075839E+03  0.14669309895E+03 -0.30798963896E+03  0.40380877698E+03  0.90803218012E+02 0.  0.
          1    1    3    3  502    0 -0.16978745917E+03  0.31675211984E+03  0.37658815809E+03  0.52055578714E+03  0.00000000000E+00 0. -1.
         -2    1    3    3    0  502 -0.12469704282E+03  0.12815519131E+03  0.15313908907E+03  0.23542448078E+03  0.00000000000E+00 0.  1.
         13    1    5    5    0    0  0.64264632697E+02 -0.21513331184E+03  0.14066229865E+03  0.26494936713E+03  0.00000000000E+00 0. -1.
        -13    1    5    5    0    0  0.34159110894E+02 -0.37646709825E+03  0.13449470131E+03  0.40122704994E+03  0.00000000000E+00 0.  1.
          2    1    6    6  503    0  0.12042610750E+03  0.54197062485E+02 -0.21535976491E+03  0.25262540904E+03  0.00000000000E+00 0. -1.
         -2    1    6    6    0  503  0.75634650890E+02  0.92496036461E+02 -0.92629874053E+02  0.15118336795E+03  0.00000000000E+00 0.  1.
<mgrwt>
<rscale>  0 0.17570560E+04</rscale>
<asrwt>0</asrwt>
<pdfrwt beam="1">  1        1 0.17868154E+00 0.17570560E+04</pdfrwt>
<pdfrwt beam="2">  1       -2 0.10223622E+00 0.17570560E+04</pdfrwt>
<totfact> 0.74249110E+00</totfact>
</mgrwt>
</event>
<event>
12    5  0.5041746E-008  0.1822759E+04  0.7818608E-02  0.8694289E-01
          1   -1    0    0  501    0  0.00000000000E+00  0.00000000000E+00  0.18935863025E+04  0.18935863025E+04  0.00000000000E+00 0. -1.
         -2   -1    0    0    0  501 -0.00000000000E+00 -0.00000000000E+00 -0.43864546514E+03  0.43864546514E+03  0.00000000000E+00 0.  1.
        -24    2    1    2    0    0  0.21826498858E+03  0.57430699762E+03  0.96548395379E+03  0.11470639766E+04  0.78283897726E+02 0.  0.
        254    2    1    2    0    0 -0.21826498858E+03 -0.57430699762E+03  0.48945688357E+03  0.11851677910E+04  0.88746071423E+03 0.  0.
         23    2    4    4    0    0  0.28805789888E+03 -0.18161161184E+02  0.38787093999E+02  0.30347915105E+03  0.85369640831E+02 0.  0.
         23    2    4    4    0    0 -0.50632288746E+03 -0.55614583644E+03  0.45066978957E+03  0.88168864000E+03  0.92793000335E+02 0.  0.
          3    1    3    3  502    0  0.15059086204E+03  0.43578389385E+03  0.77766967199E+03  0.90407705900E+03  0.00000000000E+00 0. -1.
         -4    1    3    3    0  502  0.67674126541E+02  0.13852310377E+03  0.18781428180E+03  0.24298691761E+03  0.00000000000E+00 0.  1.
         13    1    5    5    0    0  0.26642327304E+03 -0.36877622666E+02  0.48433564836E+02  0.27328946133E+03  0.00000000000E+00 0. -1.
        -13    1    5    5    0    0  0.21634625845E+02  0.18716461482E+02 -0.96464708367E+01  0.30189689721E+02  0.00000000000E+00 0.  1.
          1    1    6    6  503    0 -0.11450469325E+03 -0.10115035556E+03  0.13203699354E+03  0.20193188671E+03  0.00000000000E+00 0. -1.
         -1    1    6    6    0  503 -0.39181819421E+03 -0.45499548087E+03  0.31863279603E+03  0.67975675328E+03  0.00000000000E+00 0.  1.
<mgrwt>
<rscale>  0 0.18227595E+04</rscale>
<asrwt>0</asrwt>
<pdfrwt beam="1">  1        1 0.29132097E+00 0.18227595E+04</pdfrwt>
<pdfrwt beam="2">  1       -2 0.67483919E-01 0.18227595E+04</pdfrwt>
<totfact> 0.58584722E+00</totfact>
</mgrwt>
</event>
<event>
12    5  0.5041746E-008  0.2592841E+04  0.7818608E-02  0.8370637E-01
          1   -1    0    0  501    0  0.00000000000E+00  0.00000000000E+00  0.11796884324E+04  0.11796884324E+04  0.00000000000E+00 0. -1.
         -2   -1    0    0    0  501 -0.00000000000E+00 -0.00000000000E+00 -0.14247032989E+04  0.14247032989E+04  0.00000000000E+00 0.  1.
        -24    2    1    2    0    0  0.11013052968E+04  0.24333257035E+03 -0.25217630097E+03  0.11584567031E+04  0.79655191494E+02 0.  0.
        254    2    1    2    0    0 -0.11013052968E+04 -0.24333257035E+03  0.71614344084E+01  0.14459350283E+04  0.90476114157E+03 0.  0.
         23    2    4    4    0    0 -0.56551196261E+03 -0.22602826259E+03  0.43515464726E+03  0.75405467772E+03  0.91358276149E+02 0.  0.
         23    2    4    4    0    0 -0.53579333419E+03 -0.17304307761E+02 -0.42799321285E+03  0.69188035055E+03  0.90256818034E+02 0.  0.
          1    1    3    3  502    0  0.99243078822E+03  0.19512585384E+03 -0.23185583015E+03  0.10376656948E+04  0.00000000000E+00 0. -1.
         -2    1    3    3    0  502  0.10887450858E+03  0.48206716505E+02 -0.20320470815E+02  0.12079100823E+03  0.00000000000E+00 0.  1.
         13    1    5    5    0    0 -0.21678228189E+03 -0.12205823843E+03  0.13974277850E+03  0.28534332908E+03  0.00000000000E+00 0. -1.
        -13    1    5    5    0    0 -0.34872968072E+03 -0.10397002416E+03  0.29541186876E+03  0.46871134864E+03  0.00000000000E+00 0.  1.
          4    1    6    6  503    0 -0.36405829168E+03  0.30393500156E+02 -0.28292871218E+03  0.46207235447E+03  0.00000000000E+00 0. -1.
         -4    1    6    6    0  503 -0.17173504251E+03 -0.47697807917E+02 -0.14506450068E+03  0.22980799608E+03  0.00000000000E+00 0.  1.
<mgrwt>
<rscale>  0 0.25928409E+04</rscale>
<asrwt>0</asrwt>
<pdfrwt beam="1">  1        1 0.18149053E+00 0.25928409E+04</pdfrwt>
<pdfrwt beam="2">  1       -2 0.21918512E+00 0.25928409E+04</pdfrwt>
<totfact> 0.85532765E-01</totfact>
</mgrwt>
</event>
<event>
12    5  0.5041746E-008  0.2665166E+04  0.7818608E-02  0.8346397E-01
          1   -1    0    0  501    0  0.00000000000E+00  0.00000000000E+00  0.15672231738E+04  0.15672231738E+04  0.00000000000E+00 0. -1.
         -4   -1    0    0    0  501 -0.00000000000E+00 -0.00000000000E+00 -0.11330723496E+04  0.11330723496E+04  0.00000000000E+00 0.  1.
        -24    2    1    2    0    0 -0.55184758715E+03 -0.93554968335E+03 -0.25744347615E+03  0.11179854293E+04  0.61849068984E+02 0.  0.
        254    2    1    2    0    0  0.55184758715E+03  0.93554968335E+03  0.69159430036E+03  0.15823100940E+04  0.91957250270E+03 0.  0.
         23    2    4    4    0    0  0.45968881619E+03  0.35525782874E+03  0.78391349201E+03  0.98035560636E+03  0.95156814538E+02 0.  0.
         23    2    4    4    0    0  0.92158770957E+02  0.58029185461E+03 -0.92319191654E+02  0.60195448761E+03  0.92706506857E+02 0.  0.
          1    1    3    3  502    0 -0.98693302005E+02 -0.15797500047E+03 -0.20925829823E+02  0.18744161488E+03  0.00000000000E+00 0. -1.
         -2    1    3    3    0  502 -0.45315428514E+03 -0.77757468288E+03 -0.23651764633E+03  0.93054381446E+03  0.00000000000E+00 0.  1.
         13    1    5    5    0    0  0.19647673454E+03  0.10808740133E+03  0.25029897979E+03  0.33605888298E+03  0.00000000000E+00 0. -1.
        -13    1    5    5    0    0  0.26321208165E+03  0.24717042741E+03  0.53361451222E+03  0.64429672339E+03  0.00000000000E+00 0.  1.
          4    1    6    6  503    0  0.13631462898E+01  0.27921971743E+03 -0.24797503273E+02  0.28032200223E+03  0.00000000000E+00 0. -1.
         -4    1    6    6    0  503  0.90795624668E+02  0.30107213718E+03 -0.67521688380E+02  0.32163248537E+03  0.00000000000E+00 0.  1.
<mgrwt>
<rscale>  0 0.26651658E+04</rscale>
<asrwt>0</asrwt>
<pdfrwt beam="1">  1        1 0.24111126E+00 0.26651658E+04</pdfrwt>
<pdfrwt beam="2">  1       -4 0.17431882E+00 0.26651658E+04</pdfrwt>
<totfact> 0.49397440E-01</totfact>
</mgrwt>
</event>
<event>
12    5  0.5041746E-008  0.2355985E+04  0.7818608E-02  0.8456169E-01
          1   -1    0    0  501    0  0.00000000000E+00  0.00000000000E+00  0.12278422253E+04  0.12278422253E+04  0.00000000000E+00 0. -1.
         -2   -1    0    0    0  501 -0.00000000000E+00 -0.00000000000E+00 -0.11301662351E+04  0.11301662351E+04  0.00000000000E+00 0.  1.
        -24    2    1    2    0    0  0.66729391966E+03  0.50820685180E+03 -0.53271424065E+03  0.99699504742E+03  0.81604429825E+02 0.  0.
        254    2    1    2    0    0 -0.66729391966E+03 -0.50820685180E+03  0.63039023080E+03  0.13610134130E+04  0.86683925139E+03 0.  0.
         23    2    4    4    0    0 -0.68891430013E+03 -0.58789724508E+03  0.75822410513E+03  0.11847734962E+04  0.92511404155E+02 0.  0.
         23    2    4    4    0    0  0.21620380478E+02  0.79690393281E+02 -0.12783387432E+03  0.17623991681E+03  0.88887621289E+02 0.  0.
          1    1    3    3  502    0  0.15399773203E+03  0.11217784749E+03 -0.16257846561E+03  0.25046143099E+03  0.00000000000E+00 0. -1.
         -4    1    3    3    0  502  0.51329618763E+03  0.39602900431E+03 -0.37013577504E+03  0.74653361643E+03  0.00000000000E+00 0.  1.
         13    1    5    5    0    0 -0.40945995720E+03 -0.40212986374E+03  0.50377103344E+03  0.76364333167E+03  0.00000000000E+00 0. -1.
        -13    1    5    5    0    0 -0.27945434293E+03 -0.18576738134E+03  0.25445307168E+03  0.42113016449E+03  0.00000000000E+00 0.  1.
          2    1    6    6  503    0 -0.32462100448E+02  0.32365911516E+02 -0.71474480761E+02  0.84911374937E+02  0.00000000000E+00 0. -1.
         -2    1    6    6    0  503  0.54082480926E+02  0.47324481765E+02 -0.56359393564E+02  0.91328541871E+02  0.00000000000E+00 0.  1.
<mgrwt>
<rscale>  0 0.23559846E+04</rscale>
<asrwt>0</asrwt>
<pdfrwt beam="1">  1        1 0.18889881E+00 0.23559846E+04</pdfrwt>
<pdfrwt beam="2">  1       -2 0.17387173E+00 0.23559846E+04</pdfrwt>
<totfact> 0.16105245E+00</totfact>
</mgrwt>
</event>
<event>
12    5  0.5041746E-008  0.1288889E+04  0.7818608E-02  0.9038423E-01
         -2   -1    0    0    0  501 -0.00000000000E+00  0.00000000000E+00  0.67585588585E+03  0.67585588585E+03  0.00000000000E+00 0.  1.
          1   -1    0    0  501    0  0.00000000000E+00 -0.00000000000E+00 -0.61449292665E+03  0.61449292665E+03  0.00000000000E+00 0. -1.
        -24    2    1    2    0    0 -0.96122722853E+02 -0.45748553845E+02 -0.32935120914E+03  0.35318480225E+03  0.70247971868E+02 0.  0.
        254    2    1    2    0    0  0.96122722853E+02  0.45748553845E+02  0.39071416834E+03  0.93716401024E+03  0.84515460877E+03 0.  0.
         23    2    4    4    0    0  0.23505137291E+03 -0.51485989077E+02 -0.19349174500E+03  0.32195849832E+03  0.91204518988E+02 0.  0.
         23    2    4    4    0    0 -0.13892865005E+03  0.97234542921E+02  0.58420591334E+03  0.61520551192E+03  0.91790776043E+02 0.  0.
          3    1    3    3  502    0 -0.72785934741E+02 -0.58558270110E+02 -0.29668540540E+03  0.31104516243E+03  0.00000000000E+00 0. -1.
         -4    1    3    3    0  502 -0.23336788112E+02  0.12809716265E+02 -0.32665803739E+02  0.42139639819E+02  0.00000000000E+00 0.  1.
         13    1    5    5    0    0  0.20790292113E+03 -0.35100364306E+02 -0.19882254139E+03  0.28980349058E+03  0.00000000000E+00 0.  1.
        -13    1    5    5    0    0  0.27148451775E+02 -0.16385624771E+02  0.53307963863E+01  0.32155007744E+02  0.00000000000E+00 0. -1.
          1    1    6    6  503    0 -0.65011839272E+02  0.54399626167E+02  0.14664890014E+03  0.16938641765E+03  0.00000000000E+00 0. -1.
         -1    1    6    6    0  503 -0.73916810781E+02  0.42834916755E+02  0.43755701320E+03  0.44581909426E+03  0.00000000000E+00 0.  1.
<mgrwt>
<rscale>  0 0.12888889E+04</rscale>
<asrwt>0</asrwt>
<pdfrwt beam="1">  1        1 0.94537374E-01 0.12888889E+04</pdfrwt>
<pdfrwt beam="2">  1       -2 0.10397783E+00 0.12888889E+04</pdfrwt>
<totfact> 0.21425943E+01</totfact>
</mgrwt>
</event>
<event>
12    5  0.5041746E-008  0.2343270E+04  0.7818608E-02  0.8461053E-01
          1   -1    0    0  501    0  0.00000000000E+00  0.00000000000E+00  0.19574781549E+04  0.19574781549E+04  0.00000000000E+00 0. -1.
         -2   -1    0    0    0  501 -0.00000000000E+00 -0.00000000000E+00 -0.70127401161E+03  0.70127401161E+03  0.00000000000E+00 0.  1.
        -24    2    1    2    0    0  0.97693226308E+02 -0.78958608607E+03 -0.14672738670E+03  0.81312671129E+03  0.81584121209E+02 0.  0.
        254    2    1    2    0    0 -0.97693226308E+02  0.78958608607E+03  0.14029315300E+04  0.18456254552E+04  0.89728829779E+03 0.  0.
         23    2    4    4    0    0 -0.19853513249E+03  0.72159617975E+03  0.44274261734E+03  0.87386529190E+03  0.86615689809E+02 0.  0.
         23    2    4    4    0    0  0.10084190618E+03  0.67989906320E+02  0.96018891266E+03  0.97176016334E+03  0.86967520628E+02 0.  0.
          1    1    3    3  502    0  0.74415937245E+02 -0.46023598676E+03 -0.12265904189E+03  0.48207897256E+03  0.00000000000E+00 0. -1.
         -4    1    3    3    0  502  0.23277289063E+02 -0.32935009931E+03 -0.24068344807E+02  0.33104773873E+03  0.00000000000E+00 0.  1.
         13    1    5    5    0    0 -0.10328595270E+02  0.16861995377E+02  0.29484385538E+02  0.35501207851E+02  0.00000000000E+00 0.  1.
        -13    1    5    5    0    0 -0.18820653722E+03  0.70473418437E+03  0.41325823181E+03  0.83836408405E+03  0.00000000000E+00 0. -1.
          4    1    6    6  503    0  0.11504692461E+03  0.66896658446E+02  0.80584960284E+03  0.81676467857E+03  0.00000000000E+00 0. -1.
         -4    1    6    6    0  503 -0.14205018428E+02  0.10932478750E+01  0.15433930983E+03  0.15499548476E+03  0.00000000000E+00 0.  1.
<mgrwt>
<rscale>  0 0.23432700E+04</rscale>
<asrwt>0</asrwt>
<pdfrwt beam="1">  1        1 0.30115048E+00 0.23432700E+04</pdfrwt>
<pdfrwt beam="2">  1       -2 0.10788831E+00 0.23432700E+04</pdfrwt>
<totfact> 0.17348639E+00</totfact>
</mgrwt>
</event>
<event>
12    5  0.5041746E-008  0.1841957E+04  0.7818608E-02  0.8684300E-01
          1   -1    0    0  501    0  0.00000000000E+00  0.00000000000E+00  0.33071994748E+04  0.33071994748E+04  0.00000000000E+00 0. -1.
         -2   -1    0    0    0  501 -0.00000000000E+00 -0.00000000000E+00 -0.25647132885E+03  0.25647132885E+03  0.00000000000E+00 0.  1.
        -24    2    1    2    0    0  0.14309954448E+03  0.65349903146E+03  0.75280815006E+03  0.10105044474E+04  0.82829123440E+02 0.  0.
        254    2    1    2    0    0 -0.14309954448E+03 -0.65349903146E+03  0.22979199959E+04  0.25531663562E+04  0.88920395376E+03 0.  0.
         23    2    4    4    0    0  0.95181984588E+01 -0.14013891553E+03 -0.19756317695E+02  0.17258549634E+03  0.98315460175E+02 0.  0.
         23    2    4    4    0    0 -0.15261774294E+03 -0.51336011593E+03  0.23176763136E+04  0.23805808599E+04  0.93332480454E+02 0.  0.
          1    1    3    3  502    0  0.84415897890E+01  0.30017794535E+02  0.67097744751E+02  0.73989430175E+02  0.00000000000E+00 0. -1.
         -2    1    3    3    0  502  0.13465795469E+03  0.62348123692E+03  0.68571040531E+03  0.93651501724E+03  0.00000000000E+00 0.  1.
         13    1    5    5    0    0 -0.41272444514E+02 -0.34236020654E+02 -0.91789138486E+00  0.53631728585E+02  0.00000000000E+00 0.  1.
        -13    1    5    5    0    0  0.50790642973E+02 -0.10590289488E+03 -0.18838426311E+02  0.11895376775E+03  0.00000000000E+00 0. -1.
          1    1    6    6  503    0 -0.10574250434E+03 -0.45097188421E+03  0.20550739407E+04  0.21066290655E+04  0.00000000000E+00 0. -1.
         -1    1    6    6    0  503 -0.46875238599E+02 -0.62388231713E+02  0.26260237284E+03  0.27395179443E+03  0.00000000000E+00 0.  1.
<mgrwt>
<rscale>  0 0.18419575E+04</rscale>
<asrwt>0</asrwt>
<pdfrwt beam="1">  1        1 0.50879989E+00 0.18419575E+04</pdfrwt>
<pdfrwt beam="2">  1       -2 0.39457130E-01 0.18419575E+04</pdfrwt>
<totfact> 0.17774398E+00</totfact>
</mgrwt>
</event>
<event>
12    5  0.5041746E-008  0.2018614E+04  0.7818608E-02  0.8597967E-01
          1   -1    0    0  501    0  0.00000000000E+00  0.00000000000E+00  0.10133425152E+04  0.10133425152E+04  0.00000000000E+00 0. -1.
         -2   -1    0    0    0  501 -0.00000000000E+00 -0.00000000000E+00 -0.10052877785E+04  0.10052877785E+04  0.00000000000E+00 0.  1.
        -24    2    1    2    0    0 -0.34321961768E+03  0.27962316600E+03 -0.67358880294E+03  0.81010294437E+03  0.80969649320E+02 0.  0.
        254    2    1    2    0    0  0.34321961768E+03 -0.27962316600E+03  0.68164353965E+03  0.12085273493E+04  0.89437778258E+03 0.  0.
         23    2    4    4    0    0 -0.15590813214E+03  0.20702872446E+03  0.88785829300E+02  0.28898797170E+03  0.91993944834E+02 0.  0.
         23    2    4    4    0    0  0.49912774982E+03 -0.48665189046E+03  0.59285771035E+03  0.91953937761E+03  0.90076795690E+02 0.  0.
          3    1    3    3  502    0 -0.19982252885E+02  0.18435076361E+01 -0.12834508615E+02  0.23820444206E+02  0.00000000000E+00 0. -1.
         -4    1    3    3    0  502 -0.32323736479E+03  0.27777965837E+03 -0.66075429432E+03  0.78628250016E+03  0.00000000000E+00 0.  1.
         13    1    5    5    0    0 -0.82382287977E+02  0.85510310037E+02 -0.49031725323E+01  0.11883978962E+03  0.00000000000E+00 0. -1.
        -13    1    5    5    0    0 -0.73525844165E+02  0.12151841442E+03  0.93689001832E+02  0.17014818209E+03  0.00000000000E+00 0.  1.
          2    1    6    6  503    0  0.43650063248E+03 -0.41407383995E+03  0.54753837768E+03  0.81350367062E+03  0.00000000000E+00 0. -1.
         -2    1    6    6    0  503  0.62627117346E+02 -0.72578050506E+02  0.45319332672E+02  0.10603570699E+03  0.00000000000E+00 0.  1.
<mgrwt>
<rscale>  0 0.20186142E+04</rscale>
<asrwt>0</asrwt>
<pdfrwt beam="1">  1        1 0.15589885E+00 0.20186142E+04</pdfrwt>
<pdfrwt beam="2">  1       -2 0.15465966E+00 0.20186142E+04</pdfrwt>
<totfact> 0.33119827E+00</totfact>
</mgrwt>
</event>
<event>
12    5  0.5041746E-008  0.1209001E+04  0.7818608E-02  0.9105014E-01
         -2   -1    0    0    0  501 -0.00000000000E+00  0.00000000000E+00  0.13873104009E+03  0.13873104009E+03  0.00000000000E+00 0.  1.
          1   -1    0    0  501    0  0.00000000000E+00 -0.00000000000E+00 -0.26340255203E+04  0.26340255203E+04  0.00000000000E+00 0. -1.
        -24    2    1    2    0    0  0.24729598178E+03 -0.36268162072E+01 -0.76873983072E+03  0.81139916686E+03  0.78988760269E+02 0.  0.
        254    2    1    2    0    0 -0.24729598178E+03  0.36268162072E+01 -0.17265546495E+04  0.19613573935E+04  0.89708606670E+03 0.  0.
         23    2    4    4    0    0 -0.41153101219E+03  0.13625522681E+03 -0.34571811245E+03  0.56141696692E+03  0.88004185368E+02 0.  0.
         23    2    4    4    0    0  0.16423503040E+03 -0.13262841060E+03 -0.13808365371E+04  0.13999404266E+04  0.92521432671E+02 0.  0.
          1    1    3    3  502    0  0.16504198814E+03 -0.28146733506E+02 -0.58701831323E+03  0.61042738841E+03  0.00000000000E+00 0. -1.
         -2    1    3    3    0  502  0.82253993648E+02  0.24519917299E+02 -0.18172151749E+03  0.20097177845E+03  0.00000000000E+00 0.  1.
         13    1    5    5    0    0 -0.11928301804E+03  0.41111484957E+02 -0.52562122864E+02  0.13667980593E+03  0.00000000000E+00 0.  1.
        -13    1    5    5    0    0 -0.29224799415E+03  0.95143741848E+02 -0.29315598958E+03  0.42473716099E+03  0.00000000000E+00 0. -1.
          1    1    6    6  503    0  0.17078445078E+03 -0.13900341211E+03 -0.13474958921E+04  0.13653697142E+04  0.00000000000E+00 0. -1.
         -1    1    6    6    0  503 -0.65494203761E+01  0.63750015150E+01 -0.33340644946E+02  0.34570712416E+02  0.00000000000E+00 0.  1.
<mgrwt>
<rscale>  0 0.12090014E+04</rscale>
<asrwt>0</asrwt>
<pdfrwt beam="1">  1        1 0.40523467E+00 0.12090014E+04</pdfrwt>
<pdfrwt beam="2">  1       -2 0.21343238E-01 0.12090014E+04</pdfrwt>
<totfact> 0.18213263E+01</totfact>
</mgrwt>
</event>
<event>
12    5  0.5041746E-008  0.2926641E+04  0.7818608E-02  0.8264995E-01
         -2   -1    0    0    0  501 -0.00000000000E+00  0.00000000000E+00  0.48014823241E+03  0.48014823241E+03  0.00000000000E+00 0.  1.
          1   -1    0    0  501    0  0.00000000000E+00 -0.00000000000E+00 -0.44596778991E+04  0.44596778991E+04  0.00000000000E+00 0. -1.
        -24    2    1    2    0    0 -0.86868566968E+03 -0.84916155613E+03 -0.26916825658E+04  0.29543814598E+04  0.86744647743E+02 0.  0.
        254    2    1    2    0    0  0.86868566968E+03  0.84916155613E+03 -0.12878471009E+04  0.19854446717E+04  0.89874926875E+03 0.  0.
         23    2    4    4    0    0  0.12921300532E+03  0.27702622376E+03 -0.92448263807E+03  0.97816761980E+03  0.93296382228E+02 0.  0.
         23    2    4    4    0    0  0.73947266435E+03  0.57213533237E+03 -0.36336446285E+03  0.10072770519E+04  0.91731492029E+02 0.  0.
          3    1    3    3  502    0 -0.74158761920E+03 -0.73725712244E+03 -0.23818811948E+04  0.26013185671E+04  0.00000000000E+00 0. -1.
         -4    1    3    3    0  502 -0.12709805047E+03 -0.11190443369E+03 -0.30980137100E+03  0.35306289269E+03  0.00000000000E+00 0.  1.
         13    1    5    5    0    0  0.34194007621E+02  0.13104966916E+02 -0.72975454192E+02  0.81647946879E+02  0.00000000000E+00 0. -1.
        -13    1    5    5    0    0  0.95018997704E+02  0.26392125684E+03 -0.85150718388E+03  0.89651967293E+03  0.00000000000E+00 0.  1.
          3    1    6    6  503    0  0.65001260002E+02  0.86723156734E+02 -0.37517210358E+02  0.11468919212E+03  0.00000000000E+00 0. -1.
         -3    1    6    6    0  503  0.67447140435E+03  0.48541217564E+03 -0.32584725249E+03  0.89258785982E+03  0.00000000000E+00 0.  1.
<mgrwt>
<rscale>  0 0.29266407E+04</rscale>
<asrwt>0</asrwt>
<pdfrwt beam="1">  1        1 0.68610426E+00 0.29266407E+04</pdfrwt>
<pdfrwt beam="2">  1       -2 0.73868962E-01 0.29266407E+04</pdfrwt>
<totfact> 0.44086831E-02</totfact>
</mgrwt>
</event>
<event>
12    5  0.5041746E-008  0.4250166E+04  0.7818608E-02  0.7955898E-01
         -4   -1    0    0    0  501 -0.00000000000E+00  0.00000000000E+00  0.25158990147E+04  0.25158990147E+04  0.00000000000E+00 0.  1.
          3   -1    0    0  501    0  0.00000000000E+00 -0.00000000000E+00 -0.17949759321E+04  0.17949759321E+04  0.00000000000E+00 0. -1.
        -24    2    1    2    0    0  0.16321108442E+03 -0.75342611292E+03 -0.15592904272E+04  0.17418250602E+04  0.90989771540E+02 0.  0.
        254    2    1    2    0    0 -0.16321108442E+03  0.75342611292E+03  0.22802135098E+04  0.25690498866E+04  0.89797266313E+03 0.  0.
         23    2    4    4    0    0 -0.42889102162E+03  0.49442597776E+03  0.19671980337E+04  0.20754343129E+04  0.95681385910E+02 0.  0.
         23    2    4    4    0    0  0.26567993720E+03  0.25900013516E+03  0.31301547611E+03  0.49361557365E+03  0.89502777714E+02 0.  0.
          3    1    3    3  502    0  0.15296257283E+03 -0.70837064124E+03 -0.15059893122E+04  0.16712840340E+04  0.00000000000E+00 0. -1.
         -4    1    3    3    0  502  0.10248511587E+02 -0.45055471682E+02 -0.53301115000E+02  0.70541026207E+02  0.00000000000E+00 0.  1.
         13    1    5    5    0    0 -0.13126368559E+02  0.50217744324E+02  0.19061657860E+03  0.19755708905E+03  0.00000000000E+00 0. -1.
        -13    1    5    5    0    0 -0.41576465306E+03  0.44420823344E+03  0.17765814551E+04  0.18778772239E+04  0.00000000000E+00 0.  1.
          2    1    6    6  503    0  0.12812531074E+02  0.48520789256E+02  0.23703064728E+02  0.55500119099E+02  0.00000000000E+00 0. -1.
         -2    1    6    6    0  503  0.25286740613E+03  0.21047934590E+03  0.28931241138E+03  0.43811545455E+03  0.00000000000E+00 0.  1.
<mgrwt>
<rscale>  0 0.42501662E+04</rscale>
<asrwt>0</asrwt>
<pdfrwt beam="1">  1        3 0.27615014E+00 0.42501662E+04</pdfrwt>
<pdfrwt beam="2">  1       -4 0.38706139E+00 0.42501662E+04</pdfrwt>
<totfact> 0.75895723E-04</totfact>
</mgrwt>
</event>
<event>
12    5  0.5041746E-008  0.1620829E+04  0.7818608E-02  0.8807853E-01
          1   -1    0    0  501    0  0.00000000000E+00  0.00000000000E+00  0.54459371375E+03  0.54459371375E+03  0.00000000000E+00 0. -1.
         -2   -1    0    0    0  501 -0.00000000000E+00 -0.00000000000E+00 -0.12059842624E+04  0.12059842624E+04  0.00000000000E+00 0.  1.
        -24    2    1    2    0    0 -0.72163339437E+01  0.39106790089E+03 -0.65103010365E+03  0.76372451679E+03  0.80304191090E+02 0.  0.
        254    2    1    2    0    0  0.72163339437E+01 -0.39106790089E+03 -0.10360444955E+02  0.98685345931E+03  0.90597253421E+03 0.  0.
         23    2    4    4    0    0 -0.38471985647E+02 -0.48909072015E+03 -0.35638731441E+03  0.61312405232E+03  0.90660683050E+02 0.  0.
         23    2    4    4    0    0  0.45688319591E+02  0.98022819252E+02  0.34602686945E+03  0.37372940699E+03  0.90791957926E+02 0.  0.
          3    1    3    3  502    0 -0.11468564162E+02  0.48810535432E+02 -0.43370924882E+02  0.66295048519E+02  0.00000000000E+00 0. -1.
         -4    1    3    3    0  502  0.42522302188E+01  0.34225736546E+03 -0.60765917877E+03  0.69742946828E+03  0.00000000000E+00 0.  1.
         13    1    5    5    0    0  0.21004698647E+02 -0.24101738171E+03 -0.14697363651E+03  0.28307565328E+03  0.00000000000E+00 0. -1.
        -13    1    5    5    0    0 -0.59476684295E+02 -0.24807333843E+03 -0.20941367790E+03  0.33004839904E+03  0.00000000000E+00 0.  1.
          3    1    6    6  503    0 -0.60207545290E+01  0.46860520782E+02  0.49570907332E+02  0.68479433020E+02  0.00000000000E+00 0. -1.
         -3    1    6    6    0  503  0.51709074120E+02  0.51162298471E+02  0.29645596212E+03  0.30524997397E+03  0.00000000000E+00 0.  1.
<mgrwt>
<rscale>  0 0.16208287E+04</rscale>
<asrwt>0</asrwt>
<pdfrwt beam="1">  1        1 0.83783650E-01 0.16208287E+04</pdfrwt>
<pdfrwt beam="2">  1       -2 0.18553604E+00 0.16208287E+04</pdfrwt>
<totfact> 0.54725740E+00</totfact>
</mgrwt>
</event>
<event>
12    5  0.5041746E-008  0.1762013E+04  0.7818608E-02  0.8726765E-01
         -2   -1    0    0    0  501 -0.00000000000E+00  0.00000000000E+00  0.80628425684E+03  0.80628425684E+03  0.00000000000E+00 0.  1.
          1   -1    0    0  501    0  0.00000000000E+00 -0.00000000000E+00 -0.96265396806E+03  0.96265396806E+03  0.00000000000E+00 0. -1.
        -24    2    1    2    0    0  0.20637996237E+03 -0.49297450868E+03  0.30158894575E+03  0.61904446940E+03  0.81508329709E+02 0.  0.
        254    2    1    2    0    0 -0.20637996237E+03  0.49297450868E+03 -0.45795865698E+03  0.11498937555E+04  0.90934754763E+03 0.  0.
         23    2    4    4    0    0 -0.32206746245E+03  0.92206369459E+02 -0.60574758410E+03  0.69816656149E+03  0.90977728049E+02 0.  0.
         23    2    4    4    0    0  0.11568750008E+03  0.40076813922E+03  0.14778892712E+03  0.45172719402E+03  0.90648727206E+02 0.  0.
          3    1    3    3  502    0  0.93218408713E+02 -0.26718231560E+03  0.11696799227E+03  0.30619858378E+03  0.00000000000E+00 0. -1.
         -4    1    3    3    0  502  0.11316155365E+03 -0.22579219309E+03  0.18462095349E+03  0.31284588562E+03  0.00000000000E+00 0.  1.
         13    1    5    5    0    0 -0.16187871673E+03  0.69192980305E+02 -0.39496873260E+03  0.43242651073E+03  0.00000000000E+00 0.  1.
        -13    1    5    5    0    0 -0.16018874572E+03  0.23013389154E+02 -0.21077885150E+03  0.26574005076E+03  0.00000000000E+00 0. -1.
          4    1    6    6  503    0 -0.62341728189E+01  0.12214103624E+02 -0.78083525543E+01  0.15780355119E+02  0.00000000000E+00 0. -1.
         -4    1    6    6    0  503  0.12192167290E+03  0.38855403560E+03  0.15559727968E+03  0.43594683890E+03  0.00000000000E+00 0.  1.
<mgrwt>
<rscale>  0 0.17620133E+04</rscale>
<asrwt>0</asrwt>
<pdfrwt beam="1">  1        1 0.14810061E+00 0.17620133E+04</pdfrwt>
<pdfrwt beam="2">  1       -2 0.12404373E+00 0.17620133E+04</pdfrwt>
<totfact> 0.65677134E+00</totfact>
</mgrwt>
</event>
<event>
12    5  0.5041746E-008  0.2787832E+04  0.7818608E-02  0.8307056E-01
         -2   -1    0    0    0  501 -0.00000000000E+00  0.00000000000E+00  0.23467836956E+04  0.23467836956E+04  0.00000000000E+00 0.  1.
          1   -1    0    0  501    0  0.00000000000E+00 -0.00000000000E+00 -0.82794259383E+03  0.82794259383E+03  0.00000000000E+00 0. -1.
        -24    2    1    2    0    0  0.12931188440E+03 -0.50874271915E+03  0.19689363378E+04  0.20393795515E+04  0.82570789223E+02 0.  0.
        254    2    1    2    0    0 -0.12931188440E+03  0.50874271915E+03 -0.45009523606E+03  0.11353467379E+04  0.90049196326E+03 0.  0.
         23    2    4    4    0    0 -0.22700234819E+03  0.27560905481E+03  0.20837275603E+03  0.42417246852E+03  0.94935032602E+02 0.  0.
         23    2    4    4    0    0  0.97690463784E+02  0.23313366435E+03 -0.65846799209E+03  0.71117426934E+03  0.91071469691E+02 0.  0.
          1    1    3    3  502    0  0.51730807704E+02 -0.27546598121E+03  0.90491098754E+03  0.94732332318E+03  0.00000000000E+00 0. -1.
         -2    1    3    3    0  502  0.77581076700E+02 -0.23327673794E+03  0.10640253502E+04  0.10920562284E+04  0.00000000000E+00 0.  1.
         13    1    5    5    0    0 -0.16171707148E+03  0.16116732843E+03  0.84850527185E+02  0.24357120298E+03  0.00000000000E+00 0.  1.
        -13    1    5    5    0    0 -0.65285276712E+02  0.11444172638E+03  0.12352222885E+03  0.18060126554E+03  0.00000000000E+00 0. -1.
          3    1    6    6  503    0  0.70490651988E+02  0.22904413049E+03 -0.61094823534E+03  0.65626815555E+03  0.00000000000E+00 0. -1.
         -3    1    6    6    0  503  0.27199811796E+02  0.40895338532E+01 -0.47519756755E+02  0.54906113784E+02  0.00000000000E+00 0.  1.
<mgrwt>
<rscale>  0 0.27878323E+04</rscale>
<asrwt>0</asrwt>
<pdfrwt beam="1">  1        1 0.12737578E+00 0.27878323E+04</pdfrwt>
<pdfrwt beam="2">  1       -2 0.36104364E+00 0.27878323E+04</pdfrwt>
<totfact> 0.21049743E-01</totfact>
</mgrwt>
</event>
<event>
12    5  0.5041746E-008  0.1782651E+04  0.7818608E-02  0.8715580E-01
          1   -1    0    0  501    0  0.00000000000E+00  0.00000000000E+00  0.10003899056E+04  0.10003899056E+04  0.00000000000E+00 0. -1.
         -2   -1    0    0    0  501 -0.00000000000E+00 -0.00000000000E+00 -0.79415193282E+03  0.79415193282E+03  0.00000000000E+00 0.  1.
        -24    2    1    2    0    0  0.17590530568E+03  0.76418059188E+02  0.71356768775E+03  0.74322727533E+03  0.80159475201E+02 0.  0.
        254    2    1    2    0    0 -0.17590530568E+03 -0.76418059188E+02 -0.50732971494E+03  0.10513145631E+04  0.90060894655E+03 0.  0.
         23    2    4    4    0    0 -0.28600687039E+03 -0.25972969984E+03  0.93605611917E+02  0.40680735692E+03  0.86433605562E+02 0.  0.
         23    2    4    4    0    0  0.11010156471E+03  0.18331164066E+03 -0.60093532686E+03  0.64450720619E+03  0.92416230265E+02 0.  0.
          1    1    3    3  502    0  0.14379760381E+03  0.69610476637E+02  0.66939623580E+03  0.68819669413E+03  0.00000000000E+00 0. -1.
         -2    1    3    3    0  502  0.32107701869E+02  0.68075825509E+01  0.44171451951E+02  0.55030581197E+02  0.00000000000E+00 0.  1.
         13    1    5    5    0    0 -0.35480134951E+02 -0.76773627983E+02  0.77737060094E+01  0.84932093080E+02  0.00000000000E+00 0. -1.
        -13    1    5    5    0    0 -0.25052673544E+03 -0.18295607186E+03  0.85831905908E+02  0.32187526384E+03  0.00000000000E+00 0.  1.
          2    1    6    6  503    0 -0.13683517517E+01  0.80296008736E+02 -0.23497378467E+03  0.24831834586E+03  0.00000000000E+00 0. -1.
         -2    1    6    6    0  503  0.11146991646E+03  0.10301563192E+03 -0.36596154219E+03  0.39618886034E+03  0.00000000000E+00 0.  1.
<mgrwt>
<rscale>  0 0.17826515E+04</rscale>
<asrwt>0</asrwt>
<pdfrwt beam="1">  1        1 0.15390614E+00 0.17826515E+04</pdfrwt>
<pdfrwt beam="2">  1       -2 0.12217722E+00 0.17826515E+04</pdfrwt>
<totfact> 0.63594744E+00</totfact>
</mgrwt>
</event>
<event>
12    5  0.5041746E-008  0.1857632E+04  0.7818608E-02  0.8676238E-01
          1   -1    0    0  501    0  0.00000000000E+00  0.00000000000E+00  0.25309014029E+04  0.25309014029E+04  0.00000000000E+00 0. -1.
         -2   -1    0    0    0  501 -0.00000000000E+00 -0.00000000000E+00 -0.34086626493E+03  0.34086626493E+03  0.00000000000E+00 0.  1.
        -24    2    1    2    0    0 -0.54573031057E+03  0.32388934525E+03  0.13270348032E+04  0.14732490953E+04  0.81949058685E+02 0.  0.
        254    2    1    2    0    0  0.54573031057E+03 -0.32388934525E+03  0.86300033479E+03  0.13985185725E+04  0.89908772648E+03 0.  0.
         23    2    4    4    0    0  0.28012046081E+03 -0.45919116158E+02  0.94829277046E+03  0.99413729683E+03  0.92052966608E+02 0.  0.
         23    2    4    4    0    0  0.26560984976E+03 -0.27797022910E+03 -0.85292435665E+02  0.40438127565E+03  0.91833414211E+02 0.  0.
          3    1    3    3  502    0 -0.30064744106E+03  0.13942884927E+03  0.74308262732E+03  0.81363448725E+03  0.00000000000E+00 0. -1.
         -4    1    3    3    0  502 -0.24508286951E+03  0.18446049598E+03  0.58395217583E+03  0.65961460806E+03  0.00000000000E+00 0.  1.
         13    1    5    5    0    0  0.18109100357E+03  0.18612607075E+01  0.69094091519E+03  0.71428059203E+03  0.00000000000E+00 0.  1.
        -13    1    5    5    0    0  0.99029457241E+02 -0.47780376865E+02  0.25735185527E+03  0.27985670480E+03  0.00000000000E+00 0. -1.
          4    1    6    6  503    0  0.11062730922E+03 -0.70921605591E+02  0.19834185121E+01  0.13142377880E+03  0.00000000000E+00 0. -1.
         -4    1    6    6    0  503  0.15498254054E+03 -0.20704862350E+03 -0.87275854177E+02  0.27295749686E+03  0.00000000000E+00 0.  1.
<mgrwt>
<rscale>  0 0.18576317E+04</rscale>
<asrwt>0</asrwt>
<pdfrwt beam="1">  1        1 0.38936943E+00 0.18576317E+04</pdfrwt>
<pdfrwt beam="2">  1       -2 0.52440966E-01 0.18576317E+04</pdfrwt>
<totfact> 0.36525992E+00</totfact>
</mgrwt>
</event>
<event>
12    5  0.5041746E-008  0.2350872E+04  0.7818608E-02  0.8458129E-01
         -4   -1    0    0    0  501 -0.00000000000E+00  0.00000000000E+00  0.13399895610E+04  0.13399895610E+04  0.00000000000E+00 0.  1.
          3   -1    0    0  501    0  0.00000000000E+00 -0.00000000000E+00 -0.10310900816E+04  0.10310900816E+04  0.00000000000E+00 0. -1.
        -24    2    1    2    0    0  0.98919464864E+03  0.17392549191E+03  0.75167035134E+02  0.10105636111E+04  0.82659538484E+02 0.  0.
        254    2    1    2    0    0 -0.98919464864E+03 -0.17392549191E+03  0.23373244419E+03  0.13605160315E+04  0.88747782330E+03 0.  0.
         23    2    4    4    0    0 -0.90723116566E+03  0.68963997621E+02  0.44512693496E+03  0.10168927059E+04  0.90046466308E+02 0.  0.
         23    2    4    4    0    0 -0.81963482980E+02 -0.24288948953E+03 -0.21139449078E+03  0.34362332563E+03  0.87613027130E+02 0.  0.
          1    1    3    3  502    0  0.79916049804E+03  0.13555132058E+03  0.28098700595E+02  0.81106177269E+03  0.00000000000E+00 0. -1.
         -2    1    3    3    0  502  0.19003415060E+03  0.38374171326E+02  0.47068334539E+02  0.19950183843E+03  0.00000000000E+00 0.  1.
         13    1    5    5    0    0 -0.24835325992E+03  0.26696552130E+02  0.79220896360E+02  0.26204579377E+03  0.00000000000E+00 0. -1.
        -13    1    5    5    0    0 -0.65887790574E+03  0.42267445491E+02  0.36590603860E+03  0.75484691210E+03  0.00000000000E+00 0.  1.
          2    1    6    6  503    0 -0.43882005075E+02 -0.19629980586E+03 -0.19743825682E+03  0.28185299254E+03  0.00000000000E+00 0.  1.
         -2    1    6    6    0  503 -0.38081477905E+02 -0.46589683670E+02 -0.13956233958E+02  0.61770333091E+02  0.00000000000E+00 0. -1.
<mgrwt>
<rscale>  0 0.23508721E+04</rscale>
<asrwt>0</asrwt>
<pdfrwt beam="1">  1        3 0.15862924E+00 0.23508721E+04</pdfrwt>
<pdfrwt beam="2">  1       -4 0.20615224E+00 0.23508721E+04</pdfrwt>
<totfact> 0.69005700E-02</totfact>
</mgrwt>
</event>
<event>
12    5  0.5041746E-008  0.1732870E+04  0.7818608E-02  0.8742836E-01
          1   -1    0    0  501    0  0.00000000000E+00  0.00000000000E+00  0.67885981409E+03  0.67885981409E+03  0.00000000000E+00 0. -1.
         -2   -1    0    0    0  501 -0.00000000000E+00 -0.00000000000E+00 -0.11058391103E+04  0.11058391103E+04  0.00000000000E+00 0.  1.
        -24    2    1    2    0    0  0.42895891694E+03 -0.39237300843E+03  0.91102398319E+02  0.59391521688E+03  0.80456868558E+02 0.  0.
        254    2    1    2    0    0 -0.42895891694E+03  0.39237300843E+03 -0.51808169451E+03  0.11907837075E+04  0.90088560078E+03 0.  0.
         23    2    4    4    0    0  0.11297771394E+03  0.21329846833E+03  0.15620060666E+03  0.30208241545E+03  0.92708984244E+02 0.  0.
         23    2    4    4    0    0 -0.54193663088E+03  0.17907454009E+03 -0.67428230117E+03  0.88870129205E+03  0.96800630299E+02 0.  0.
          3    1    3    3  502    0  0.41362309271E+03 -0.39347110143E+03  0.93064039531E+02  0.57841549594E+03  0.00000000000E+00 0. -1.
         -4    1    3    3    0  502  0.15335824229E+02  0.10980930071E+01 -0.19616412127E+01  0.15499720942E+02  0.00000000000E+00 0.  1.
         13    1    5    5    0    0  0.94344632224E+02  0.79401447559E+02  0.77916667783E+02  0.14586468600E+03  0.00000000000E+00 0. -1.
        -13    1    5    5    0    0  0.18633081717E+02  0.13389702077E+03  0.78283938877E+02  0.15621772944E+03  0.00000000000E+00 0.  1.
          2    1    6    6  503    0 -0.58476713735E+02  0.12430688217E+02 -0.32327599423E+02  0.67964121000E+02  0.00000000000E+00 0. -1.
         -2    1    6    6    0  503 -0.48345991715E+03  0.16664385188E+03 -0.64195470174E+03  0.82073717105E+03  0.00000000000E+00 0.  1.
<mgrwt>
<rscale>  0 0.17328701E+04</rscale>
<asrwt>0</asrwt>
<pdfrwt beam="1">  1        1 0.10443997E+00 0.17328701E+04</pdfrwt>
<pdfrwt beam="2">  1       -2 0.17012909E+00 0.17328701E+04</pdfrwt>
<totfact> 0.50402342E+00</totfact>
</mgrwt>
</event>
<event>
12    5  0.5041746E-008  0.2437601E+04  0.7818608E-02  0.8425559E-01
          1   -1    0    0  501    0  0.00000000000E+00  0.00000000000E+00  0.16592240289E+04  0.16592240289E+04  0.00000000000E+00 0. -1.
         -2   -1    0    0    0  501 -0.00000000000E+00 -0.00000000000E+00 -0.89528275102E+03  0.89528275102E+03  0.00000000000E+00 0.  1.
        -24    2    1    2    0    0 -0.82019133880E+03  0.48707576911E+03 -0.13087929056E+03  0.96593605098E+03  0.77113090915E+02 0.  0.
        254    2    1    2    0    0  0.82019133880E+03 -0.48707576911E+03  0.89482056843E+03  0.15885707289E+04  0.90160771627E+03 0.  0.
         23    2    4    4    0    0  0.56329412303E+03 -0.70940983392E+03  0.82670642485E+03  0.12296187571E+04  0.89197496046E+02 0.  0.
         23    2    4    4    0    0  0.25689721577E+03  0.22233406481E+03  0.68114143576E+02  0.35895197188E+03  0.93692933117E+02 0.  0.
          3    1    3    3  502    0 -0.36043701316E+03  0.20910084156E+03 -0.18856710222E+02  0.41712537434E+03  0.00000000000E+00 0. -1.
         -4    1    3    3    0  502 -0.45975432564E+03  0.27797492755E+03 -0.11202258033E+03  0.54881067664E+03  0.00000000000E+00 0.  1.
         13    1    5    5    0    0  0.15448179172E+03 -0.13477232870E+03  0.18515596091E+03  0.27624433825E+03  0.00000000000E+00 0. -1.
        -13    1    5    5    0    0  0.40881233131E+03 -0.57463750522E+03  0.64155046395E+03  0.95337441880E+03  0.00000000000E+00 0.  1.
          2    1    6    6  503    0  0.12944704229E+03  0.16596536721E+03  0.19595577000E+02  0.21138833106E+03  0.00000000000E+00 0. -1.
         -2    1    6    6    0  503  0.12745017349E+03  0.56368697604E+02  0.48518566576E+02  0.14756364083E+03  0.00000000000E+00 0.  1.
<mgrwt>
<rscale>  0 0.24376010E+04</rscale>
<asrwt>0</asrwt>
<pdfrwt beam="1">  1        1 0.25526524E+00 0.24376010E+04</pdfrwt>
<pdfrwt beam="2">  1       -2 0.13773581E+00 0.24376010E+04</pdfrwt>
<totfact> 0.14938369E+00</totfact>
</mgrwt>
</event>
<event>
12    5  0.5041746E-008  0.1344662E+04  0.7818608E-02  0.8994879E-01
          1   -1    0    0  501    0  0.00000000000E+00  0.00000000000E+00  0.14021782268E+04  0.14021782268E+04  0.00000000000E+00 0. -1.
         -2   -1    0    0    0  501 -0.00000000000E+00 -0.00000000000E+00 -0.32237636019E+03  0.32237636019E+03  0.00000000000E+00 0.  1.
        -24    2    1    2    0    0  0.25959275952E+03  0.77770887873E+02 -0.13363352742E+02  0.28261233968E+03  0.79085039952E+02 0.  0.
        254    2    1    2    0    0 -0.25959275952E+03 -0.77770887873E+02  0.10931652193E+04  0.14419422473E+04  0.90041686789E+03 0.  0.
         23    2    4    4    0    0 -0.11271795094E+03  0.38905123187E+03  0.67521754552E+03  0.79249225185E+03  0.89772144779E+02 0.  0.
         23    2    4    4    0    0 -0.14687480858E+03 -0.46682211974E+03  0.41794767382E+03  0.64944999545E+03  0.87234956644E+02 0.  0.
          1    1    3    3  502    0  0.10082835886E+02  0.84696449270E+01  0.17416430485E+02  0.21834159373E+02  0.00000000000E+00 0. -1.
         -2    1    3    3    0  502  0.24950992364E+03  0.69301242946E+02 -0.30779783227E+02  0.26077818030E+03  0.00000000000E+00 0.  1.
         13    1    5    5    0    0 -0.11176842210E+03  0.39415137809E+03  0.66682045262E+03  0.78262187872E+03  0.00000000000E+00 0.  1.
        -13    1    5    5    0    0 -0.94952884171E+00 -0.51001462159E+01  0.83970929089E+01  0.98703731320E+01  0.00000000000E+00 0. -1.
          1    1    6    6  503    0  0.27003882296E+01 -0.11092695229E+03  0.98422175618E+02  0.14832061722E+03  0.00000000000E+00 0. -1.
         -1    1    6    6    0  503 -0.14957519681E+03 -0.35589516746E+03  0.31952549821E+03  0.50112937823E+03  0.00000000000E+00 0.  1.
<mgrwt>
<rscale>  0 0.13446622E+04</rscale>
<asrwt>0</asrwt>
<pdfrwt beam="1">  1        1 0.21571972E+00 0.13446622E+04</pdfrwt>
<pdfrwt beam="2">  1       -2 0.49596364E-01 0.13446622E+04</pdfrwt>
<totfact> 0.25303032E+01</totfact>
</mgrwt>
</event>
<event>
12    5  0.5041746E-008  0.1163588E+04  0.7818608E-02  0.9145338E-01
         -2   -1    0    0    0  501 -0.00000000000E+00  0.00000000000E+00  0.82064228219E+03  0.82064228219E+03  0.00000000000E+00 0.  1.
          1   -1    0    0  501    0  0.00000000000E+00 -0.00000000000E+00 -0.41246288822E+03  0.41246288822E+03  0.00000000000E+00 0. -1.
        -24    2    1    2    0    0  0.97340804015E+02 -0.42654413024E+02  0.23366021396E+03  0.27643413254E+03  0.10258705068E+03 0.  0.
        254    2    1    2    0    0 -0.97340804015E+02  0.42654413024E+02  0.17451918002E+03  0.95667103787E+03  0.93459504569E+03 0.  0.
         23    2    4    4    0    0 -0.32927696917E+03 -0.16883001073E+03 -0.22320413529E+03  0.44142973570E+03  0.90073473371E+02 0.  0.
         23    2    4    4    0    0  0.23193616515E+03  0.21148442376E+03  0.39772331530E+03  0.51524130217E+03  0.93646771049E+02 0.  0.
          3    1    3    3  502    0 -0.15530114823E+02 -0.22350789658E+02  0.19435213457E+02  0.33443531316E+02  0.00000000000E+00 0. -1.
         -4    1    3    3    0  502  0.11287091884E+03 -0.20303623366E+02  0.21422500050E+03  0.24299060122E+03  0.00000000000E+00 0.  1.
         13    1    5    5    0    0 -0.31983308827E+03 -0.16582757033E+03 -0.23172910687E+03  0.42835775516E+03  0.00000000000E+00 0. -1.
        -13    1    5    5    0    0 -0.94438809031E+01 -0.30024403965E+01  0.85249715846E+01  0.13071980545E+02  0.00000000000E+00 0.  1.
          1    1    6    6  503    0  0.13316433828E+03  0.67310552999E+02  0.22138154129E+03  0.26697048219E+03  0.00000000000E+00 0. -1.
         -1    1    6    6    0  503  0.98771826871E+02  0.14417387076E+03  0.17634177401E+03  0.24827081998E+03  0.00000000000E+00 0.  1.
<mgrwt>
<rscale>  0 0.11635884E+04</rscale>
<asrwt>0</asrwt>
<pdfrwt beam="1">  1        1 0.63455829E-01 0.11635884E+04</pdfrwt>
<pdfrwt beam="2">  1       -2 0.12625266E+00 0.11635884E+04</pdfrwt>
<totfact> 0.23332791E+01</totfact>
</mgrwt>
</event>
<event>
12    5  0.5041746E-008  0.2540248E+04  0.7818608E-02  0.8388786E-01
         -2   -1    0    0    0  501 -0.00000000000E+00  0.00000000000E+00  0.31942029669E+03  0.31942029669E+03  0.00000000000E+00 0.  1.
          1   -1    0    0  501    0  0.00000000000E+00 -0.00000000000E+00 -0.50504443990E+04  0.50504443990E+04  0.00000000000E+00 0. -1.
        -24    2    1    2    0    0  0.16698699523E+03  0.48477336180E+03 -0.41702301860E+04  0.42022808751E+04  0.73857159809E+02 0.  0.
        254    2    1    2    0    0 -0.16698699523E+03 -0.48477336180E+03 -0.56079391630E+03  0.11675838206E+04  0.88649438389E+03 0.  0.
         23    2    4    4    0    0  0.18779384789E+03 -0.59103358407E+03 -0.24730089949E+03  0.67382733994E+03  0.91095128026E+02 0.  0.
         23    2    4    4    0    0 -0.35478084312E+03  0.10626022227E+03 -0.31349301682E+03  0.49375648066E+03  0.91416131619E+02 0.  0.
          1    1    3    3  502    0  0.14850110580E+03  0.43424833701E+03 -0.35127411923E+04  0.35425943714E+04  0.00000000000E+00 0. -1.
         -2    1    3    3    0  502  0.18485889426E+02  0.50525024797E+02 -0.65748899373E+03  0.65968650367E+03  0.00000000000E+00 0.  1.
         13    1    5    5    0    0  0.13887606950E+02 -0.82281054795E+02 -0.36063408041E+01  0.83522711277E+02  0.00000000000E+00 0.  1.
        -13    1    5    5    0    0  0.17390624094E+03 -0.50875252928E+03 -0.24369455868E+03  0.59030462866E+03  0.00000000000E+00 0. -1.
          4    1    6    6  503    0 -0.89521165345E+02  0.12911767170E+02 -0.32195852391E+02  0.96006904373E+02  0.00000000000E+00 0. -1.
         -4    1    6    6    0  503 -0.26525967777E+03  0.93348455102E+02 -0.28129716443E+03  0.39774957629E+03  0.00000000000E+00 0.  1.
<mgrwt>
<rscale>  0 0.25402476E+04</rscale>
<asrwt>0</asrwt>
<pdfrwt beam="1">  1        1 0.77699141E+00 0.25402476E+04</pdfrwt>
<pdfrwt beam="2">  1       -2 0.49141586E-01 0.25402476E+04</pdfrwt>
<totfact> 0.22870698E-02</totfact>
</mgrwt>
</event>
<event>
12    5  0.5041746E-008  0.1229216E+04  0.7818608E-02  0.9087661E-01
         -2   -1    0    0    0  501 -0.00000000000E+00  0.00000000000E+00  0.18132501628E+03  0.18132501628E+03  0.00000000000E+00 0.  1.
          1   -1    0    0  501    0  0.00000000000E+00 -0.00000000000E+00 -0.20832372896E+04  0.20832372896E+04  0.00000000000E+00 0. -1.
        -24    2    1    2    0    0  0.22767593025E+03 -0.16989547567E+03 -0.55165199175E+03  0.62543692410E+03  0.78425915062E+02 0.  0.
        254    2    1    2    0    0 -0.22767593025E+03  0.16989547567E+03 -0.13502602815E+04  0.16391253818E+04  0.88477589667E+03 0.  0.
         23    2    4    4    0    0 -0.37651038991E+03  0.44591734561E+03 -0.74510757332E+03  0.95082814840E+03  0.91030319843E+02 0.  0.
         23    2    4    4    0    0  0.14883445966E+03 -0.27602186994E+03 -0.60515270822E+03  0.68829723336E+03  0.95934936902E+02 0.  0.
          1    1    3    3  502    0  0.22141324387E+03 -0.14471899338E+03 -0.46483192895E+03  0.53482346039E+03  0.00000000000E+00 0. -1.
         -2    1    3    3    0  502  0.62626863772E+01 -0.25176482291E+02 -0.86820062800E+02  0.90613463711E+02  0.00000000000E+00 0.  1.
         13    1    5    5    0    0 -0.30302857667E+02  0.98576605504E+01 -0.60610448444E+02  0.68476734113E+02  0.00000000000E+00 0. -1.
        -13    1    5    5    0    0 -0.34620753224E+03  0.43605968506E+03 -0.68449712488E+03  0.88235141428E+03  0.00000000000E+00 0.  1.
          3    1    6    6  503    0  0.25571217715E+02 -0.19477580781E+00 -0.40400204740E+02  0.47813195418E+02  0.00000000000E+00 0. -1.
         -3    1    6    6    0  503  0.12326324194E+03 -0.27582709413E+03 -0.56475250348E+03  0.64048403794E+03  0.00000000000E+00 0.  1.
<mgrwt>
<rscale>  0 0.12292161E+04</rscale>
<asrwt>0</asrwt>
<pdfrwt beam="1">  1        1 0.32049804E+00 0.12292161E+04</pdfrwt>
<pdfrwt beam="2">  1       -2 0.27896157E-01 0.12292161E+04</pdfrwt>
<totfact> 0.26683570E+01</totfact>
</mgrwt>
</event>
<event>
12    5  0.5041746E-008  0.2490648E+04  0.7818608E-02  0.8406325E-01
         -2   -1    0    0    0  501 -0.00000000000E+00  0.00000000000E+00  0.98048429481E+03  0.98048429481E+03  0.00000000000E+00 0.  1.
          1   -1    0    0  501    0  0.00000000000E+00 -0.00000000000E+00 -0.15816995697E+04  0.15816995697E+04  0.00000000000E+00 0. -1.
        -24    2    1    2    0    0 -0.83457042462E+03  0.57467980786E+03  0.12540450936E+03  0.10241246482E+04  0.79626182469E+02 0.  0.
        254    2    1    2    0    0  0.83457042462E+03 -0.57467980786E+03 -0.72661978423E+03  0.15380592163E+04  0.90049162498E+03 0.  0.
         23    2    4    4    0    0  0.91897924254E+03 -0.68333735931E+03 -0.75041147990E+03  0.13721352847E+04  0.90360696359E+02 0.  0.
         23    2    4    4    0    0 -0.84408817920E+02  0.10865755145E+03  0.23791695668E+02  0.16592393158E+03  0.89629204279E+02 0.  0.
          3    1    3    3  502    0 -0.25194612614E+03  0.14584025856E+03  0.79584178401E+01  0.29122082328E+03  0.00000000000E+00 0. -1.
         -4    1    3    3    0  502 -0.58262429847E+03  0.42883954930E+03  0.11744609152E+03  0.73290382495E+03  0.00000000000E+00 0.  1.
         13    1    5    5    0    0  0.22232768609E+03 -0.16861594415E+03 -0.23030205460E+03  0.36180101296E+03  0.00000000000E+00 0. -1.
        -13    1    5    5    0    0  0.69665155645E+03 -0.51472141516E+03 -0.52010942530E+03  0.10103342717E+04  0.00000000000E+00 0.  1.
          2    1    6    6  503    0 -0.89537586013E+02  0.10127321537E+03 -0.54930711459E+01  0.13529012266E+03  0.00000000000E+00 0.  1.
         -2    1    6    6    0  503  0.51287680935E+01  0.73843360802E+01  0.29284766814E+02  0.30633808918E+02  0.00000000000E+00 0. -1.
<mgrwt>
<rscale>  0 0.24906478E+04</rscale>
<asrwt>0</asrwt>
<pdfrwt beam="1">  1        1 0.24333839E+00 0.24906478E+04</pdfrwt>
<pdfrwt beam="2">  1       -2 0.15084374E+00 0.24906478E+04</pdfrwt>
<totfact> 0.13240656E+00</totfact>
</mgrwt>
</event>
<event>
12    5  0.5041746E-008  0.1967726E+04  0.7818608E-02  0.8621860E-01
         -2   -1    0    0    0  501 -0.00000000000E+00  0.00000000000E+00  0.83939289704E+03  0.83939289704E+03  0.00000000000E+00 0.  1.
          1   -1    0    0  501    0  0.00000000000E+00 -0.00000000000E+00 -0.11531983408E+04  0.11531983408E+04  0.00000000000E+00 0. -1.
        -24    2    1    2    0    0 -0.37698101929E+03  0.44455253685E+03  0.39554008317E+03  0.70877627008E+03  0.78550599679E+02 0.  0.
        254    2    1    2    0    0  0.37698101929E+03 -0.44455253685E+03 -0.70934552690E+03  0.12838149677E+04  0.89736734277E+03 0.  0.
         23    2    4    4    0    0  0.58345681042E+03 -0.15158631375E+03 -0.68107314433E+03  0.91389725321E+03  0.89147637948E+02 0.  0.
         23    2    4    4    0    0 -0.20647579113E+03 -0.29296622310E+03 -0.28272382562E+02  0.36991771450E+03  0.87053590877E+02 0.  0.
          1    1    3    3  502    0 -0.10942036076E+03  0.86778970347E+02  0.71626627231E+02  0.15695151726E+03  0.00000000000E+00 0. -1.
         -2    1    3    3    0  502 -0.26756065853E+03  0.35777356651E+03  0.32391345594E+03  0.55182475282E+03  0.00000000000E+00 0.  1.
         13    1    5    5    0    0  0.43580494283E+02 -0.72605132297E+01 -0.91219960676E+02  0.10135608398E+03  0.00000000000E+00 0.  1.
        -13    1    5    5    0    0  0.53987631614E+03 -0.14432580052E+03 -0.58985318366E+03  0.81254116923E+03  0.00000000000E+00 0. -1.
          1    1    6    6  503    0 -0.13020904807E+03 -0.20418146400E+03  0.20682881334E+02  0.24304783073E+03  0.00000000000E+00 0. -1.
         -1    1    6    6    0  503 -0.76266743059E+02 -0.88784759093E+02 -0.48955263895E+02  0.12686988377E+03  0.00000000000E+00 0.  1.
<mgrwt>
<rscale>  0 0.19677261E+04</rscale>
<asrwt>0</asrwt>
<pdfrwt beam="1">  1        1 0.17741513E+00 0.19677261E+04</pdfrwt>
<pdfrwt beam="2">  1       -2 0.12913737E+00 0.19677261E+04</pdfrwt>
<totfact> 0.41689623E+00</totfact>
</mgrwt>
</event>
<event>
12    5  0.5041746E-008  0.1794393E+04  0.7818608E-02  0.8709287E-01
         -2   -1    0    0    0  501 -0.00000000000E+00  0.00000000000E+00  0.93276310124E+03  0.93276310124E+03  0.00000000000E+00 0.  1.
          1   -1    0    0  501    0  0.00000000000E+00 -0.00000000000E+00 -0.86298636150E+03  0.86298636150E+03  0.00000000000E+00 0. -1.
        -24    2    1    2    0    0 -0.56178966967E+03 -0.35365628259E+03  0.90405383021E+02  0.67453620146E+03  0.78393588028E+02 0.  0.
        254    2    1    2    0    0  0.56178966967E+03  0.35365628259E+03 -0.20628643287E+02  0.11212132613E+04  0.90333451012E+03 0.  0.
         23    2    4    4    0    0 -0.23678690611E+03  0.13845710007E+03 -0.10596538597E+02  0.28919697182E+03  0.91017550043E+02 0.  0.
         23    2    4    4    0    0  0.79857657577E+03  0.21519918252E+03 -0.10032104690E+02  0.83201628946E+03  0.90084556195E+02 0.  0.
          3    1    3    3  502    0 -0.20069004588E+03 -0.13098627840E+03 -0.50017663544E+01  0.23970589753E+03  0.00000000000E+00 0. -1.
         -2    1    3    3    0  502 -0.36109962378E+03 -0.22267000419E+03  0.95407149375E+02  0.43483030393E+03  0.00000000000E+00 0.  1.
         13    1    5    5    0    0 -0.19421844093E+03  0.13658748742E+03 -0.35139686344E+02  0.24002446141E+03  0.00000000000E+00 0.  1.
        -13    1    5    5    0    0 -0.42568465172E+02  0.18696126503E+01  0.24543147747E+02  0.49172510409E+02  0.00000000000E+00 0. -1.
          1    1    6    6  503    0  0.52194035871E+03  0.18455670341E+03 -0.93055168350E+01  0.55368719280E+03  0.00000000000E+00 0. -1.
         -1    1    6    6    0  503  0.27663621706E+03  0.30642479108E+02 -0.72658785549E+00  0.27832909666E+03  0.00000000000E+00 0.  1.
<mgrwt>
<rscale>  0 0.17943933E+04</rscale>
<asrwt>0</asrwt>
<pdfrwt beam="1">  1        1 0.13276713E+00 0.17943933E+04</pdfrwt>
<pdfrwt beam="2">  1       -2 0.14350202E+00 0.17943933E+04</pdfrwt>
<totfact> 0.54386029E+00</totfact>
</mgrwt>
</event>
<event>
12    5  0.5041746E-008  0.1814018E+04  0.7818608E-02  0.8698880E-01
         -2   -1    0    0    0  501 -0.00000000000E+00  0.00000000000E+00  0.11268672688E+04  0.11268672688E+04  0.00000000000E+00 0.  1.
          1   -1    0    0  501    0  0.00000000000E+00 -0.00000000000E+00 -0.73004636422E+03  0.73004636422E+03  0.00000000000E+00 0. -1.
        -24    2    1    2    0    0 -0.34916036933E+01 -0.48669441296E+02  0.84322326445E+03  0.84855377445E+03  0.81468574455E+02 0.  0.
        254    2    1    2    0    0  0.34916036933E+01  0.48669441296E+02 -0.44640235982E+03  0.10083598586E+04  0.90284751304E+03 0.  0.
         23    2    4    4    0    0  0.14684732264E+03 -0.99858804645E+02  0.22590952621E+03  0.30064901518E+03  0.88423974480E+02 0.  0.
         23    2    4    4    0    0 -0.14335571895E+03  0.14852824594E+03 -0.67231188603E+03  0.70771084343E+03  0.78992808666E+02 0.  0.
          1    1    3    3  502    0 -0.14808265906E+02  0.46700092483E+01  0.32707879086E+02  0.36206340326E+02  0.00000000000E+00 0. -1.
         -2    1    3    3    0  502  0.11316662212E+02 -0.53339450544E+02  0.81051538536E+03  0.81234743413E+03  0.00000000000E+00 0.  1.
         13    1    5    5    0    0  0.11870587152E+03 -0.29137525197E+02  0.13642347963E+03  0.18317053558E+03  0.00000000000E+00 0. -1.
        -13    1    5    5    0    0  0.28141451126E+02 -0.70721279448E+02  0.89486046578E+02  0.11747847961E+03  0.00000000000E+00 0.  1.
          1    1    6    6  503    0 -0.14070026645E+03  0.10110214965E+03 -0.51293430642E+03  0.54140540480E+03  0.00000000000E+00 0. -1.
         -1    1    6    6    0  503 -0.26554524963E+01  0.47426096293E+02 -0.15937757961E+03  0.16630543863E+03  0.00000000000E+00 0.  1.
<mgrwt>
<rscale>  0 0.18140180E+04</rscale>
<asrwt>0</asrwt>
<pdfrwt beam="1">  1        1 0.11231483E+00 0.18140180E+04</pdfrwt>
<pdfrwt beam="2">  1       -2 0.17336419E+00 0.18140180E+04</pdfrwt>
<totfact> 0.42512920E+00</totfact>
</mgrwt>
</event>
<event>
12    5  0.5041746E-008  0.1650643E+04  0.7818608E-02  0.8790026E-01
          1   -1    0    0  501    0  0.00000000000E+00  0.00000000000E+00  0.44181347683E+04  0.44181347683E+04  0.00000000000E+00 0. -1.
         -2   -1    0    0    0  501 -0.00000000000E+00 -0.00000000000E+00 -0.15417268533E+03  0.15417268533E+03  0.00000000000E+00 0.  1.
        -24    2    1    2    0    0 -0.34844364542E+03 -0.32276149496E+03  0.23697433572E+04  0.24181583477E+04  0.78855935785E+02 0.  0.
        254    2    1    2    0    0  0.34844364542E+03  0.32276149496E+03  0.18942187258E+04  0.21541491060E+04  0.90923365157E+03 0.  0.
         23    2    4    4    0    0 -0.25062657882E+03  0.17267234942E+03  0.28049911911E+03  0.42415295365E+03  0.92717581954E+02 0.  0.
         23    2    4    4    0    0  0.59907022425E+03  0.15008914554E+03  0.16137196067E+04  0.17299961524E+04  0.85929232647E+02 0.  0.
          3    1    3    3  502    0 -0.26822728973E+03 -0.27350250272E+03  0.17614630403E+04  0.18026373846E+04  0.00000000000E+00 0. -1.
         -4    1    3    3    0  502 -0.80216355691E+02 -0.49258992239E+02  0.60828031690E+03  0.61552096306E+03  0.00000000000E+00 0.  1.
         13    1    5    5    0    0 -0.21434378576E+03  0.99147788431E+02  0.20938895023E+03  0.31562204442E+03  0.00000000000E+00 0.  1.
        -13    1    5    5    0    0 -0.36282793065E+02  0.73524560988E+02  0.71110168880E+02  0.10853090923E+03  0.00000000000E+00 0. -1.
          3    1    6    6  503    0  0.21071996969E+01 -0.35285730978E+01  0.34414761933E+02  0.34659298285E+02  0.00000000000E+00 0. -1.
         -3    1    6    6    0  503  0.59696302455E+03  0.15361771864E+03  0.15793048447E+04  0.16953368541E+04  0.00000000000E+00 0.  1.
<mgrwt>
<rscale>  0 0.16506431E+04</rscale>
<asrwt>0</asrwt>
<pdfrwt beam="1">  1        1 0.67971294E+00 0.16506431E+04</pdfrwt>
<pdfrwt beam="2">  1       -2 0.23718878E-01 0.16506431E+04</pdfrwt>
<totfact> 0.52779823E-01</totfact>
</mgrwt>
</event>
<event>
12    5  0.5041746E-008  0.1319371E+04  0.7818608E-02  0.9014343E-01
          1   -1    0    0  501    0  0.00000000000E+00  0.00000000000E+00  0.25925697805E+04  0.25925697805E+04  0.00000000000E+00 0. -1.
         -2   -1    0    0    0  501 -0.00000000000E+00 -0.00000000000E+00 -0.16785853114E+03  0.16785853114E+03  0.00000000000E+00 0.  1.
        -24    2    1    2    0    0  0.23385413230E+03 -0.12408157778E+03  0.10845386106E+04  0.11192587409E+04  0.80200611330E+02 0.  0.
        254    2    1    2    0    0 -0.23385413230E+03  0.12408157778E+03  0.13401726388E+04  0.16411695707E+04  0.90955531173E+03 0.  0.
         23    2    4    4    0    0 -0.43223606963E+02 -0.33921905068E+03  0.23505772418E+03  0.42452371532E+03  0.89612536153E+02 0.  0.
         23    2    4    4    0    0 -0.19063052534E+03  0.46330062846E+03  0.11051149146E+04  0.12166458554E+04  0.89222718773E+02 0.  0.
          3    1    3    3  502    0  0.22211041485E+03 -0.90799615987E+02  0.90408289253E+03  0.93538413671E+03  0.00000000000E+00 0. -1.
         -4    1    3    3    0  502  0.11743717450E+02 -0.33281961792E+02  0.18045571809E+03  0.18387460420E+03  0.00000000000E+00 0.  1.
         13    1    5    5    0    0  0.72373769543E+01 -0.14282127778E+03  0.14159365428E+03  0.20124378237E+03  0.00000000000E+00 0.  1.
        -13    1    5    5    0    0 -0.50460983917E+02 -0.19639777290E+03  0.93464069902E+02  0.22327993295E+03  0.00000000000E+00 0. -1.
          4    1    6    6  503    0 -0.42430693532E+02  0.16606710916E+03  0.46323038215E+03  0.49392411911E+03  0.00000000000E+00 0. -1.
         -4    1    6    6    0  503 -0.14819983181E+03  0.29723351930E+03  0.64188453243E+03  0.72272173630E+03  0.00000000000E+00 0.  1.
<mgrwt>
<rscale>  0 0.13193710E+04</rscale>
<asrwt>0</asrwt>
<pdfrwt beam="1">  1        1 0.39885686E+00 0.13193710E+04</pdfrwt>
<pdfrwt beam="2">  1       -2 0.25824391E-01 0.13193710E+04</pdfrwt>
<totfact> 0.13674607E+01</totfact>
</mgrwt>
</event>
<event>
12    5  0.5041746E-008  0.1717482E+04  0.7818608E-02  0.8751456E-01
          1   -1    0    0  501    0  0.00000000000E+00  0.00000000000E+00  0.17498687488E+04  0.17498687488E+04  0.00000000000E+00 0. -1.
         -2   -1    0    0    0  501 -0.00000000000E+00 -0.00000000000E+00 -0.42142366712E+03  0.42142366712E+03  0.00000000000E+00 0.  1.
        -24    2    1    2    0    0  0.91687944502E+02  0.49271434807E+03  0.94691025023E+03  0.10743972271E+04  0.80723427493E+02 0.  0.
        254    2    1    2    0    0 -0.91687944502E+02 -0.49271434807E+03  0.38153483149E+03  0.10968951888E+04  0.89801788380E+03 0.  0.
         23    2    4    4    0    0  0.31321038706E+03 -0.67589225410E+02 -0.82430325323E+02  0.34300290101E+03  0.90483046007E+02 0.  0.
         23    2    4    4    0    0 -0.40489833156E+03 -0.42512512266E+03  0.46396515681E+03  0.75389228779E+03  0.91738138386E+02 0.  0.
          1    1    3    3  502    0  0.16033837255E+02  0.14815958756E+03  0.21117178398E+03  0.25846057664E+03  0.00000000000E+00 0. -1.
         -2    1    3    3    0  502  0.75654107248E+02  0.34455476051E+03  0.73573846624E+03  0.81593665051E+03  0.00000000000E+00 0.  1.
         13    1    5    5    0    0  0.12187559971E+03 -0.15631973189E+02 -0.76315734216E+02  0.14464477757E+03  0.00000000000E+00 0. -1.
        -13    1    5    5    0    0  0.19133478736E+03 -0.51957252220E+02 -0.61145911074E+01  0.19835812344E+03  0.00000000000E+00 0.  1.
          3    1    6    6  503    0 -0.20748757460E+03 -0.27501501321E+03  0.24137283652E+03  0.42064854370E+03  0.00000000000E+00 0. -1.
         -3    1    6    6    0  503 -0.19741075697E+03 -0.15011010945E+03  0.22259232029E+03  0.33324374410E+03  0.00000000000E+00 0.  1.
<mgrwt>
<rscale>  0 0.17174820E+04</rscale>
<asrwt>0</asrwt>
<pdfrwt beam="1">  1        1 0.26921057E+00 0.17174820E+04</pdfrwt>
<pdfrwt beam="2">  1       -2 0.64834411E-01 0.17174820E+04</pdfrwt>
<totfact> 0.80693803E+00</totfact>
</mgrwt>
</event>
<event>
12    5  0.5041746E-008  0.9970938E+03  0.7818608E-02  0.9311738E-01
         -2   -1    0    0    0  501 -0.00000000000E+00  0.00000000000E+00  0.43911990532E+03  0.43911990532E+03  0.00000000000E+00 0.  1.
          1   -1    0    0  501    0  0.00000000000E+00 -0.00000000000E+00 -0.56601626124E+03  0.56601626124E+03  0.00000000000E+00 0. -1.
        -24    2    1    2    0    0  0.67218687892E+01  0.43843845229E+02 -0.34075918809E+02  0.94312966268E+02  0.75936164501E+02 0.  0.
        254    2    1    2    0    0 -0.67218687892E+01 -0.43843845229E+02 -0.92820437107E+02  0.91082320029E+03  0.90499491842E+03 0.  0.
         23    2    4    4    0    0  0.14018412596E+03  0.38981187995E+03 -0.12394906668E+03  0.44196078449E+03  0.91438902977E+02 0.  0.
         23    2    4    4    0    0 -0.14690599475E+03 -0.43365572518E+03  0.31128629573E+02  0.46886241580E+03  0.96043292817E+02 0.  0.
          3    1    3    3  502    0 -0.99493321314E+01  0.59189787618E+02 -0.38389271395E+02  0.71247149602E+02  0.00000000000E+00 0. -1.
         -4    1    3    3    0  502  0.16671200921E+02 -0.15345942389E+02  0.43133525854E+01  0.23065816666E+02  0.00000000000E+00 0.  1.
         13    1    5    5    0    0  0.36096521983E+02  0.11716124699E+03  0.54499655616E+01  0.12271682370E+03  0.00000000000E+00 0. -1.
        -13    1    5    5    0    0  0.10408760397E+03  0.27265063297E+03 -0.12939903224E+03  0.31924396079E+03  0.00000000000E+00 0.  1.
          1    1    6    6  503    0 -0.44428681710E+02 -0.12943087921E+03 -0.34670435620E+02  0.14116762857E+03  0.00000000000E+00 0. -1.
         -1    1    6    6    0  503 -0.10247731304E+03 -0.30422484598E+03  0.65799065193E+02  0.32769478723E+03  0.00000000000E+00 0.  1.
<mgrwt>
<rscale>  0 0.99709379E+03</rscale>
<asrwt>0</asrwt>
<pdfrwt beam="1">  1        1 0.87079425E-01 0.99709379E+03</pdfrwt>
<pdfrwt beam="2">  1       -2 0.67556909E-01 0.99709379E+03</pdfrwt>
<totfact> 0.65677729E+01</totfact>
</mgrwt>
</event>
<event>
12    5  0.5041746E-008  0.2183921E+04  0.7818608E-02  0.8525150E-01
         -2   -1    0    0    0  501 -0.00000000000E+00  0.00000000000E+00  0.13725437444E+04  0.13725437444E+04  0.00000000000E+00 0.  1.
          1   -1    0    0  501    0  0.00000000000E+00 -0.00000000000E+00 -0.86873590772E+03  0.86873590772E+03  0.00000000000E+00 0. -1.
        -24    2    1    2    0    0  0.58989853981E+03 -0.14356415624E+03  0.91283604446E+03  0.10995008649E+04  0.83913965002E+02 0.  0.
        254    2    1    2    0    0 -0.58989853981E+03  0.14356415624E+03 -0.40902820776E+03  0.11417787873E+04  0.87622130204E+03 0.  0.
         23    2    4    4    0    0  0.13090352747E+02 -0.26054261726E+03  0.41949764244E+02  0.28242117704E+03  0.99740291644E+02 0.  0.
         23    2    4    4    0    0 -0.60298889255E+03  0.40410677350E+03 -0.45097797200E+03  0.85935761025E+03  0.90644813077E+02 0.  0.
          1    1    3    3  502    0  0.48041582247E+03 -0.93124630293E+02  0.68643748941E+03  0.84301126097E+03  0.00000000000E+00 0. -1.
         -2    1    3    3    0  502  0.10948271734E+03 -0.50439525951E+02  0.22639855505E+03  0.25648960389E+03  0.00000000000E+00 0.  1.
         13    1    5    5    0    0  0.21751693305E+02 -0.17541032162E+03  0.73213895288E+02  0.19131699233E+03  0.00000000000E+00 0. -1.
        -13    1    5    5    0    0 -0.86613405580E+01 -0.85132295640E+02 -0.31264131044E+02  0.91104184707E+02  0.00000000000E+00 0.  1.
          3    1    6    6  503    0 -0.54371301011E+03  0.38786282591E+03 -0.43037983998E+03  0.79453647855E+03  0.00000000000E+00 0. -1.
         -3    1    6    6    0  503 -0.59275882442E+02  0.16243947598E+02 -0.20598132022E+02  0.64821131705E+02  0.00000000000E+00 0.  1.
<mgrwt>
<rscale>  0 0.21839213E+04</rscale>
<asrwt>0</asrwt>
<pdfrwt beam="1">  1        1 0.13365168E+00 0.21839213E+04</pdfrwt>
<pdfrwt beam="2">  1       -2 0.21116058E+00 0.21839213E+04</pdfrwt>
<totfact> 0.17392119E+00</totfact>
</mgrwt>
</event>
<event>
12    5  0.5622384E-008  0.2012871E+04  0.7818608E-02  0.8600627E-01
         -2   -1    0    0    0  501 -0.00000000000E+00  0.00000000000E+00  0.39751872242E+03  0.39751872242E+03  0.00000000000E+00 0.  1.
          1   -1    0    0  501    0  0.00000000000E+00 -0.00000000000E+00 -0.25480873847E+04  0.25480873847E+04  0.00000000000E+00 0. -1.
        -24    2    1    2    0    0  0.57840866990E+03  0.27384713257E+03 -0.14871971991E+04  0.16216450035E+04  0.91805048097E+02 0.  0.
        254    2    1    2    0    0 -0.57840866990E+03 -0.27384713257E+03 -0.66337146321E+03  0.13239611037E+04  0.95040121232E+03 0.  0.
         23    2    4    4    0    0 -0.13053023897E+03  0.88131990361E+02  0.20703652700E+03  0.27635927915E+03  0.93300249991E+02 0.  0.
         23    2    4    4    0    0 -0.44787843093E+03 -0.36197912293E+03 -0.87040799021E+03  0.10476018245E+04  0.90749870420E+02 0.  0.
          3    1    3    3  502    0  0.57585916638E+03  0.25938452939E+03 -0.14595446639E+04  0.15903347885E+04  0.00000000000E+00 0. -1.
         -4    1    3    3    0  502  0.25495035205E+01  0.14462603178E+02 -0.27652535182E+02  0.31310214961E+02  0.00000000000E+00 0.  1.
         13    1    5    5    0    0 -0.71670604215E+02  0.44101349492E+02  0.17880537741E+03  0.19761823683E+03  0.00000000000E+00 0.  1.
        -13    1    5    5    0    0 -0.58859634751E+02  0.44030640869E+02  0.28231149589E+02  0.78741042319E+02  0.00000000000E+00 0. -1.
          2    1    6    6  503    0 -0.30184218665E+02 -0.17261862890E+02 -0.22231745889E+02  0.41271170230E+02  0.00000000000E+00 0. -1.
         -2    1    6    6    0  503 -0.41769421227E+03 -0.34471726004E+03 -0.84817624432E+03  0.10063306543E+04  0.00000000000E+00 0.  1.
<mgrwt>
<rscale>  0 0.20128710E+04</rscale>
<asrwt>0</asrwt>
<pdfrwt beam="1">  1        1 0.39201346E+00 0.20128710E+04</pdfrwt>
<pdfrwt beam="2">  1       -2 0.61156724E-01 0.20128710E+04</pdfrwt>
<totfact> 0.25409100E+00</totfact>
</mgrwt>
</event>
<event>
12    5  0.5041746E-008  0.1593364E+04  0.7818608E-02  0.8824635E-01
         -2   -1    0    0    0  501 -0.00000000000E+00  0.00000000000E+00  0.31107825196E+03  0.31107825196E+03  0.00000000000E+00 0.  1.
          1   -1    0    0  501    0  0.00000000000E+00 -0.00000000000E+00 -0.20403300770E+04  0.20403300770E+04  0.00000000000E+00 0. -1.
        -24    2    1    2    0    0  0.41786752086E+01  0.53515703690E+03 -0.64487675299E+03  0.84191426942E+03  0.80889400063E+02 0.  0.
        254    2    1    2    0    0 -0.41786752086E+01 -0.53515703690E+03 -0.10843750721E+04  0.15094940595E+04  0.90348907212E+03 0.  0.
         23    2    4    4    0    0 -0.10971161449E+03 -0.97821620434E+01 -0.93382534847E+03  0.94474060078E+03  0.91502416800E+02 0.  0.
         23    2    4    4    0    0  0.10553293928E+03 -0.52537487486E+03 -0.15054972359E+03  0.56475345876E+03  0.95526381208E+02 0.  0.
          1    1    3    3  502    0 -0.23326275046E+02  0.23401089987E+03 -0.33129693348E+03  0.40627930602E+03  0.00000000000E+00 0. -1.
         -2    1    3    3    0  502  0.27504950255E+02  0.30114613703E+03 -0.31357981950E+03  0.43563496340E+03  0.00000000000E+00 0.  1.
         13    1    5    5    0    0 -0.30487405839E+02 -0.14559739584E+01 -0.62701139436E+03  0.62775384542E+03  0.00000000000E+00 0.  1.
        -13    1    5    5    0    0 -0.79224208653E+02 -0.83261880850E+01 -0.30681395410E+03  0.31698675537E+03  0.00000000000E+00 0. -1.
          4    1    6    6  503    0  0.86097209990E+02 -0.20047185563E+03 -0.74033007583E+02  0.23039657263E+03  0.00000000000E+00 0. -1.
         -4    1    6    6    0  503  0.19435729293E+02 -0.32490301923E+03 -0.76516716012E+02  0.33435688614E+03  0.00000000000E+00 0.  1.
<mgrwt>
<rscale>  0 0.15933641E+04</rscale>
<asrwt>0</asrwt>
<pdfrwt beam="1">  1        1 0.31389693E+00 0.15933641E+04</pdfrwt>
<pdfrwt beam="2">  1       -2 0.47858193E-01 0.15933641E+04</pdfrwt>
<totfact> 0.97609578E+00</totfact>
</mgrwt>
</event>
<event>
12    5  0.5041746E-008  0.1345116E+04  0.7818608E-02  0.8994533E-01
         -2   -1    0    0    0  501 -0.00000000000E+00  0.00000000000E+00  0.21466972003E+03  0.21466972003E+03  0.00000000000E+00 0.  1.
          1   -1    0    0  501    0  0.00000000000E+00 -0.00000000000E+00 -0.21071181527E+04  0.21071181527E+04  0.00000000000E+00 0. -1.
        -24    2    1    2    0    0 -0.13549433354E+03  0.22283220356E+03 -0.98336429464E+02  0.28999864389E+03  0.80101527635E+02 0.  0.
        254    2    1    2    0    0  0.13549433354E+03 -0.22283220356E+03 -0.17941120032E+04  0.20317892289E+04  0.91723316830E+03 0.  0.
         23    2    4    4    0    0  0.38768618040E+03 -0.89868527102E+02 -0.29172741602E+03  0.49989954641E+03  0.80110827049E+02 0.  0.
         23    2    4    4    0    0 -0.25219184686E+03 -0.13296367646E+03 -0.15023845872E+04  0.15318896825E+04  0.90810155948E+02 0.  0.
          3    1    3    3  502    0 -0.44480684121E+02  0.12389239648E+03 -0.80723585453E+02  0.15441552517E+03  0.00000000000E+00 0. -1.
         -4    1    3    3    0  502 -0.91013649418E+02  0.98939807080E+02 -0.17612844011E+02  0.13558311871E+03  0.00000000000E+00 0.  1.
         13    1    5    5    0    0  0.24347410212E+02  0.13891457756E+01  0.10962988557E+01  0.24411636185E+02  0.00000000000E+00 0. -1.
        -13    1    5    5    0    0  0.36333877019E+03 -0.91257672878E+02 -0.29282371487E+03  0.47548791023E+03  0.00000000000E+00 0.  1.
          2    1    6    6  503    0 -0.24046380646E+03 -0.93481740033E+02 -0.13025977170E+04  0.13279015364E+04  0.00000000000E+00 0.  1.
         -2    1    6    6    0  503 -0.11728040404E+02 -0.39481936429E+02 -0.19978687022E+03  0.20398814610E+03  0.00000000000E+00 0. -1.
<mgrwt>
<rscale>  0 0.13451163E+04</rscale>
<asrwt>0</asrwt>
<pdfrwt beam="1">  1        1 0.32417202E+00 0.13451163E+04</pdfrwt>
<pdfrwt beam="2">  1       -2 0.33026111E-01 0.13451163E+04</pdfrwt>
<totfact> 0.18568824E+01</totfact>
</mgrwt>
</event>
<event>
12    5  0.5041746E-008  0.1274944E+04  0.7818608E-02  0.9049675E-01
         -2   -1    0    0    0  501 -0.00000000000E+00  0.00000000000E+00  0.45980337379E+03  0.45980337379E+03  0.00000000000E+00 0.  1.
          1   -1    0    0  501    0  0.00000000000E+00 -0.00000000000E+00 -0.88379140451E+03  0.88379140451E+03  0.00000000000E+00 0. -1.
        -24    2    1    2    0    0  0.27943410870E+03 -0.13232262158E+03 -0.38256640021E+02  0.32019222733E+03  0.73937775510E+02 0.  0.
        254    2    1    2    0    0 -0.27943410870E+03  0.13232262158E+03 -0.38573139070E+03  0.10234025510E+04  0.89608670244E+03 0.  0.
         23    2    4    4    0    0 -0.50945439106E+03  0.70111784928E+02 -0.51766115088E+03  0.73527009052E+03  0.90496408386E+02 0.  0.
         23    2    4    4    0    0  0.23002028235E+03  0.62210836648E+02  0.13192976018E+03  0.28813246046E+03  0.93996460877E+02 0.  0.
          1    1    3    3  502    0  0.25551023847E+03 -0.13661793782E+03 -0.48577911576E+02  0.29378522153E+03  0.00000000000E+00 0. -1.
         -2    1    3    3    0  502  0.23923870231E+02  0.42953162442E+01  0.10321271555E+02  0.26407005793E+02  0.00000000000E+00 0.  1.
         13    1    5    5    0    0 -0.37692252608E+03  0.11157372622E+02 -0.37655070774E+03  0.53290291154E+03  0.00000000000E+00 0. -1.
        -13    1    5    5    0    0 -0.13253186498E+03  0.58954412306E+02 -0.14111044314E+03  0.20236717898E+03  0.00000000000E+00 0.  1.
          4    1    6    6  503    0  0.23641284103E+03  0.51871943605E+02  0.11685992911E+03  0.26877122794E+03  0.00000000000E+00 0. -1.
         -4    1    6    6    0  503 -0.63925586814E+01  0.10338893043E+02  0.15069831074E+02  0.19361232514E+02  0.00000000000E+00 0.  1.
<mgrwt>
<rscale>  0 0.12749436E+04</rscale>
<asrwt>0</asrwt>
<pdfrwt beam="1">  1        1 0.13596791E+00 0.12749436E+04</pdfrwt>
<pdfrwt beam="2">  1       -2 0.70738981E-01 0.12749436E+04</pdfrwt>
<totfact> 0.29413610E+01</totfact>
</mgrwt>
</event>
<event>
12    5  0.5041746E-008  0.3493158E+04  0.7818608E-02  0.8115413E-01
         -2   -1    0    0    0  501 -0.00000000000E+00  0.00000000000E+00  0.12835416258E+04  0.12835416258E+04  0.00000000000E+00 0.  1.
          1   -1    0    0  501    0  0.00000000000E+00 -0.00000000000E+00 -0.23766573100E+04  0.23766573100E+04  0.00000000000E+00 0. -1.
        -24    2    1    2    0    0  0.10731292073E+04 -0.88904153860E+03 -0.13941883304E+04  0.19728283455E+04  0.79305909335E+02 0.  0.
        254    2    1    2    0    0 -0.10731292073E+04  0.88904153860E+03  0.30107264621E+03  0.16873705903E+04  0.90253732220E+03 0.  0.
         23    2    4    4    0    0 -0.83484817315E+03  0.11798248322E+03  0.16889895704E+03  0.86474091975E+03  0.91425718771E+02 0.  0.
         23    2    4    4    0    0 -0.23828103413E+03  0.77105905539E+03  0.13217368917E+03  0.82262967059E+03  0.89105402183E+02 0.  0.
          3    1    3    3  502    0  0.87972774952E+03 -0.73316481159E+03 -0.11869371375E+04  0.16493245050E+04  0.00000000000E+00 0. -1.
         -4    1    3    3    0  502  0.19340145776E+03 -0.15587672701E+03 -0.20725119290E+03  0.32350384054E+03  0.00000000000E+00 0.  1.
         13    1    5    5    0    0 -0.61052286912E+03  0.11758822998E+03  0.97602987708E+02  0.62935801318E+03  0.00000000000E+00 0. -1.
        -13    1    5    5    0    0 -0.22432530403E+03  0.39425323671E+00  0.71295969328E+02  0.23538290658E+03  0.00000000000E+00 0.  1.
          1    1    6    6  503    0 -0.78132794718E+02  0.31019844807E+03  0.93172040191E+02  0.33317989116E+03  0.00000000000E+00 0. -1.
         -1    1    6    6    0  503 -0.16014823941E+03  0.46086060731E+03  0.39001648983E+02  0.48944977943E+03  0.00000000000E+00 0.  1.
<mgrwt>
<rscale>  0 0.34931582E+04</rscale>
<asrwt>0</asrwt>
<pdfrwt beam="1">  1        1 0.36563958E+00 0.34931582E+04</pdfrwt>
<pdfrwt beam="2">  1       -2 0.19746794E+00 0.34931582E+04</pdfrwt>
<totfact> 0.16363276E-01</totfact>
</mgrwt>
</event>
<event>
12    5  0.5041746E-008  0.2795081E+04  0.7818608E-02  0.8304797E-01
         -2   -1    0    0    0  501 -0.00000000000E+00  0.00000000000E+00  0.10760791053E+04  0.10760791053E+04  0.00000000000E+00 0.  1.
          1   -1    0    0  501    0  0.00000000000E+00 -0.00000000000E+00 -0.18150332139E+04  0.18150332139E+04  0.00000000000E+00 0. -1.
        -24    2    1    2    0    0 -0.93449598223E+03  0.57897072741E+03 -0.94985662208E+03  0.14548621485E+04  0.76853267730E+02 0.  0.
        254    2    1    2    0    0  0.93449598223E+03 -0.57897072741E+03  0.21090251354E+03  0.14362501707E+04  0.89991379506E+03 0.  0.
         23    2    4    4    0    0 -0.70360269462E+02  0.12425916284E+03 -0.55032927184E+02  0.17799407016E+03  0.90897518507E+02 0.  0.
         23    2    4    4    0    0  0.10048562517E+04 -0.70322989025E+03  0.26593544072E+03  0.12582561005E+04  0.90655340377E+02 0.  0.
          1    1    3    3  502    0 -0.86175517767E+03  0.50976988463E+03 -0.87366732996E+03  0.13288272743E+04  0.00000000000E+00 0. -1.
         -2    1    3    3    0  502 -0.72740804561E+02  0.69200842778E+02 -0.76189292126E+02  0.12603487424E+03  0.00000000000E+00 0.  1.
         13    1    5    5    0    0 -0.28947497239E+02  0.12339558583E+03 -0.32525757299E+02  0.13085240956E+03  0.00000000000E+00 0. -1.
        -13    1    5    5    0    0 -0.41412772223E+02  0.86357700734E+00 -0.22507169885E+02  0.47141660606E+02  0.00000000000E+00 0.  1.
          4    1    6    6  503    0  0.51281236352E+03 -0.41219282860E+03  0.13032904682E+03  0.67071984358E+03  0.00000000000E+00 0. -1.
         -4    1    6    6    0  503  0.49204388818E+03 -0.29103706165E+03  0.13560639390E+03  0.58753625693E+03  0.00000000000E+00 0.  1.
<mgrwt>
<rscale>  0 0.27950809E+04</rscale>
<asrwt>0</asrwt>
<pdfrwt beam="1">  1        1 0.27923588E+00 0.27950809E+04</pdfrwt>
<pdfrwt beam="2">  1       -2 0.16555063E+00 0.27950809E+04</pdfrwt>
<totfact> 0.69477962E-01</totfact>
</mgrwt>
</event>
<event>
12    5  0.5041746E-008  0.1861272E+04  0.7818608E-02  0.8674378E-01
         -2   -1    0    0    0  501 -0.00000000000E+00  0.00000000000E+00  0.11503507159E+04  0.11503507159E+04  0.00000000000E+00 0.  1.
          1   -1    0    0  501    0  0.00000000000E+00 -0.00000000000E+00 -0.75288601177E+03  0.75288601177E+03  0.00000000000E+00 0. -1.
        -24    2    1    2    0    0  0.73812572959E+03  0.99334667308E+02  0.17846909819E+03  0.76985667771E+03  0.78301445665E+02 0.  0.
        254    2    1    2    0    0 -0.73812572959E+03 -0.99334667308E+02  0.21899560594E+03  0.11333800500E+04  0.82576891042E+03 0.  0.
         23    2    4    4    0    0 -0.32203009121E+03 -0.21681640849E+03 -0.26432936118E+03  0.47846865537E+03  0.91375644231E+02 0.  0.
         23    2    4    4    0    0 -0.41609563838E+03  0.11748174118E+03  0.48332496712E+03  0.65491139459E+03  0.91478801545E+02 0.  0.
          1    1    3    3  502    0  0.35762081126E+03  0.49550667394E+02  0.46340774799E+02  0.36399914930E+03  0.00000000000E+00 0. -1.
         -2    1    3    3    0  502  0.38050491833E+03  0.49783999914E+02  0.13212832339E+03  0.40585752841E+03  0.00000000000E+00 0.  1.
         13    1    5    5    0    0 -0.52276242120E+01 -0.23763206525E+02 -0.26487472256E+01  0.24475169072E+02  0.00000000000E+00 0. -1.
        -13    1    5    5    0    0 -0.31680246700E+03 -0.19305320196E+03 -0.26168061396E+03  0.45399348630E+03  0.00000000000E+00 0.  1.
          4    1    6    6  503    0 -0.14885463884E+03  0.51657323094E+01  0.12840202136E+03  0.19665062264E+03  0.00000000000E+00 0. -1.
         -4    1    6    6    0  503 -0.26724099954E+03  0.11231600887E+03  0.35492294576E+03  0.45826077195E+03  0.00000000000E+00 0.  1.
<mgrwt>
<rscale>  0 0.18612716E+04</rscale>
<asrwt>0</asrwt>
<pdfrwt beam="1">  1        1 0.11582862E+00 0.18612716E+04</pdfrwt>
<pdfrwt beam="2">  1       -2 0.17697703E+00 0.18612716E+04</pdfrwt>
<totfact> 0.38075809E+00</totfact>
</mgrwt>
</event>
<event>
12    5  0.5041746E-008  0.1673754E+04  0.7818608E-02  0.8776476E-01
         -2   -1    0    0    0  501 -0.00000000000E+00  0.00000000000E+00  0.75766618542E+03  0.75766618542E+03  0.00000000000E+00 0.  1.
          1   -1    0    0  501    0  0.00000000000E+00 -0.00000000000E+00 -0.92436951017E+03  0.92436951017E+03  0.00000000000E+00 0. -1.
        -24    2    1    2    0    0 -0.58443800412E+03  0.72841931482E+01  0.54100660746E+02  0.59213034253E+03  0.77914189495E+02 0.  0.
        254    2    1    2    0    0  0.58443800412E+03 -0.72841931482E+01 -0.22080398549E+03  0.10899053531E+04  0.89303887849E+03 0.  0.
         23    2    4    4    0    0  0.13263865154E+03  0.13818820082E+03 -0.49193208808E+03  0.53584762588E+03  0.91904886443E+02 0.  0.
         23    2    4    4    0    0  0.45179935258E+03 -0.14547239397E+03  0.27112810259E+03  0.55405772718E+03  0.90469025865E+02 0.  0.
          1    1    3    3  502    0 -0.36827014851E+02  0.19635035844E+02  0.74821865473E+01  0.42399843996E+02  0.00000000000E+00 0. -1.
         -2    1    3    3    0  502 -0.54761098927E+03 -0.12350842695E+02  0.46618474199E+02  0.54973049853E+03  0.00000000000E+00 0.  1.
         13    1    5    5    0    0  0.29268139199E+02 -0.74345287798E+01 -0.41648157289E+02  0.51443806196E+02  0.00000000000E+00 0.  1.
        -13    1    5    5    0    0  0.10337051234E+03  0.14562272960E+03 -0.45028393079E+03  0.48440381969E+03  0.00000000000E+00 0. -1.
          1    1    6    6  503    0  0.45202924218E+03 -0.13883795516E+03  0.25641727623E+03  0.53791842609E+03  0.00000000000E+00 0. -1.
         -1    1    6    6    0  503 -0.22988960295E+00 -0.66344388108E+01  0.14710826360E+02  0.16139301093E+02  0.00000000000E+00 0.  1.
<mgrwt>
<rscale>  0 0.16737545E+04</rscale>
<asrwt>0</asrwt>
<pdfrwt beam="1">  1        1 0.14221069E+00 0.16737545E+04</pdfrwt>
<pdfrwt beam="2">  1       -2 0.11656403E+00 0.16737545E+04</pdfrwt>
<totfact> 0.82876467E+00</totfact>
</mgrwt>
</event>
<event>
12    5  0.5041746E-008  0.2160689E+04  0.7818608E-02  0.8534971E-01
         -2   -1    0    0    0  501 -0.00000000000E+00  0.00000000000E+00  0.73773477533E+03  0.73773477533E+03  0.00000000000E+00 0.  1.
          1   -1    0    0  501    0  0.00000000000E+00 -0.00000000000E+00 -0.15820641402E+04  0.15820641402E+04  0.00000000000E+00 0. -1.
        -24    2    1    2    0    0  0.37823712192E+03  0.56469872341E+03  0.26721031382E+03  0.73462081339E+03  0.79488483667E+02 0.  0.
        254    2    1    2    0    0 -0.37823712192E+03 -0.56469872341E+03 -0.11115396787E+04  0.15851781022E+04  0.90295137722E+03 0.  0.
         23    2    4    4    0    0 -0.30907275709E+03 -0.70853654715E+03 -0.11608226033E+04  0.13975759906E+04  0.90330091005E+02 0.  0.
         23    2    4    4    0    0 -0.69164364828E+02  0.14383782373E+03  0.49282924620E+02  0.18760211155E+03  0.85397404527E+02 0.  0.
          3    1    3    3  502    0  0.65387909691E+02  0.15868698447E+03  0.72676243068E+02  0.18638394265E+03  0.00000000000E+00 0. -1.
         -4    1    3    3    0  502  0.31284921222E+03  0.40601173895E+03  0.19453407075E+03  0.54823687074E+03  0.00000000000E+00 0.  1.
         13    1    5    5    0    0 -0.10434200091E+03 -0.16115110471E+03 -0.33028762870E+03  0.38202990639E+03  0.00000000000E+00 0. -1.
        -13    1    5    5    0    0 -0.20473075618E+03 -0.54738544243E+03 -0.83053497464E+03  0.10155460842E+04  0.00000000000E+00 0.  1.
          2    1    6    6  503    0  0.18588306317E+02  0.11233238130E+02  0.93990969671E+01  0.23665455719E+02  0.00000000000E+00 0. -1.
         -2    1    6    6    0  503 -0.87752671145E+02  0.13260458560E+03  0.39883827653E+02  0.16393665583E+03  0.00000000000E+00 0.  1.
<mgrwt>
<rscale>  0 0.21606885E+04</rscale>
<asrwt>0</asrwt>
<pdfrwt beam="1">  1        1 0.24339448E+00 0.21606885E+04</pdfrwt>
<pdfrwt beam="2">  1       -2 0.11349766E+00 0.21606885E+04</pdfrwt>
<totfact> 0.28076876E+00</totfact>
</mgrwt>
</event>
<event>
12    5  0.6157288E-008  0.2254241E+04  0.7818608E-02  0.8496185E-01
          3   -1    0    0  501    0  0.00000000000E+00  0.00000000000E+00  0.14938348623E+04  0.14938348623E+04  0.00000000000E+00 0. -1.
         -4   -1    0    0    0  501 -0.00000000000E+00 -0.00000000000E+00 -0.85042933408E+03  0.85042933408E+03  0.00000000000E+00 0.  1.
        -24    2    1    2    0    0 -0.90839246013E+03  0.20881262813E+03  0.11606314613E+03  0.94313058529E+03  0.85117987098E+02 0.  0.
        254    2    1    2    0    0  0.90839246013E+03 -0.20881262813E+03  0.52734238211E+03  0.14011336111E+04  0.90349644877E+03 0.  0.
         23    2    4    4    0    0  0.53969171513E+02  0.79333067756E+02  0.47490411154E+03  0.49323428086E+03  0.92410678738E+02 0.  0.
         23    2    4    4    0    0  0.85442328862E+03 -0.28814569588E+03  0.52438270578E+02  0.90789933026E+03  0.92001758002E+02 0.  0.
          1    1    3    3  502    0 -0.34823285202E+03  0.90526171659E+02  0.44198956106E+01  0.35983418745E+03  0.00000000000E+00 0. -1.
         -2    1    3    3    0  502 -0.56015960811E+03  0.11828645647E+03  0.11164325052E+03  0.58329639783E+03  0.00000000000E+00 0.  1.
         13    1    5    5    0    0  0.14157070010E+02  0.84362755298E+02  0.39072848807E+03  0.39998281026E+03  0.00000000000E+00 0.  1.
        -13    1    5    5    0    0  0.39812101503E+02 -0.50296875413E+01  0.84175623468E+02  0.93251470600E+02  0.00000000000E+00 0. -1.
          2    1    6    6  503    0  0.71670743783E+02  0.16323114152E+01  0.59716794629E+01  0.71937618188E+02  0.00000000000E+00 0. -1.
         -2    1    6    6    0  503  0.78275254483E+03 -0.28977800730E+03  0.46466591115E+02  0.83596171207E+03  0.00000000000E+00 0.  1.
<mgrwt>
<rscale>  0 0.22542413E+04</rscale>
<asrwt>0</asrwt>
<pdfrwt beam="1">  1        3 0.22982075E+00 0.22542413E+04</pdfrwt>
<pdfrwt beam="2">  1       -4 0.13083528E+00 0.22542413E+04</pdfrwt>
<totfact> 0.85821020E-02</totfact>
</mgrwt>
</event>
<event>
12    5  0.5041746E-008  0.2680635E+04  0.7818608E-02  0.8341316E-01
          1   -1    0    0  501    0  0.00000000000E+00  0.00000000000E+00  0.17157469023E+04  0.17157469023E+04  0.00000000000E+00 0. -1.
         -2   -1    0    0    0  501 -0.00000000000E+00 -0.00000000000E+00 -0.10470369552E+04  0.10470369552E+04  0.00000000000E+00 0.  1.
        -24    2    1    2    0    0  0.38108476471E+03 -0.85322431395E+03 -0.47347582284E+03  0.10505089228E+04  0.78564077305E+02 0.  0.
        254    2    1    2    0    0 -0.38108476471E+03  0.85322431395E+03  0.11421857699E+04  0.17122749347E+04  0.86837767770E+03 0.  0.
         23    2    4    4    0    0 -0.57497779007E+03  0.37386337967E+03  0.38844008061E+03  0.79357112809E+03  0.92174580995E+02 0.  0.
         23    2    4    4    0    0  0.19389302536E+03  0.47936093428E+03  0.75374568931E+03  0.91870380660E+03  0.92210137744E+02 0.  0.
          1    1    3    3  502    0  0.10578810083E+03 -0.19306728649E+03 -0.80509696854E+02  0.23440970687E+03  0.00000000000E+00 0. -1.
         -4    1    3    3    0  502  0.27529666388E+03 -0.66015702746E+03 -0.39296612598E+03  0.81609921592E+03  0.00000000000E+00 0.  1.
         13    1    5    5    0    0 -0.29199351654E+03  0.14023273996E+03  0.15966817612E+03  0.36113620910E+03  0.00000000000E+00 0. -1.
        -13    1    5    5    0    0 -0.28298427353E+03  0.23363063971E+03  0.22877190450E+03  0.43243491899E+03  0.00000000000E+00 0.  1.
          3    1    6    6  503    0  0.48116513297E+02  0.69507814590E+02  0.17841961795E+03  0.19743377424E+03  0.00000000000E+00 0. -1.
         -3    1    6    6    0  503  0.14577651206E+03  0.40985311969E+03  0.57532607136E+03  0.72127003236E+03  0.00000000000E+00 0.  1.
<mgrwt>
<rscale>  0 0.26806346E+04</rscale>
<asrwt>0</asrwt>
<pdfrwt beam="1">  1        1 0.26396106E+00 0.26806346E+04</pdfrwt>
<pdfrwt beam="2">  1       -2 0.16108261E+00 0.26806346E+04</pdfrwt>
<totfact> 0.88353602E-01</totfact>
</mgrwt>
</event>
<event>
12    5  0.5041746E-008  0.1692526E+04  0.7818608E-02  0.8765639E-01
         -2   -1    0    0    0  501 -0.00000000000E+00  0.00000000000E+00  0.10598684247E+04  0.10598684247E+04  0.00000000000E+00 0.  1.
          1   -1    0    0  501    0  0.00000000000E+00 -0.00000000000E+00 -0.67570716693E+03  0.67570716693E+03  0.00000000000E+00 0. -1.
        -24    2    1    2    0    0  0.19628961217E+03 -0.14652132324E+03  0.70229474041E+03  0.74831865561E+03  0.82248391564E+02 0.  0.
        254    2    1    2    0    0 -0.19628961217E+03  0.14652132324E+03 -0.31813348264E+03  0.98725693602E+03  0.90192529343E+03 0.  0.
         23    2    4    4    0    0 -0.23476679547E+03  0.45629557710E+03 -0.39358889228E+03  0.65305976397E+03  0.90850081187E+02 0.  0.
         23    2    4    4    0    0  0.38477183302E+02 -0.30977425386E+03  0.75455409641E+02  0.33419717205E+03  0.92485939294E+02 0.  0.
          3    1    3    3  502    0  0.76404687542E+02 -0.11358642318E+02  0.19014123403E+03  0.20523251183E+03  0.00000000000E+00 0. -1.
         -4    1    3    3    0  502  0.11988492463E+03 -0.13516268092E+03  0.51215350638E+03  0.54308614378E+03  0.00000000000E+00 0.  1.
         13    1    5    5    0    0 -0.13658979973E+03  0.18845011832E+03 -0.21252630497E+03  0.31517876006E+03  0.00000000000E+00 0. -1.
        -13    1    5    5    0    0 -0.98176995736E+02  0.26784545878E+03 -0.18106258731E+03  0.33788100391E+03  0.00000000000E+00 0.  1.
          4    1    6    6  503    0  0.36502701426E+02 -0.26665716383E+03  0.96829857108E+02  0.28603236087E+03  0.00000000000E+00 0. -1.
         -4    1    6    6    0  503  0.19744818757E+01 -0.43117090031E+02 -0.21374447467E+02  0.48164811180E+02  0.00000000000E+00 0.  1.
<mgrwt>
<rscale>  0 0.16925256E+04</rscale>
<asrwt>0</asrwt>
<pdfrwt beam="1">  1        1 0.10395495E+00 0.16925256E+04</pdfrwt>
<pdfrwt beam="2">  1       -2 0.16305668E+00 0.16925256E+04</pdfrwt>
<totfact> 0.57274097E+00</totfact>
</mgrwt>
</event>
<event>
12    5  0.5041746E-008  0.1059207E+04  0.7818608E-02  0.9245890E-01
         -2   -1    0    0    0  501 -0.00000000000E+00  0.00000000000E+00  0.14677519952E+03  0.14677519952E+03  0.00000000000E+00 0.  1.
          1   -1    0    0  501    0  0.00000000000E+00 -0.00000000000E+00 -0.19109492497E+04  0.19109492497E+04  0.00000000000E+00 0. -1.
        -24    2    1    2    0    0 -0.66108412929E+02 -0.10845657522E+03 -0.28895813258E+03  0.32472552894E+03  0.76267396665E+02 0.  0.
        254    2    1    2    0    0  0.66108412929E+02  0.10845657522E+03 -0.14752159176E+04  0.17329989203E+04  0.90049436599E+03 0.  0.
         23    2    4    4    0    0  0.37174433547E+03  0.75003922284E+02 -0.13203268038E+04  0.13768749155E+04  0.93285715907E+02 0.  0.
         23    2    4    4    0    0 -0.30563592254E+03  0.33452652938E+02 -0.15488911380E+03  0.35612400477E+03  0.91111316912E+02 0.  0.
          1    1    3    3  502    0 -0.14102174598E+02  0.48807391017E+01 -0.80059208467E+02  0.81438134820E+02  0.00000000000E+00 0. -1.
         -4    1    3    3    0  502 -0.52006238331E+02 -0.11333731432E+03 -0.20889892411E+03  0.24328739412E+03  0.00000000000E+00 0.  1.
         13    1    5    5    0    0  0.30066642434E+03  0.23322730812E+02 -0.10633923996E+04  0.11053269398E+04  0.00000000000E+00 0.  1.
        -13    1    5    5    0    0  0.71077911128E+02  0.51681191473E+02 -0.25693440423E+03  0.27154797565E+03  0.00000000000E+00 0. -1.
          2    1    6    6  503    0 -0.10081031553E+03 -0.21788253538E+02 -0.82149708101E+02  0.13185606641E+03  0.00000000000E+00 0. -1.
         -2    1    6    6    0  503 -0.20482560701E+03  0.55240906475E+02 -0.72739405696E+02  0.22426793836E+03  0.00000000000E+00 0.  1.
<mgrwt>
<rscale>  0 0.10592072E+04</rscale>
<asrwt>0</asrwt>
<pdfrwt beam="1">  1        1 0.29399220E+00 0.10592072E+04</pdfrwt>
<pdfrwt beam="2">  1       -2 0.22580799E-01 0.10592072E+04</pdfrwt>
<totfact> 0.51903852E+01</totfact>
</mgrwt>
</event>
<event>
12    5  0.5041746E-008  0.1405509E+04  0.7818608E-02  0.8949841E-01
          1   -1    0    0  501    0  0.00000000000E+00  0.00000000000E+00  0.37948025448E+03  0.37948025448E+03  0.00000000000E+00 0. -1.
         -2   -1    0    0    0  501 -0.00000000000E+00 -0.00000000000E+00 -0.13014214760E+04  0.13014214760E+04  0.00000000000E+00 0.  1.
        -24    2    1    2    0    0  0.33155170544E+03 -0.23513597736E+03 -0.35811458569E+03  0.54756704183E+03  0.79800674111E+02 0.  0.
        254    2    1    2    0    0 -0.33155170544E+03  0.23513597736E+03 -0.56382663579E+03  0.11333346886E+04  0.89517125732E+03 0.  0.
         23    2    4    4    0    0 -0.35142848487E+03  0.38477091313E+03 -0.72189733441E+03  0.89512768260E+03  0.92559014497E+02 0.  0.
         23    2    4    4    0    0  0.19876779425E+02 -0.14963493577E+03  0.15807069862E+03  0.23820700600E+03  0.94712890286E+02 0.  0.
          3    1    3    3  502    0  0.54809899791E+02 -0.28171767659E+02 -0.21834432866E+02  0.65379783318E+02  0.00000000000E+00 0. -1.
         -4    1    3    3    0  502  0.27674180565E+03 -0.20696420970E+03 -0.33628015282E+03  0.48218725851E+03  0.00000000000E+00 0.  1.
         13    1    5    5    0    0 -0.60056462753E+02  0.37770566571E+02 -0.14621115691E+03  0.16251491261E+03  0.00000000000E+00 0. -1.
        -13    1    5    5    0    0 -0.29137202211E+03  0.34700034656E+03 -0.57568617751E+03  0.73261276999E+03  0.00000000000E+00 0.  1.
          1    1    6    6  503    0 -0.32090391738E+02 -0.22389979893E+02  0.49215156861E+02  0.62874765259E+02  0.00000000000E+00 0. -1.
         -1    1    6    6    0  503  0.51967171164E+02 -0.12724495587E+03  0.10885554176E+03  0.17533224075E+03  0.00000000000E+00 0.  1.
<mgrwt>
<rscale>  0 0.14055088E+04</rscale>
<asrwt>0</asrwt>
<pdfrwt beam="1">  1        1 0.58381577E-01 0.14055088E+04</pdfrwt>
<pdfrwt beam="2">  1       -2 0.20021869E+00 0.14055088E+04</pdfrwt>
<totfact> 0.72579955E+00</totfact>
</mgrwt>
</event>
<event>
12    5  0.5041746E-008  0.2615170E+04  0.7818608E-02  0.8363066E-01
         -2   -1    0    0    0  501 -0.00000000000E+00  0.00000000000E+00  0.48148920509E+03  0.48148920509E+03  0.00000000000E+00 0.  1.
          1   -1    0    0  501    0  0.00000000000E+00 -0.00000000000E+00 -0.35510219466E+04  0.35510219466E+04  0.00000000000E+00 0. -1.
        -24    2    1    2    0    0 -0.71921503442E+03 -0.82628308529E+03 -0.19039727968E+04  0.21980427417E+04  0.79154787886E+02 0.  0.
        254    2    1    2    0    0  0.71921503442E+03  0.82628308529E+03 -0.11655599447E+04  0.18344684100E+04  0.89818169649E+03 0.  0.
         23    2    4    4    0    0  0.15922884733E+03  0.72726458356E+03 -0.96958781432E+03  0.12258686186E+04  0.91573686889E+02 0.  0.
         23    2    4    4    0    0  0.55998618709E+03  0.99018501736E+02 -0.19597213039E+03  0.60859979141E+03  0.92733148295E+02 0.  0.
          3    1    3    3  502    0 -0.49005165263E+03 -0.57036089140E+03 -0.12322237298E+04  0.14435503070E+04  0.00000000000E+00 0. -1.
         -4    1    3    3    0  502 -0.22916338179E+03 -0.25592219389E+03 -0.67174906702E+03  0.75449243463E+03  0.00000000000E+00 0.  1.
         13    1    5    5    0    0  0.61522541035E+02  0.20713203340E+03 -0.34658078869E+03  0.40842005999E+03  0.00000000000E+00 0. -1.
        -13    1    5    5    0    0  0.97706306294E+02  0.52013255016E+03 -0.62300702563E+03  0.81744855864E+03  0.00000000000E+00 0.  1.
          3    1    6    6  503    0  0.34037033292E+03  0.82490755890E+02 -0.78189234249E+02  0.35884571154E+03  0.00000000000E+00 0. -1.
         -3    1    6    6    0  503  0.21961585418E+03  0.16527745846E+02 -0.11778289614E+03  0.24975407987E+03  0.00000000000E+00 0.  1.
<mgrwt>
<rscale>  0 0.26151702E+04</rscale>
<asrwt>0</asrwt>
<pdfrwt beam="1">  1        1 0.54631107E+00 0.26151702E+04</pdfrwt>
<pdfrwt beam="2">  1       -2 0.74075262E-01 0.26151702E+04</pdfrwt>
<totfact> 0.28922291E-01</totfact>
</mgrwt>
</event>
<event>
12    5  0.5041746E-008  0.1510622E+04  0.7818608E-02  0.8877420E-01
          1   -1    0    0  501    0  0.00000000000E+00  0.00000000000E+00  0.96918142824E+03  0.96918142824E+03  0.00000000000E+00 0. -1.
         -2   -1    0    0    0  501 -0.00000000000E+00 -0.00000000000E+00 -0.58863533217E+03  0.58863533217E+03  0.00000000000E+00 0.  1.
        -24    2    1    2    0    0  0.19907211016E+03  0.88759652715E+02 -0.32304828615E+03  0.39794908790E+03  0.80593426401E+02 0.  0.
        254    2    1    2    0    0 -0.19907211016E+03 -0.88759652715E+02  0.70359438222E+03  0.11598676725E+04  0.89595757827E+03 0.  0.
         23    2    4    4    0    0  0.24973083647E+03  0.16099185512E+03  0.37017999865E+02  0.31377642733E+03  0.93816021753E+02 0.  0.
         23    2    4    4    0    0 -0.44880294663E+03 -0.24975150784E+03  0.66657638235E+03  0.84609124519E+03  0.88013755187E+02 0.  0.
          1    1    3    3  502    0  0.70682276906E+02  0.53487450825E+02 -0.73690043072E+02  0.11526974500E+03  0.00000000000E+00 0. -1.
         -2    1    3    3    0  502  0.12838983326E+03  0.35272201889E+02 -0.24935824308E+03  0.28267934290E+03  0.00000000000E+00 0.  1.
         13    1    5    5    0    0  0.16723582707E+03  0.71448555629E+02 -0.12616884101E+02  0.18229619777E+03  0.00000000000E+00 0. -1.
        -13    1    5    5    0    0  0.82495009398E+02  0.89543299491E+02  0.49634883966E+02  0.13148022956E+03  0.00000000000E+00 0.  1.
          1    1    6    6  503    0 -0.29754690932E+03 -0.13919194144E+03  0.48032032965E+03  0.58190736280E+03  0.00000000000E+00 0. -1.
         -1    1    6    6    0  503 -0.15125603731E+03 -0.11055956639E+03  0.18625605271E+03  0.26418388239E+03  0.00000000000E+00 0.  1.
<mgrwt>
<rscale>  0 0.15106216E+04</rscale>
<asrwt>0</asrwt>
<pdfrwt beam="1">  1        1 0.14910484E+00 0.15106216E+04</pdfrwt>
<pdfrwt beam="2">  1       -2 0.90559281E-01 0.15106216E+04</pdfrwt>
<totfact> 0.14124009E+01</totfact>
</mgrwt>
</event>
<event>
12    5  0.5041746E-008  0.1704492E+04  0.7818608E-02  0.8758807E-01
         -2   -1    0    0    0  501 -0.00000000000E+00  0.00000000000E+00  0.53437932174E+03  0.53437932174E+03  0.00000000000E+00 0.  1.
          1   -1    0    0  501    0  0.00000000000E+00 -0.00000000000E+00 -0.13591901086E+04  0.13591901086E+04  0.00000000000E+00 0. -1.
        -24    2    1    2    0    0  0.39268784774E+03 -0.44367226307E+03 -0.31107224976E+03  0.67388602120E+03  0.79420414314E+02 0.  0.
        254    2    1    2    0    0 -0.39268784774E+03  0.44367226307E+03 -0.51373853708E+03  0.12196834091E+04  0.93415818319E+03 0.  0.
         23    2    4    4    0    0 -0.76796095893E+00 -0.24973740578E+03 -0.27452639171E+03  0.38276951706E+03  0.93693125877E+02 0.  0.
         23    2    4    4    0    0 -0.39191988678E+03  0.69340966885E+03 -0.23921214537E+03  0.83691389206E+03  0.93724306967E+02 0.  0.
          3    1    3    3  502    0  0.21387455683E+03 -0.22501118987E+03 -0.11980023353E+03  0.33275284759E+03  0.00000000000E+00 0. -1.
         -4    1    3    3    0  502  0.17881329091E+03 -0.21866107320E+03 -0.19127201624E+03  0.34113317360E+03  0.00000000000E+00 0.  1.
         13    1    5    5    0    0 -0.41604075785E+00 -0.43405375046E+01  0.76548300508E+01  0.88096412440E+01  0.00000000000E+00 0. -1.
        -13    1    5    5    0    0 -0.35192020108E+00 -0.24539686828E+03 -0.28218122176E+03  0.37395987582E+03  0.00000000000E+00 0.  1.
          3    1    6    6  503    0 -0.15673131989E+02  0.82476338342E+01  0.42359693537E+01  0.18210270909E+02  0.00000000000E+00 0. -1.
         -3    1    6    6    0  503 -0.37624675479E+03  0.68516203502E+03 -0.24344811473E+03  0.81870362115E+03  0.00000000000E+00 0.  1.
<mgrwt>
<rscale>  0 0.17044918E+04</rscale>
<asrwt>0</asrwt>
<pdfrwt beam="1">  1        1 0.20910617E+00 0.17044918E+04</pdfrwt>
<pdfrwt beam="2">  1       -2 0.82212204E-01 0.17044918E+04</pdfrwt>
<totfact> 0.89050466E+00</totfact>
</mgrwt>
</event>
<event>
12    5  0.5041746E-008  0.1459338E+04  0.7818608E-02  0.8911952E-01
         -2   -1    0    0    0  501 -0.00000000000E+00  0.00000000000E+00  0.40428265123E+03  0.40428265123E+03  0.00000000000E+00 0.  1.
          1   -1    0    0  501    0  0.00000000000E+00 -0.00000000000E+00 -0.13169415317E+04  0.13169415317E+04  0.00000000000E+00 0. -1.
        -24    2    1    2    0    0  0.13365333325E+03 -0.41999759554E+03 -0.19693108580E+03  0.48957094347E+03  0.81465712962E+02 0.  0.
        254    2    1    2    0    0 -0.13365333325E+03  0.41999759554E+03 -0.71572779471E+03  0.12316532395E+04  0.90024565120E+03 0.  0.
         23    2    4    4    0    0  0.13637943797E+01 -0.27402762379E+03 -0.19438882082E+03  0.34860011112E+03  0.92962493955E+02 0.  0.
         23    2    4    4    0    0 -0.13501712763E+03  0.69402521932E+03 -0.52133897390E+03  0.88305312838E+03  0.89932597107E+02 0.  0.
          1    1    3    3  502    0  0.37100904403E+02 -0.20853936710E+03 -0.12633695502E+03  0.24662962301E+03  0.00000000000E+00 0. -1.
         -2    1    3    3    0  502  0.96552428846E+02 -0.21145822843E+03 -0.70594130782E+02  0.24294132046E+03  0.00000000000E+00 0.  1.
         13    1    5    5    0    0  0.40531492880E+02 -0.11866832139E+03 -0.11341763463E+03  0.16908143678E+03  0.00000000000E+00 0. -1.
        -13    1    5    5    0    0 -0.39167698500E+02 -0.15535930240E+03 -0.80971186188E+02  0.17951867435E+03  0.00000000000E+00 0.  1.
          3    1    6    6  503    0 -0.76191887370E+02  0.19425289757E+03 -0.13344008590E+03  0.24768053706E+03  0.00000000000E+00 0. -1.
         -3    1    6    6    0  503 -0.58825240258E+02  0.49977232175E+03 -0.38789888800E+03  0.63537259131E+03  0.00000000000E+00 0.  1.
<mgrwt>
<rscale>  0 0.14593377E+04</rscale>
<asrwt>0</asrwt>
<pdfrwt beam="1">  1        1 0.20260640E+00 0.14593377E+04</pdfrwt>
<pdfrwt beam="2">  1       -2 0.62197329E-01 0.14593377E+04</pdfrwt>
<totfact> 0.17969374E+01</totfact>
</mgrwt>
</event>
<event>
12    5  0.5041746E-008  0.1246145E+04  0.7818608E-02  0.9073398E-01
          1   -1    0    0  501    0  0.00000000000E+00  0.00000000000E+00  0.16941433572E+04  0.16941433572E+04  0.00000000000E+00 0. -1.
         -2   -1    0    0    0  501 -0.00000000000E+00 -0.00000000000E+00 -0.22915375507E+03  0.22915375507E+03  0.00000000000E+00 0.  1.
        -24    2    1    2    0    0  0.61416461867E+02  0.11058196266E+03  0.77011039932E+03  0.78438580835E+03  0.78681109169E+02 0.  0.
        254    2    1    2    0    0 -0.61416461867E+02 -0.11058196266E+03  0.69487920282E+03  0.11389113039E+04  0.89345481109E+03 0.  0.
         23    2    4    4    0    0 -0.29690924071E+03 -0.37262033433E+03  0.58235054618E+03  0.75774661020E+03  0.89703711452E+02 0.  0.
         23    2    4    4    0    0  0.23549277885E+03  0.26203837167E+03  0.11252865664E+03  0.38116469374E+03  0.92210997547E+02 0.  0.
          3    1    3    3  502    0  0.74937094497E+02  0.11210840353E+03  0.71625353821E+03  0.72883673980E+03  0.00000000000E+00 0. -1.
         -4    1    3    3    0  502 -0.13520632630E+02 -0.15264408724E+01  0.53856861108E+02  0.55549068551E+02  0.00000000000E+00 0.  1.
         13    1    5    5    0    0 -0.99139136838E+02 -0.19565972052E+03  0.25620211024E+03  0.33726964876E+03  0.00000000000E+00 0. -1.
        -13    1    5    5    0    0 -0.19777010388E+03 -0.17696061381E+03  0.32614843595E+03  0.42047696144E+03  0.00000000000E+00 0.  1.
          4    1    6    6  503    0  0.53335187720E+02  0.14726129305E+02  0.30781702281E+02  0.63316777624E+02  0.00000000000E+00 0. -1.
         -4    1    6    6    0  503  0.18215759113E+03  0.24731224237E+03  0.81746954356E+02  0.31784791611E+03  0.00000000000E+00 0.  1.
<mgrwt>
<rscale>  0 0.12461450E+04</rscale>
<asrwt>0</asrwt>
<pdfrwt beam="1">  1        1 0.26063743E+00 0.12461450E+04</pdfrwt>
<pdfrwt beam="2">  1       -2 0.35254425E-01 0.12461450E+04</pdfrwt>
<totfact> 0.31471459E+01</totfact>
</mgrwt>
</event>
<event>
12    5  0.5041746E-008  0.2149701E+04  0.7818608E-02  0.8539660E-01
          1   -1    0    0  501    0  0.00000000000E+00  0.00000000000E+00  0.20007960563E+04  0.20007960563E+04  0.00000000000E+00 0. -1.
         -2   -1    0    0    0  501 -0.00000000000E+00 -0.00000000000E+00 -0.57742204413E+03  0.57742204413E+03  0.00000000000E+00 0.  1.
        -24    2    1    2    0    0  0.41589159910E+03 -0.37522772478E+03  0.14082428816E+04  0.15176568854E+04  0.79829447664E+02 0.  0.
        254    2    1    2    0    0 -0.41589159910E+03  0.37522772478E+03  0.15131130589E+02  0.10605612150E+04  0.90044404159E+03 0.  0.
         23    2    4    4    0    0  0.26219556700E+03  0.97330094922E+02 -0.10281604596E+03  0.31272760934E+03  0.94909196607E+02 0.  0.
         23    2    4    4    0    0 -0.67808716610E+03  0.27789762985E+03  0.11794717655E+03  0.74783360568E+03  0.91182606960E+02 0.  0.
          1    1    3    3  502    0  0.30985341372E+03 -0.23318467056E+03  0.92946669995E+03  0.10071209336E+04  0.00000000000E+00 0. -1.
         -2    1    3    3    0  502  0.10603818538E+03 -0.14204305421E+03  0.47877618165E+03  0.51053595185E+03  0.00000000000E+00 0.  1.
         13    1    5    5    0    0  0.25987747781E+03  0.71773365536E+02 -0.95840390800E+02  0.28613475843E+03  0.00000000000E+00 0. -1.
        -13    1    5    5    0    0  0.23180891945E+01  0.25556729387E+02 -0.69756551580E+01  0.26592850907E+02  0.00000000000E+00 0.  1.
          2    1    6    6  503    0 -0.61606876589E+03  0.22217894021E+03  0.11003426656E+03  0.66408715211E+03  0.00000000000E+00 0. -1.
         -2    1    6    6    0  503 -0.62018400211E+02  0.55718689646E+02  0.79129099851E+01  0.83746453567E+02  0.00000000000E+00 0.  1.
<mgrwt>
<rscale>  0 0.21497011E+04</rscale>
<asrwt>0</asrwt>
<pdfrwt beam="1">  1        1 0.30781477E+00 0.21497011E+04</pdfrwt>
<pdfrwt beam="2">  1       -2 0.88834162E-01 0.21497011E+04</pdfrwt>
<totfact> 0.26070659E+00</totfact>
</mgrwt>
</event>
<event>
12    5  0.5041746E-008  0.1778441E+04  0.7818608E-02  0.8717849E-01
          1   -1    0    0  501    0  0.00000000000E+00  0.00000000000E+00  0.58788033121E+03  0.58788033121E+03  0.00000000000E+00 0. -1.
         -2   -1    0    0    0  501 -0.00000000000E+00 -0.00000000000E+00 -0.13450246469E+04  0.13450246469E+04  0.00000000000E+00 0.  1.
        -24    2    1    2    0    0 -0.28210933456E+03 -0.18715200225E+03  0.32838570303E+03  0.47793037369E+03  0.77257514492E+02 0.  0.
        254    2    1    2    0    0  0.28210933456E+03  0.18715200225E+03 -0.10855300188E+04  0.14549746045E+04  0.90772469912E+03 0.  0.
         23    2    4    4    0    0 -0.15018315285E+03 -0.15769347745E+03 -0.38836771610E+01  0.23634447939E+03  0.91768282977E+02 0.  0.
         23    2    4    4    0    0  0.43229248741E+03  0.34484547970E+03 -0.10816463416E+04  0.12186301251E+04  0.96464365851E+02 0.  0.
          3    1    3    3  502    0 -0.18944458642E+03 -0.14282936308E+03  0.27132749622E+03  0.36042764667E+03  0.00000000000E+00 0. -1.
         -4    1    3    3    0  502 -0.92664748143E+02 -0.44322639172E+02  0.57058206809E+02  0.11750272701E+03  0.00000000000E+00 0.  1.
         13    1    5    5    0    0 -0.26819191518E+02  0.65266018309E+01 -0.13496965203E+02  0.30725130347E+02  0.00000000000E+00 0.  1.
        -13    1    5    5    0    0 -0.12336396133E+03 -0.16422007928E+03  0.96132880422E+01  0.20561934905E+03  0.00000000000E+00 0. -1.
          2    1    6    6  503    0  0.43064730692E+03  0.32374080773E+03 -0.10549360264E+04  0.11845485357E+04  0.00000000000E+00 0. -1.
         -2    1    6    6    0  503  0.16451804919E+01  0.21104671975E+02 -0.26710315180E+02  0.34081589385E+02  0.00000000000E+00 0.  1.
<mgrwt>
<rscale>  0 0.17784415E+04</rscale>
<asrwt>0</asrwt>
<pdfrwt beam="1">  1        1 0.90443128E-01 0.17784415E+04</pdfrwt>
<pdfrwt beam="2">  1       -2 0.20692687E+00 0.17784415E+04</pdfrwt>
<totfact> 0.34958077E+00</totfact>
</mgrwt>
</event>
<event>
12    5  0.5041746E-008  0.1601604E+04  0.7818608E-02  0.8819563E-01
          1   -1    0    0  501    0  0.00000000000E+00  0.00000000000E+00  0.11271957998E+04  0.11271957998E+04  0.00000000000E+00 0. -1.
         -2   -1    0    0    0  501 -0.00000000000E+00 -0.00000000000E+00 -0.56891991565E+03  0.56891991565E+03  0.00000000000E+00 0.  1.
        -24    2    1    2    0    0  0.33774635494E+02  0.52557608331E+03  0.34287901343E+03  0.63380354491E+03  0.82279829456E+02 0.  0.
        254    2    1    2    0    0 -0.33774635494E+02 -0.52557608331E+03  0.21539687072E+03  0.10623121705E+04  0.89707323580E+03 0.  0.
         23    2    4    4    0    0 -0.25668342101E+03 -0.65568319722E+03  0.30862246300E+03  0.77401718448E+03  0.89710330909E+02 0.  0.
         23    2    4    4    0    0  0.22290878552E+03  0.13010711391E+03 -0.93225592276E+02  0.28829498605E+03  0.88356098679E+02 0.  0.
          3    1    3    3  502    0  0.23489047187E+02  0.40546272601E+03  0.22100681878E+03  0.46238054832E+03  0.00000000000E+00 0. -1.
         -4    1    3    3    0  502  0.10285588306E+02  0.12011335730E+03  0.12187219465E+03  0.17142299658E+03  0.00000000000E+00 0.  1.
         13    1    5    5    0    0 -0.49360228208E+02 -0.10214232836E+03  0.86136777361E+02  0.14243957240E+03  0.00000000000E+00 0. -1.
        -13    1    5    5    0    0 -0.20732319280E+03 -0.55354086886E+03  0.22248568564E+03  0.63157761208E+03  0.00000000000E+00 0.  1.
          1    1    6    6  503    0  0.10710429919E+03  0.18357638183E+02 -0.59424236985E+02  0.12385303277E+03  0.00000000000E+00 0. -1.
         -1    1    6    6    0  503  0.11580448633E+03  0.11174947572E+03 -0.33801355291E+02  0.16444195328E+03  0.00000000000E+00 0.  1.
<mgrwt>
<rscale>  0 0.16016044E+04</rscale>
<asrwt>0</asrwt>
<pdfrwt beam="1">  1        1 0.17341474E+00 0.16016044E+04</pdfrwt>
<pdfrwt beam="2">  1       -2 0.87526141E-01 0.16016044E+04</pdfrwt>
<totfact> 0.11468413E+01</totfact>
</mgrwt>
</event>
<event>
12    5  0.5041746E-008  0.1648908E+04  0.7818608E-02  0.8791053E-01
          1   -1    0    0  501    0  0.00000000000E+00  0.00000000000E+00  0.18461356656E+04  0.18461356656E+04  0.00000000000E+00 0. -1.
         -2   -1    0    0    0  501 -0.00000000000E+00 -0.00000000000E+00 -0.36818749357E+03  0.36818749357E+03  0.00000000000E+00 0.  1.
        -24    2    1    2    0    0  0.34018914029E+03  0.36264114334E+03  0.90035021824E+03  0.10309449918E+04  0.70567772719E+02 0.  0.
        254    2    1    2    0    0 -0.34018914029E+03 -0.36264114334E+03  0.57759795377E+03  0.11833781674E+04  0.90527743860E+03 0.  0.
         23    2    4    4    0    0 -0.24789512378E+03 -0.37910940121E+03  0.80101077711E+03  0.92485537247E+03  0.92537908223E+02 0.  0.
         23    2    4    4    0    0 -0.92294016513E+02  0.16468257866E+02 -0.22341282333E+03  0.25852279492E+03  0.90174036530E+02 0.  0.
          1    1    3    3  502    0  0.34308184570E+03  0.36263054816E+03  0.89663951910E+03  0.10262399790E+04  0.00000000000E+00 0. -1.
         -2    1    3    3    0  502 -0.28927054167E+01  0.10595176567E-01  0.37106991463E+01  0.47050127566E+01  0.00000000000E+00 0.  1.
         13    1    5    5    0    0 -0.22866400067E+02 -0.97708755344E+02  0.14374021858E+03  0.17530294795E+03  0.00000000000E+00 0. -1.
        -13    1    5    5    0    0 -0.22502872371E+03 -0.28140064586E+03  0.65727055853E+03  0.74955242452E+03  0.00000000000E+00 0.  1.
          1    1    6    6  503    0 -0.15172092336E+00  0.19956986943E+01  0.84073614493E+01  0.86423121360E+01  0.00000000000E+00 0. -1.
         -1    1    6    6    0  503 -0.92142295589E+02  0.14472559172E+02 -0.23182018478E+03  0.24988048279E+03  0.00000000000E+00 0.  1.
<mgrwt>
<rscale>  0 0.16489076E+04</rscale>
<asrwt>0</asrwt>
<pdfrwt beam="1">  1        1 0.28402087E+00 0.16489076E+04</pdfrwt>
<pdfrwt beam="2">  1       -2 0.56644231E-01 0.16489076E+04</pdfrwt>
<totfact> 0.92974874E+00</totfact>
</mgrwt>
</event>
<event>
12    5  0.5041746E-008  0.3123004E+04  0.7818608E-02  0.8209453E-01
         -2   -1    0    0    0  501 -0.00000000000E+00  0.00000000000E+00  0.82376719525E+03  0.82376719525E+03  0.00000000000E+00 0.  1.
          1   -1    0    0  501    0  0.00000000000E+00 -0.00000000000E+00 -0.29599234071E+04  0.29599234071E+04  0.00000000000E+00 0. -1.
        -24    2    1    2    0    0 -0.96909593499E+03 -0.85473391562E+03 -0.23517403145E+03  0.13158833811E+04  0.80779019227E+02 0.  0.
        254    2    1    2    0    0  0.96909593499E+03  0.85473391562E+03 -0.19009821804E+04  0.24678072212E+04  0.89812150248E+03 0.  0.
         23    2    4    4    0    0  0.67690475812E+03  0.26504132168E+02 -0.71656124641E+03  0.99053414923E+03  0.93783582586E+02 0.  0.
         23    2    4    4    0    0  0.29219117687E+03  0.82822978345E+03 -0.11844209340E+04  0.14772730720E+04  0.90235925888E+02 0.  0.
          3    1    3    3  502    0 -0.29818391395E+03 -0.29872816893E+03 -0.49620128758E+02  0.42498743820E+03  0.00000000000E+00 0. -1.
         -4    1    3    3    0  502 -0.67091202104E+03 -0.55600574669E+03 -0.18555390269E+03  0.89089594293E+03  0.00000000000E+00 0.  1.
         13    1    5    5    0    0  0.18146805702E+02 -0.14327558793E+02 -0.33372219058E+02  0.40599144117E+02  0.00000000000E+00 0. -1.
        -13    1    5    5    0    0  0.65875795241E+03  0.40831690962E+02 -0.68318902735E+03  0.94993500512E+03  0.00000000000E+00 0.  1.
          2    1    6    6  503    0  0.58361687219E+02  0.83375201073E+02 -0.15152586316E+03  0.18253108748E+03  0.00000000000E+00 0. -1.
         -2    1    6    6    0  503  0.23382948965E+03  0.74485458238E+03 -0.10328950708E+04  0.12947419845E+04  0.00000000000E+00 0.  1.
<mgrwt>
<rscale>  0 0.31230036E+04</rscale>
<asrwt>0</asrwt>
<pdfrwt beam="1">  1        1 0.45537284E+00 0.31230036E+04</pdfrwt>
<pdfrwt beam="2">  1       -2 0.12673341E+00 0.31230036E+04</pdfrwt>
<totfact> 0.21933688E-01</totfact>
</mgrwt>
</event>
<event>
12    5  0.5041746E-008  0.1516942E+04  0.7818608E-02  0.8873264E-01
         -2   -1    0    0    0  501 -0.00000000000E+00  0.00000000000E+00  0.38881243159E+03  0.38881243159E+03  0.00000000000E+00 0.  1.
          1   -1    0    0  501    0  0.00000000000E+00 -0.00000000000E+00 -0.14795770289E+04  0.14795770289E+04  0.00000000000E+00 0. -1.
        -24    2    1    2    0    0  0.33463805529E+03 -0.24174344187E+03 -0.38154997183E+02  0.42216842868E+03  0.79673449940E+02 0.  0.
        254    2    1    2    0    0 -0.33463805529E+03  0.24174344187E+03 -0.10526096001E+04  0.14462210318E+04  0.90174596359E+03 0.  0.
         23    2    4    4    0    0 -0.51395847192E+03  0.41319513012E+03 -0.95597747888E+03  0.11649676391E+04  0.91504828405E+02 0.  0.
         23    2    4    4    0    0  0.17932041663E+03 -0.17145168825E+03 -0.96632121223E+02  0.28125339269E+03  0.90632283578E+02 0.  0.
          3    1    3    3  502    0  0.34191806194E+02 -0.42214744249E+02 -0.28561562583E+02  0.61375297148E+02  0.00000000000E+00 0. -1.
         -4    1    3    3    0  502  0.30044624910E+03 -0.19952869762E+03 -0.95934345996E+01  0.36079313153E+03  0.00000000000E+00 0.  1.
         13    1    5    5    0    0 -0.38055720482E+03  0.34756550399E+03 -0.70571828374E+03  0.87387863099E+03  0.00000000000E+00 0. -1.
        -13    1    5    5    0    0 -0.13340126710E+03  0.65629626127E+02 -0.25025919514E+03  0.29108900811E+03  0.00000000000E+00 0.  1.
          3    1    6    6  503    0  0.17167083458E+03 -0.17746210002E+03 -0.10510922325E+03  0.26834981125E+03  0.00000000000E+00 0. -1.
         -3    1    6    6    0  503  0.76495820468E+01  0.60104117663E+01  0.84771020309E+01  0.12903581438E+02  0.00000000000E+00 0.  1.
<mgrwt>
<rscale>  0 0.15169416E+04</rscale>
<asrwt>0</asrwt>
<pdfrwt beam="1">  1        1 0.22762724E+00 0.15169416E+04</pdfrwt>
<pdfrwt beam="2">  1       -2 0.59817297E-01 0.15169416E+04</pdfrwt>
<totfact> 0.14933735E+01</totfact>
</mgrwt>
</event>
<event>
12    5  0.5041746E-008  0.1108404E+04  0.7818608E-02  0.9197039E-01
         -2   -1    0    0    0  501 -0.00000000000E+00  0.00000000000E+00  0.33516517158E+03  0.33516517158E+03  0.00000000000E+00 0.  1.
          1   -1    0    0  501    0  0.00000000000E+00 -0.00000000000E+00 -0.91638429764E+03  0.91638429764E+03  0.00000000000E+00 0. -1.
        -24    2    1    2    0    0  0.37328310230E+02  0.16099463676E+02 -0.16421989114E+03  0.18671739923E+03  0.79010246528E+02 0.  0.
        254    2    1    2    0    0 -0.37328310230E+02 -0.16099463676E+02 -0.41699923492E+03  0.10648320700E+04  0.97894145885E+03 0.  0.
         23    2    4    4    0    0 -0.26437368826E+03 -0.34099928868E+03 -0.48170122211E+03  0.65291260661E+03  0.89915752578E+02 0.  0.
         23    2    4    4    0    0  0.22704537803E+03  0.32489982501E+03  0.64701987185E+02  0.41191946337E+03  0.91552155511E+02 0.  0.
          3    1    3    3  502    0  0.13794216179E+01  0.62623155988E+01 -0.14432869784E+03  0.14447107814E+03  0.00000000000E+00 0. -1.
         -4    1    3    3    0  502  0.35948888612E+02  0.98371480771E+01 -0.19891193299E+02  0.42246321089E+02  0.00000000000E+00 0.  1.
         13    1    5    5    0    0  0.29807346833E+01  0.32976200295E+01 -0.80898006602E+01  0.92305986714E+01  0.00000000000E+00 0.  1.
        -13    1    5    5    0    0 -0.26735442295E+03 -0.34429690871E+03 -0.47361142145E+03  0.64368200794E+03  0.00000000000E+00 0. -1.
          4    1    6    6  503    0  0.16900489544E+03  0.23713658565E+03  0.87895381191E+02  0.30417431346E+03  0.00000000000E+00 0. -1.
         -4    1    6    6    0  503  0.58040482599E+02  0.87763239363E+02 -0.23193394006E+02  0.10774514991E+03  0.00000000000E+00 0.  1.
<mgrwt>
<rscale>  0 0.11084044E+04</rscale>
<asrwt>0</asrwt>
<pdfrwt beam="1">  1        1 0.14098220E+00 0.11084044E+04</pdfrwt>
<pdfrwt beam="2">  1       -2 0.51563872E-01 0.11084044E+04</pdfrwt>
<totfact> 0.54716480E+01</totfact>
</mgrwt>
</event>
<event>
12    5  0.5041746E-008  0.2424800E+04  0.7818608E-02  0.8430277E-01
         -2   -1    0    0    0  501 -0.00000000000E+00  0.00000000000E+00  0.37040564203E+04  0.37040564203E+04  0.00000000000E+00 0.  1.
          1   -1    0    0  501    0  0.00000000000E+00 -0.00000000000E+00 -0.39683890589E+03  0.39683890589E+03  0.00000000000E+00 0. -1.
        -24    2    1    2    0    0  0.10165549262E+04 -0.22896004690E+03  0.12553948181E+04  0.16333289132E+04  0.77075082958E+02 0.  0.
        254    2    1    2    0    0 -0.10165549262E+04  0.22896004690E+03  0.20518226963E+04  0.24675664130E+04  0.89056218443E+03 0.  0.
         23    2    4    4    0    0 -0.23312887513E+03 -0.30251025100E+03  0.39400638876E+03  0.55625863089E+03  0.91220094707E+02 0.  0.
         23    2    4    4    0    0 -0.78342605105E+03  0.53147029791E+03  0.16578163075E+04  0.19113077821E+04  0.92333489373E+02 0.  0.
          3    1    3    3  502    0  0.22473266965E+03 -0.55829355352E+02  0.23129897748E+03  0.32729330379E+03  0.00000000000E+00 0. -1.
         -4    1    3    3    0  502  0.79182225654E+03 -0.17313069155E+03  0.10240958406E+04  0.13060356094E+04  0.00000000000E+00 0.  1.
         13    1    5    5    0    0 -0.47829417007E+01  0.63963194008E+01  0.43844923362E+01  0.91111583367E+01  0.00000000000E+00 0.  1.
        -13    1    5    5    0    0 -0.22834593343E+03 -0.30890657040E+03  0.38962189643E+03  0.54714747256E+03  0.00000000000E+00 0. -1.
          2    1    6    6  503    0 -0.29018025744E+03  0.22570496962E+03  0.56753680763E+03  0.67619918895E+03  0.00000000000E+00 0. -1.
         -2    1    6    6    0  503 -0.49324579361E+03  0.30576532829E+03  0.10902794999E+04  0.12351085931E+04  0.00000000000E+00 0.  1.
<mgrwt>
<rscale>  0 0.24247999E+04</rscale>
<asrwt>0</asrwt>
<pdfrwt beam="1">  1        1 0.61052142E-01 0.24247999E+04</pdfrwt>
<pdfrwt beam="2">  1       -2 0.56985481E+00 0.24247999E+04</pdfrwt>
<totfact> 0.31943152E-02</totfact>
</mgrwt>
</event>
<event>
12    5  0.5041746E-008  0.1512117E+04  0.7818608E-02  0.8876435E-01
         -2   -1    0    0    0  501 -0.00000000000E+00  0.00000000000E+00  0.14330095322E+04  0.14330095322E+04  0.00000000000E+00 0.  1.
          1   -1    0    0  501    0  0.00000000000E+00 -0.00000000000E+00 -0.39889783201E+03  0.39889783201E+03  0.00000000000E+00 0. -1.
        -24    2    1    2    0    0  0.44032960842E+03  0.18425991773E+03  0.24021082823E+03  0.54048720086E+03  0.81137481902E+02 0.  0.
        254    2    1    2    0    0 -0.44032960842E+03 -0.18425991773E+03  0.79390087198E+03  0.12914201634E+04  0.89980306873E+03 0.  0.
         23    2    4    4    0    0 -0.40462926237E+03 -0.51991212217E+03  0.57612837049E+03  0.87987886404E+03  0.90716378609E+02 0.  0.
         23    2    4    4    0    0 -0.35700346045E+02  0.33565220444E+03  0.21777250149E+03  0.41154129934E+03  0.89467656704E+02 0.  0.
          3    1    3    3  502    0  0.18595766910E+03  0.51803672488E+02  0.61621594887E+02  0.20263537730E+03  0.00000000000E+00 0. -1.
         -4    1    3    3    0  502  0.25437193932E+03  0.13245624524E+03  0.17858923334E+03  0.33785182356E+03  0.00000000000E+00 0.  1.
         13    1    5    5    0    0 -0.14323542451E+03 -0.25123850675E+03  0.27467032633E+03  0.39884954842E+03  0.00000000000E+00 0. -1.
        -13    1    5    5    0    0 -0.26139383786E+03 -0.26867361542E+03  0.30145804416E+03  0.48102931562E+03  0.00000000000E+00 0.  1.
          3    1    6    6  503    0  0.18117068954E+02  0.11917096043E+03  0.42371895219E+02  0.12777058934E+03  0.00000000000E+00 0. -1.
         -3    1    6    6    0  503 -0.53817414998E+02  0.21648124402E+03  0.17540060627E+03  0.28377070999E+03  0.00000000000E+00 0.  1.
<mgrwt>
<rscale>  0 0.15121169E+04</rscale>
<asrwt>0</asrwt>
<pdfrwt beam="1">  1        1 0.61368898E-01 0.15121169E+04</pdfrwt>
<pdfrwt beam="2">  1       -2 0.22046300E+00 0.15121169E+04</pdfrwt>
<totfact> 0.49907576E+00</totfact>
</mgrwt>
</event>
<event>
12    5  0.5041746E-008  0.2846219E+04  0.7818608E-02  0.8289061E-01
         -2   -1    0    0    0  501 -0.00000000000E+00  0.00000000000E+00  0.11297662424E+04  0.11297662424E+04  0.00000000000E+00 0.  1.
          1   -1    0    0  501    0  0.00000000000E+00 -0.00000000000E+00 -0.17926195671E+04  0.17926195671E+04  0.00000000000E+00 0. -1.
        -24    2    1    2    0    0 -0.75767379105E+03 -0.99601943292E+03 -0.57969262015E+03  0.13817240802E+04  0.83627840280E+02 0.  0.
        254    2    1    2    0    0  0.75767379105E+03  0.99601943292E+03 -0.83160704506E+02  0.15406617293E+04  0.89476174312E+03 0.  0.
         23    2    4    4    0    0  0.39630547709E+03  0.10805509720E+04 -0.89292825817E+02  0.11578879403E+04  0.89904611842E+02 0.  0.
         23    2    4    4    0    0  0.36136831396E+03 -0.84531539081E+02  0.61321213111E+01  0.38277378902E+03  0.93517544961E+02 0.  0.
          3    1    3    3  502    0 -0.17043304692E+02 -0.48717925273E+02 -0.28388555568E+02  0.58905182836E+02  0.00000000000E+00 0. -1.
         -4    1    3    3    0  502 -0.74063048636E+03 -0.94730150765E+03 -0.55130406459E+03  0.13228188974E+04  0.00000000000E+00 0.  1.
         13    1    5    5    0    0  0.18853306331E+03  0.44452858665E+03  0.23124306766E-02  0.48285648004E+03  0.00000000000E+00 0. -1.
        -13    1    5    5    0    0  0.20777241378E+03  0.63602238535E+03 -0.89295138247E+02  0.67503146024E+03  0.00000000000E+00 0.  1.
          2    1    6    6  503    0  0.18583052831E+03 -0.63416059910E+02 -0.39253092475E+02  0.20023832594E+03  0.00000000000E+00 0. -1.
         -2    1    6    6    0  503  0.17553778564E+03 -0.21115479172E+02  0.45385213786E+02  0.18253546307E+03  0.00000000000E+00 0.  1.
<mgrwt>
<rscale>  0 0.28462193E+04</rscale>
<asrwt>0</asrwt>
<pdfrwt beam="1">  1        1 0.27578762E+00 0.28462193E+04</pdfrwt>
<pdfrwt beam="2">  1       -2 0.17381019E+00 0.28462193E+04</pdfrwt>
<totfact> 0.62558422E-01</totfact>
</mgrwt>
</event>
<event>
12    5  0.5041746E-008  0.1839285E+04  0.7818608E-02  0.8685683E-01
         -2   -1    0    0    0  501 -0.00000000000E+00  0.00000000000E+00  0.12569290548E+04  0.12569290548E+04  0.00000000000E+00 0.  1.
          1   -1    0    0  501    0  0.00000000000E+00 -0.00000000000E+00 -0.67286406942E+03  0.67286406942E+03  0.00000000000E+00 0. -1.
        -24    2    1    2    0    0 -0.13784071051E+02  0.54419389356E+03 -0.23721238353E+03  0.59910161685E+03  0.79473505114E+02 0.  0.
        254    2    1    2    0    0  0.13784071051E+02 -0.54419389356E+03  0.82127736887E+03  0.13306915073E+04  0.89437485242E+03 0.  0.
         23    2    4    4    0    0  0.14974198251E+02  0.23475451516E+03  0.12238322097E+03  0.28031616985E+03  0.90915308403E+02 0.  0.
         23    2    4    4    0    0 -0.11901272002E+01 -0.77894840872E+03  0.69889414789E+03  0.10503753375E+04  0.89851431650E+02 0.  0.
          3    1    3    3  502    0 -0.10886925725E+02  0.51331501757E+03 -0.24219808337E+03  0.56768895004E+03  0.00000000000E+00 0. -1.
         -4    1    3    3    0  502 -0.28971453255E+01  0.30878875988E+02  0.49856998342E+01  0.31412666811E+02  0.00000000000E+00 0.  1.
         13    1    5    5    0    0 -0.11478544547E+02 -0.36737401361E+01  0.86163441753E+01  0.14815354820E+02  0.00000000000E+00 0. -1.
        -13    1    5    5    0    0  0.26452742798E+02  0.23842825529E+03  0.11376687680E+03  0.26550081503E+03  0.00000000000E+00 0.  1.
          4    1    6    6  503    0  0.33067846979E+02 -0.59442952107E+03  0.50719203668E+03  0.78210210337E+03  0.00000000000E+00 0. -1.
         -4    1    6    6    0  503 -0.34257974180E+02 -0.18451888765E+03  0.19170211122E+03  0.26827323411E+03  0.00000000000E+00 0.  1.
<mgrwt>
<rscale>  0 0.18392851E+04</rscale>
<asrwt>0</asrwt>
<pdfrwt beam="1">  1        1 0.10351755E+00 0.18392851E+04</pdfrwt>
<pdfrwt beam="2">  1       -2 0.19337370E+00 0.18392851E+04</pdfrwt>
<totfact> 0.35024588E+00</totfact>
</mgrwt>
</event>
<event>
12    5  0.5041746E-008  0.1285337E+04  0.7818608E-02  0.9041274E-01
         -2   -1    0    0    0  501 -0.00000000000E+00  0.00000000000E+00  0.15581261300E+03  0.15581261300E+03  0.00000000000E+00 0.  1.
          1   -1    0    0  501    0  0.00000000000E+00 -0.00000000000E+00 -0.26507679401E+04  0.26507679401E+04  0.00000000000E+00 0. -1.
        -24    2    1    2    0    0  0.84657428147E+02  0.30281479542E+03 -0.76904304418E+03  0.83487412919E+03  0.81999556825E+02 0.  0.
        254    2    1    2    0    0 -0.84657428147E+02 -0.30281479542E+03 -0.17259122829E+04  0.19717064239E+04  0.89999407401E+03 0.  0.
         23    2    4    4    0    0 -0.20273243922E+03 -0.55447828755E+03 -0.14556488961E+04  0.15735472566E+04  0.92685741736E+02 0.  0.
         23    2    4    4    0    0  0.11807501108E+03  0.25166349212E+03 -0.27026338677E+03  0.39815916727E+03  0.90621204719E+02 0.  0.
          1    1    3    3  502    0  0.45257408205E+02  0.26051823556E+03 -0.58539236767E+03  0.64234119297E+03  0.00000000000E+00 0. -1.
         -2    1    3    3    0  502  0.39400019942E+02  0.42296559869E+02 -0.18365067651E+03  0.19253293623E+03  0.00000000000E+00 0.  1.
         13    1    5    5    0    0 -0.93281141423E+02 -0.17932718328E+03 -0.59311605931E+03  0.62661492945E+03  0.00000000000E+00 0. -1.
        -13    1    5    5    0    0 -0.10945129780E+03 -0.37515110426E+03 -0.86253283684E+03  0.94693232718E+03  0.00000000000E+00 0.  1.
          2    1    6    6  503    0  0.98298797965E+02  0.25368134090E+03 -0.25706007242E+03  0.37429501364E+03  0.00000000000E+00 0.  1.
         -2    1    6    6    0  503  0.19776213111E+02 -0.20178487772E+01 -0.13203314347E+02  0.23864153629E+02  0.00000000000E+00 0. -1.
<mgrwt>
<rscale>  0 0.12853374E+04</rscale>
<asrwt>0</asrwt>
<pdfrwt beam="1">  1        1 0.40781043E+00 0.12853374E+04</pdfrwt>
<pdfrwt beam="2">  1       -2 0.23971172E-01 0.12853374E+04</pdfrwt>
<totfact> 0.14300818E+01</totfact>
</mgrwt>
</event>
<event>
12    5  0.5041746E-008  0.2085739E+04  0.7818608E-02  0.8567552E-01
         -2   -1    0    0    0  501 -0.00000000000E+00  0.00000000000E+00  0.54345380273E+03  0.54345380273E+03  0.00000000000E+00 0.  1.
          1   -1    0    0  501    0  0.00000000000E+00 -0.00000000000E+00 -0.20012310320E+04  0.20012310320E+04  0.00000000000E+00 0. -1.
        -24    2    1    2    0    0 -0.73115771653E+03  0.18775531672E+02 -0.75309554227E+02  0.73947319547E+03  0.78771510347E+02 0.  0.
        254    2    1    2    0    0  0.73115771653E+03 -0.18775531672E+02 -0.13824676751E+04  0.18052116393E+04  0.90145885260E+03 0.  0.
         23    2    4    4    0    0  0.64439228974E+03  0.36804791500E+03 -0.80263845682E+03  0.10968475288E+04  0.90251416551E+02 0.  0.
         23    2    4    4    0    0  0.86765426786E+02 -0.38682344668E+03 -0.57982921825E+03  0.70836411050E+03  0.91745149878E+02 0.  0.
          3    1    3    3  502    0 -0.68309673516E+03  0.16215194652E+02 -0.50053812557E+02  0.68512003786E+03  0.00000000000E+00 0. -1.
         -4    1    3    3    0  502 -0.48060981368E+02  0.25603370197E+01 -0.25255741670E+02  0.54353157617E+02  0.00000000000E+00 0.  1.
         13    1    5    5    0    0  0.47274179909E+02  0.33684023223E+01 -0.61119050831E+02  0.77341661443E+02  0.00000000000E+00 0. -1.
        -13    1    5    5    0    0  0.59711810983E+03  0.36467951268E+03 -0.74151940598E+03  0.10195058673E+04  0.00000000000E+00 0.  1.
          1    1    6    6  503    0  0.88881911327E+02 -0.19407729329E+03 -0.28400808785E+03  0.35528380753E+03  0.00000000000E+00 0. -1.
         -1    1    6    6    0  503 -0.21164845412E+01 -0.19274615338E+03 -0.29582113040E+03  0.35308030297E+03  0.00000000000E+00 0.  1.
<mgrwt>
<rscale>  0 0.20857388E+04</rscale>
<asrwt>0</asrwt>
<pdfrwt beam="1">  1        1 0.30788170E+00 0.20857388E+04</pdfrwt>
<pdfrwt beam="2">  1       -2 0.83608278E-01 0.20857388E+04</pdfrwt>
<totfact> 0.30091910E+00</totfact>
</mgrwt>
</event>
<event>
12    5  0.5041746E-008  0.2940686E+04  0.7818608E-02  0.8260874E-01
          1   -1    0    0  501    0  0.00000000000E+00  0.00000000000E+00  0.24094014911E+04  0.24094014911E+04  0.00000000000E+00 0. -1.
         -2   -1    0    0    0  501 -0.00000000000E+00 -0.00000000000E+00 -0.89728036227E+03  0.89728036227E+03  0.00000000000E+00 0.  1.
        -24    2    1    2    0    0 -0.78677454716E+03 -0.65419367949E+01  0.18927441139E+04  0.20514048007E+04  0.82002381570E+02 0.  0.
        254    2    1    2    0    0  0.78677454716E+03  0.65419367949E+01 -0.38062298513E+03  0.12552770526E+04  0.90099369423E+03 0.  0.
         23    2    4    4    0    0  0.76550438060E+03  0.68340272033E+02 -0.61921595191E+03  0.99108898438E+03  0.90341742100E+02 0.  0.
         23    2    4    4    0    0  0.21270166566E+02 -0.61798335238E+02  0.23859296678E+03  0.26418806825E+03  0.92721504428E+02 0.  0.
          1    1    3    3  502    0 -0.71096357710E+03 -0.22108211775E+02  0.16550802816E+04  0.18014573877E+04  0.00000000000E+00 0. -1.
         -2    1    3    3    0  502 -0.75810970065E+02  0.15566274981E+02  0.23766383234E+03  0.24994741308E+03  0.00000000000E+00 0.  1.
         13    1    5    5    0    0  0.75109477629E+02 -0.20197587866E+02 -0.60468632072E+02  0.98518179287E+02  0.00000000000E+00 0.  1.
        -13    1    5    5    0    0  0.69039490297E+03  0.88537859899E+02 -0.55874731984E+03  0.89257080510E+03  0.00000000000E+00 0. -1.
          3    1    6    6  503    0 -0.19095970341E+01 -0.80408023211E+02  0.19930133904E+03  0.21491886958E+03  0.00000000000E+00 0. -1.
         -3    1    6    6    0  503  0.23179763600E+02  0.18609687973E+02  0.39291627737E+02  0.49269198666E+02  0.00000000000E+00 0.  1.
<mgrwt>
<rscale>  0 0.29406861E+04</rscale>
<asrwt>0</asrwt>
<pdfrwt beam="1">  1        1 0.37067715E+00 0.29406861E+04</pdfrwt>
<pdfrwt beam="2">  1       -2 0.13804313E+00 0.29406861E+04</pdfrwt>
<totfact> 0.43858312E-01</totfact>
</mgrwt>
</event>
<event>
12    5  0.5041746E-008  0.1419123E+04  0.7818608E-02  0.8940091E-01
         -2   -1    0    0    0  501 -0.00000000000E+00  0.00000000000E+00  0.53463995984E+03  0.53463995984E+03  0.00000000000E+00 0.  1.
          1   -1    0    0  501    0  0.00000000000E+00 -0.00000000000E+00 -0.94171335517E+03  0.94171335517E+03  0.00000000000E+00 0. -1.
        -24    2    1    2    0    0 -0.12748294709E+03 -0.39776659746E+03 -0.63753532359E+02  0.42984021492E+03  0.78917232740E+02 0.  0.
        254    2    1    2    0    0  0.12748294709E+03  0.39776659746E+03 -0.34331986297E+03  0.10465131001E+04  0.89601951569E+03 0.  0.
         23    2    4    4    0    0 -0.19932490608E+03  0.39524107270E+03 -0.49879307525E+03  0.67302288354E+03  0.90660609514E+02 0.  0.
         23    2    4    4    0    0  0.32680785317E+03  0.25255247625E+01  0.15547321228E+03  0.37349021656E+03  0.92267388382E+02 0.  0.
          3    1    3    3  502    0 -0.45880970479E+01 -0.65796610954E+02 -0.35049449308E+02  0.74690752737E+02  0.00000000000E+00 0. -1.
         -4    1    3    3    0  502 -0.12289485004E+03 -0.33196998651E+03 -0.28704083050E+02  0.35514946218E+03  0.00000000000E+00 0.  1.
         13    1    5    5    0    0 -0.12015644474E+02  0.39733598030E+01 -0.38523209768E+02  0.40548748329E+02  0.00000000000E+00 0. -1.
        -13    1    5    5    0    0 -0.18730926161E+03  0.39126771289E+03 -0.46026986548E+03  0.63247413521E+03  0.00000000000E+00 0.  1.
          1    1    6    6  503    0  0.25586015643E+02  0.26526280852E+02  0.23798802151E+02  0.43871069695E+02  0.00000000000E+00 0. -1.
         -1    1    6    6    0  503  0.30122183753E+03 -0.24000756089E+02  0.13167441012E+03  0.32961914686E+03  0.00000000000E+00 0.  1.
<mgrwt>
<rscale>  0 0.14191231E+04</rscale>
<asrwt>0</asrwt>
<pdfrwt beam="1">  1        1 0.14487898E+00 0.14191231E+04</pdfrwt>
<pdfrwt beam="2">  1       -2 0.82252301E-01 0.14191231E+04</pdfrwt>
<totfact> 0.18648584E+01</totfact>
</mgrwt>
</event>
<event>
12    5  0.5041746E-008  0.1821391E+04  0.7818608E-02  0.8695006E-01
         -2   -1    0    0    0  501 -0.00000000000E+00  0.00000000000E+00  0.15196878344E+04  0.15196878344E+04  0.00000000000E+00 0.  1.
          1   -1    0    0  501    0  0.00000000000E+00 -0.00000000000E+00 -0.54574794520E+03  0.54574794520E+03  0.00000000000E+00 0. -1.
        -24    2    1    2    0    0  0.11896928554E+03 -0.30998235184E+03  0.10523076891E+04  0.11062947279E+04  0.79333492055E+02 0.  0.
        254    2    1    2    0    0 -0.11896928554E+03  0.30998235184E+03 -0.78367799983E+02  0.95914105167E+03  0.89641915172E+03 0.  0.
         23    2    4    4    0    0  0.27988570119E+03  0.23424997686E+03 -0.30639379815E+03  0.48495318374E+03  0.89963178497E+02 0.  0.
         23    2    4    4    0    0 -0.39885498672E+03  0.75732374974E+02  0.22802599816E+03  0.47418786793E+03  0.89652580567E+02 0.  0.
          3    1    3    3  502    0  0.14331058332E+02 -0.13933232234E+03  0.47809680828E+03  0.49819216510E+03  0.00000000000E+00 0. -1.
         -4    1    3    3    0  502  0.10463822720E+03 -0.17065002950E+03  0.57421088087E+03  0.60810256279E+03  0.00000000000E+00 0.  1.
         13    1    5    5    0    0  0.91382962689E+02  0.73228866000E+02 -0.15573767576E+03  0.19485260156E+03  0.00000000000E+00 0.  1.
        -13    1    5    5    0    0  0.18850273850E+03  0.16102111086E+03 -0.15065612239E+03  0.29010058218E+03  0.00000000000E+00 0. -1.
          3    1    6    6  503    0 -0.24283715993E+03  0.27478102155E+02  0.90232365803E+02  0.26051259505E+03  0.00000000000E+00 0. -1.
         -3    1    6    6    0  503 -0.15601782680E+03  0.48254272819E+02  0.13779363236E+03  0.21367527288E+03  0.00000000000E+00 0.  1.
<mgrwt>
<rscale>  0 0.18213912E+04</rscale>
<asrwt>0</asrwt>
<pdfrwt beam="1">  1        1 0.83961223E-01 0.18213912E+04</pdfrwt>
<pdfrwt beam="2">  1       -2 0.23379813E+00 0.18213912E+04</pdfrwt>
<totfact> 0.26161745E+00</totfact>
</mgrwt>
</event>
<event>
12    5  0.5041746E-008  0.3792753E+04  0.7818608E-02  0.8047712E-01
          1   -1    0    0  501    0  0.00000000000E+00  0.00000000000E+00  0.22458138421E+04  0.22458138421E+04  0.00000000000E+00 0. -1.
         -2   -1    0    0    0  501 -0.00000000000E+00 -0.00000000000E+00 -0.16013102301E+04  0.16013102301E+04  0.00000000000E+00 0.  1.
        -24    2    1    2    0    0 -0.98680631779E+03  0.21875651540E+03 -0.11923114036E+04  0.15650820765E+04  0.78957591404E+02 0.  0.
        254    2    1    2    0    0  0.98680631779E+03 -0.21875651540E+03  0.18368150156E+04  0.22820419957E+04  0.90121315283E+03 0.  0.
         23    2    4    4    0    0  0.34502240480E+03  0.33697952517E+03  0.54361854662E+03  0.73199014360E+03  0.87708528056E+02 0.  0.
         23    2    4    4    0    0  0.64178391298E+03 -0.55573604057E+03  0.12931964690E+04  0.15500518521E+04  0.97849369592E+02 0.  0.
          3    1    3    3  502    0 -0.28533810800E+03  0.61172676628E+02 -0.29057488933E+03  0.41181755493E+03  0.00000000000E+00 0. -1.
         -4    1    3    3    0  502 -0.70146820979E+03  0.15758383877E+03 -0.90173651427E+03  0.11532645216E+04  0.00000000000E+00 0.  1.
         13    1    5    5    0    0  0.10227074767E+03  0.99955792768E+02  0.10472613940E+03  0.17725132048E+03  0.00000000000E+00 0. -1.
        -13    1    5    5    0    0  0.24275165713E+03  0.23702373240E+03  0.43889240721E+03  0.55473882311E+03  0.00000000000E+00 0.  1.
          1    1    6    6  503    0  0.10648775030E+03 -0.10000184156E+03  0.16145945422E+03  0.21773645683E+03  0.00000000000E+00 0. -1.
         -1    1    6    6    0  503  0.53529616269E+03 -0.45573419901E+03  0.11317370148E+04  0.13323153953E+04  0.00000000000E+00 0.  1.
<mgrwt>
<rscale>  0 0.37927534E+04</rscale>
<asrwt>0</asrwt>
<pdfrwt beam="1">  1        1 0.34550982E+00 0.37927534E+04</pdfrwt>
<pdfrwt beam="2">  1       -2 0.24635542E+00 0.37927534E+04</pdfrwt>
<totfact> 0.96061183E-02</totfact>
</mgrwt>
</event>
<event>
12    5  0.5041746E-008  0.1636310E+04  0.7818608E-02  0.8798547E-01
          1   -1    0    0  501    0  0.00000000000E+00  0.00000000000E+00  0.18795195346E+04  0.18795195346E+04  0.00000000000E+00 0. -1.
         -2   -1    0    0    0  501 -0.00000000000E+00 -0.00000000000E+00 -0.35614302322E+03  0.35614302322E+03  0.00000000000E+00 0.  1.
        -24    2    1    2    0    0 -0.32374762693E+03 -0.29100717574E+02  0.11520677267E+04  0.11997836179E+04  0.81001883506E+02 0.  0.
        254    2    1    2    0    0  0.32374762693E+03  0.29100717574E+02  0.37130878470E+03  0.10358789400E+04  0.91077746291E+03 0.  0.
         23    2    4    4    0    0  0.20966923518E+03  0.88985456339E+02 -0.27618814808E+03  0.36911244083E+03  0.89913854431E+02 0.  0.
         23    2    4    4    0    0  0.11407839175E+03 -0.59884738765E+02  0.64749693277E+03  0.66676649912E+03  0.93408912864E+02 0.  0.
          3    1    3    3  502    0 -0.44548184610E+02 -0.85273965590E+01  0.28648830890E+03  0.29005656066E+03  0.00000000000E+00 0. -1.
         -4    1    3    3    0  502 -0.27919944232E+03 -0.20573321015E+02  0.86557941779E+03  0.90972705722E+03  0.00000000000E+00 0.  1.
         13    1    5    5    0    0  0.20402085799E+03  0.10296888028E+03 -0.24867526417E+03  0.33773730592E+03  0.00000000000E+00 0. -1.
        -13    1    5    5    0    0  0.56483771891E+01 -0.13983423937E+02 -0.27512883906E+02  0.31375134911E+02  0.00000000000E+00 0.  1.
          3    1    6    6  503    0  0.40065962997E+01 -0.48077046975E+02  0.21190123747E+03  0.21732369797E+03  0.00000000000E+00 0. -1.
         -3    1    6    6    0  503  0.11007179545E+03 -0.11807691790E+02  0.43559569530E+03  0.44944280115E+03  0.00000000000E+00 0.  1.
<mgrwt>
<rscale>  0 0.16363102E+04</rscale>
<asrwt>0</asrwt>
<pdfrwt beam="1">  1        1 0.28915684E+00 0.16363102E+04</pdfrwt>
<pdfrwt beam="2">  1       -2 0.54791236E-01 0.16363102E+04</pdfrwt>
<totfact> 0.94694395E+00</totfact>
</mgrwt>
</event>
<event>
12    5  0.5041746E-008  0.1733602E+04  0.7818608E-02  0.8742428E-01
          1   -1    0    0  501    0  0.00000000000E+00  0.00000000000E+00  0.11765245986E+04  0.11765245986E+04  0.00000000000E+00 0. -1.
         -2   -1    0    0    0  501 -0.00000000000E+00 -0.00000000000E+00 -0.63861331038E+03  0.63861331038E+03  0.00000000000E+00 0.  1.
        -24    2    1    2    0    0 -0.53812451426E+03 -0.10782040026E+03  0.51760263704E+03  0.75848342962E+03  0.78621826357E+02 0.  0.
        254    2    1    2    0    0  0.53812451426E+03  0.10782040026E+03  0.20308651179E+02  0.10566544794E+04  0.90271978813E+03 0.  0.
         23    2    4    4    0    0  0.30335089561E+03  0.48474481998E+03  0.12279148063E+03  0.59193379848E+03  0.91151345052E+02 0.  0.
         23    2    4    4    0    0  0.23477361866E+03 -0.37692441972E+03 -0.10248282945E+03  0.46472068088E+03  0.90950045135E+02 0.  0.
          1    1    3    3  502    0 -0.44323963846E+03 -0.59053203837E+02  0.43128784418E+03  0.62125507042E+03  0.00000000000E+00 0. -1.
         -2    1    3    3    0  502 -0.94884875802E+02 -0.48767196423E+02  0.86314792857E+02  0.13722835920E+03  0.00000000000E+00 0.  1.
         13    1    5    5    0    0  0.11655705274E+03  0.20126336268E+03  0.51386817577E+01  0.23263467874E+03  0.00000000000E+00 0.  1.
        -13    1    5    5    0    0  0.18679384287E+03  0.28348145730E+03  0.11765279887E+03  0.35929911974E+03  0.00000000000E+00 0. -1.
          4    1    6    6  503    0  0.18390914769E+00 -0.45688171814E+02 -0.22869964608E+02  0.51092838514E+02  0.00000000000E+00 0. -1.
         -4    1    6    6    0  503  0.23458970951E+03 -0.33123624791E+03 -0.79612864841E+02  0.41362784237E+03  0.00000000000E+00 0.  1.
<mgrwt>
<rscale>  0 0.17336023E+04</rscale>
<asrwt>0</asrwt>
<pdfrwt beam="1">  1        1 0.18100378E+00 0.17336023E+04</pdfrwt>
<pdfrwt beam="2">  1       -2 0.98248202E-01 0.17336023E+04</pdfrwt>
<totfact> 0.79698223E+00</totfact>
</mgrwt>
</event>
<event>
12    5  0.5041746E-008  0.1363952E+04  0.7818608E-02  0.8980334E-01
         -2   -1    0    0    0  501 -0.00000000000E+00  0.00000000000E+00  0.33457332141E+03  0.33457332141E+03  0.00000000000E+00 0.  1.
          1   -1    0    0  501    0  0.00000000000E+00 -0.00000000000E+00 -0.13901017395E+04  0.13901017395E+04  0.00000000000E+00 0. -1.
        -24    2    1    2    0    0 -0.15507417045E+03  0.13922717186E+03 -0.70528593178E+03  0.73957313690E+03  0.78153538161E+02 0.  0.
        254    2    1    2    0    0  0.15507417045E+03 -0.13922717186E+03 -0.35024248632E+03  0.98510192401E+03  0.89684101030E+03 0.  0.
         23    2    4    4    0    0  0.48321418924E+03 -0.18415146200E+03 -0.36732707403E+03  0.64090191051E+03  0.91751653601E+02 0.  0.
         23    2    4    4    0    0 -0.32814001879E+03  0.44924290133E+02  0.17084587719E+02  0.34420001350E+03  0.92128727224E+02 0.  0.
          3    1    3    3  502    0 -0.59896797539E+02  0.84890930425E+02 -0.44852282059E+03  0.46039854150E+03  0.00000000000E+00 0. -1.
         -4    1    3    3    0  502 -0.95177372914E+02  0.54336241437E+02 -0.25676311119E+03  0.27917459540E+03  0.00000000000E+00 0.  1.
         13    1    5    5    0    0  0.36512190417E+03 -0.17963830712E+03 -0.28965601843E+03  0.49948426932E+03  0.00000000000E+00 0. -1.
        -13    1    5    5    0    0  0.11809228507E+03 -0.45131548789E+01 -0.77671055603E+02  0.14141764119E+03  0.00000000000E+00 0.  1.
          1    1    6    6  503    0 -0.25965593298E+03  0.71893309713E+02  0.22721937391E+02  0.27038146747E+03  0.00000000000E+00 0. -1.
         -1    1    6    6    0  503 -0.68484085809E+02 -0.26969019580E+02 -0.56373496722E+01  0.73818546027E+02  0.00000000000E+00 0.  1.
<mgrwt>
<rscale>  0 0.13639515E+04</rscale>
<asrwt>0</asrwt>
<pdfrwt beam="1">  1        1 0.21386181E+00 0.13639515E+04</pdfrwt>
<pdfrwt beam="2">  1       -2 0.51472819E-01 0.13639515E+04</pdfrwt>
<totfact> 0.23878498E+01</totfact>
</mgrwt>
</event>
<event>
12    5  0.5041746E-008  0.1347244E+04  0.7818608E-02  0.8992917E-01
         -2   -1    0    0    0  501 -0.00000000000E+00  0.00000000000E+00  0.62292140325E+03  0.62292140325E+03  0.00000000000E+00 0.  1.
          1   -1    0    0  501    0  0.00000000000E+00 -0.00000000000E+00 -0.72844956216E+03  0.72844956216E+03  0.00000000000E+00 0. -1.
        -24    2    1    2    0    0 -0.29802048563E+03 -0.13313281689E+03  0.13640913999E+03  0.36252151758E+03  0.79207578220E+02 0.  0.
        254    2    1    2    0    0  0.29802048563E+03  0.13313281689E+03 -0.24193729890E+03  0.98884944783E+03  0.90152593811E+03 0.  0.
         23    2    4    4    0    0  0.13853026452E+03  0.39883096959E+03  0.17117681099E+03  0.46447611361E+03  0.90442152812E+02 0.  0.
         23    2    4    4    0    0  0.15949022111E+03 -0.26569815270E+03 -0.41311410990E+03  0.52437333422E+03  0.90947715024E+02 0.  0.
          1    1    3    3  502    0 -0.13781177013E+02 -0.30863191938E+02  0.13891808361E+02  0.36543669712E+02  0.00000000000E+00 0. -1.
         -2    1    3    3    0  502 -0.28423930862E+03 -0.10226962495E+03  0.12251733163E+03  0.32597784787E+03  0.00000000000E+00 0.  1.
         13    1    5    5    0    0  0.29729904762E+02  0.47000431163E+02  0.55246351963E+02  0.78390478835E+02  0.00000000000E+00 0.  1.
        -13    1    5    5    0    0  0.10880035976E+03  0.35183053842E+03  0.11593045903E+03  0.38608563478E+03  0.00000000000E+00 0. -1.
          4    1    6    6  503    0  0.11795140702E+03 -0.24381993613E+03 -0.31382500572E+03  0.41454412297E+03  0.00000000000E+00 0. -1.
         -4    1    6    6    0  503  0.41538814093E+02 -0.21878216572E+02 -0.99289104175E+02  0.10982921125E+03  0.00000000000E+00 0.  1.
<mgrwt>
<rscale>  0 0.13472443E+04</rscale>
<asrwt>0</asrwt>
<pdfrwt beam="1">  1        1 0.11206916E+00 0.13472443E+04</pdfrwt>
<pdfrwt beam="2">  1       -2 0.95834063E-01 0.13472443E+04</pdfrwt>
<totfact> 0.20067065E+01</totfact>
</mgrwt>
</event>
<event>
12    5  0.5041746E-008  0.1668736E+04  0.7818608E-02  0.8779399E-01
         -4   -1    0    0    0  501 -0.00000000000E+00  0.00000000000E+00  0.56915260686E+03  0.56915260686E+03  0.00000000000E+00 0.  1.
          1   -1    0    0  501    0  0.00000000000E+00 -0.00000000000E+00 -0.12231692043E+04  0.12231692043E+04  0.00000000000E+00 0. -1.
        -24    2    1    2    0    0  0.35101341061E+03 -0.38532482245E+03 -0.52454933640E+03  0.74387805703E+03  0.80727468618E+02 0.  0.
        254    2    1    2    0    0 -0.35101341061E+03  0.38532482245E+03 -0.12946726099E+03  0.10484437541E+04  0.90043706086E+03 0.  0.
         23    2    4    4    0    0 -0.40402703156E+03 -0.13259968105E+03  0.13795244175E+03  0.45596328616E+03  0.89728058588E+02 0.  0.
         23    2    4    4    0    0  0.53013620948E+02  0.51792450350E+03 -0.26741970274E+03  0.59248046792E+03  0.91997674517E+02 0.  0.
          1    1    3    3  502    0  0.33752388043E+03 -0.38441819131E+03 -0.52039723939E+03  0.72973488504E+03  0.00000000000E+00 0. -1.
         -2    1    3    3    0  502  0.13489530182E+02 -0.90663113829E+00 -0.41520970109E+01  0.14143171997E+02  0.00000000000E+00 0.  1.
         13    1    5    5    0    0 -0.19181672576E+03 -0.47773015103E+02  0.19727613213E+02  0.19865823914E+03  0.00000000000E+00 0. -1.
        -13    1    5    5    0    0 -0.21221030580E+03 -0.84826665945E+02  0.11822482854E+03  0.25730504703E+03  0.00000000000E+00 0.  1.
          2    1    6    6  503    0  0.31608841358E+02  0.37482232890E+03 -0.14565279371E+03  0.40336786363E+03  0.00000000000E+00 0. -1.
         -2    1    6    6    0  503  0.21404779590E+02  0.14310217460E+03 -0.12176690903E+03  0.18911260428E+03  0.00000000000E+00 0.  1.
<mgrwt>
<rscale>  0 0.16687360E+04</rscale>
<asrwt>0</asrwt>
<pdfrwt beam="1">  1        1 0.18817987E+00 0.16687360E+04</pdfrwt>
<pdfrwt beam="2">  1       -4 0.87561941E-01 0.16687360E+04</pdfrwt>
<totfact> 0.53995125E+00</totfact>
</mgrwt>
</event>
<event>
12    5  0.5041746E-008  0.1688008E+04  0.7818608E-02  0.8768233E-01
         -2   -1    0    0    0  501 -0.00000000000E+00  0.00000000000E+00  0.65460457425E+03  0.65460457425E+03  0.00000000000E+00 0.  1.
          1   -1    0    0  501    0  0.00000000000E+00 -0.00000000000E+00 -0.10882033741E+04  0.10882033741E+04  0.00000000000E+00 0. -1.
        -24    2    1    2    0    0 -0.29188998962E+03  0.45792573445E+03 -0.41085268679E+03  0.68566499071E+03  0.80254625589E+02 0.  0.
        254    2    1    2    0    0  0.29188998962E+03 -0.45792573445E+03 -0.22746113078E+02  0.10571429577E+04  0.90671831512E+03 0.  0.
         23    2    4    4    0    0 -0.19184981836E+03 -0.34215388491E+03 -0.27934709578E+03  0.49027856430E+03  0.91992591745E+02 0.  0.
         23    2    4    4    0    0  0.48373980798E+03 -0.11577184954E+03  0.25660098270E+03  0.56686439336E+03  0.89910250637E+02 0.  0.
          3    1    3    3  502    0 -0.24323408671E+03  0.39107061371E+03 -0.38114244645E+03  0.59780315349E+03  0.00000000000E+00 0. -1.
         -4    1    3    3    0  502 -0.48655902915E+02  0.66855120735E+02 -0.29710240342E+02  0.87861837212E+02  0.00000000000E+00 0.  1.
         13    1    5    5    0    0 -0.16164458483E+03 -0.30569359777E+03 -0.27666567908E+03  0.44285600990E+03  0.00000000000E+00 0.  1.
        -13    1    5    5    0    0 -0.30205233531E+02 -0.36460287139E+02 -0.26814166945E+01  0.47422554407E+02  0.00000000000E+00 0. -1.
          4    1    6    6  503    0  0.18710598105E+03 -0.37980269322E+01  0.76133878834E+02  0.20203821584E+03  0.00000000000E+00 0. -1.
         -4    1    6    6    0  503  0.29663382693E+03 -0.11197382261E+03  0.18046710386E+03  0.36482617752E+03  0.00000000000E+00 0.  1.
<mgrwt>
<rscale>  0 0.16880082E+04</rscale>
<asrwt>0</asrwt>
<pdfrwt beam="1">  1        1 0.16741590E+00 0.16880082E+04</pdfrwt>
<pdfrwt beam="2">  1       -2 0.10070840E+00 0.16880082E+04</pdfrwt>
<totfact> 0.87805200E+00</totfact>
</mgrwt>
</event>
<event>
12    5  0.5041746E-008  0.1655154E+04  0.7818608E-02  0.8787363E-01
         -2   -1    0    0    0  501 -0.00000000000E+00  0.00000000000E+00  0.31089574147E+03  0.31089574147E+03  0.00000000000E+00 0.  1.
          1   -1    0    0  501    0  0.00000000000E+00 -0.00000000000E+00 -0.22029367873E+04  0.22029367873E+04  0.00000000000E+00 0. -1.
        -24    2    1    2    0    0  0.54057779222E+03 -0.16130785679E+03 -0.46180613561E+03  0.73338547256E+03  0.79654066884E+02 0.  0.
        254    2    1    2    0    0 -0.54057779222E+03  0.16130785679E+03 -0.14302349102E+04  0.17804470562E+04  0.89787262317E+03 0.  0.
         23    2    4    4    0    0 -0.32361737461E+03  0.43236727483E+03 -0.37029264799E+03  0.66135358291E+03  0.92748320684E+02 0.  0.
         23    2    4    4    0    0 -0.21696041760E+03 -0.27105941804E+03 -0.10599422622E+04  0.11190934733E+04  0.91365046925E+02 0.  0.
          1    1    3    3  502    0  0.48414467692E+02 -0.32487999151E+02 -0.27452869618E+02  0.64444478592E+02  0.00000000000E+00 0. -1.
         -2    1    3    3    0  502  0.49216332452E+03 -0.12881985764E+03 -0.43435326599E+03  0.66894099397E+03  0.00000000000E+00 0.  1.
         13    1    5    5    0    0 -0.24465577973E+03  0.35330084997E+03 -0.33263128006E+03  0.54343491756E+03  0.00000000000E+00 0. -1.
        -13    1    5    5    0    0 -0.78961594882E+02  0.79066424855E+02 -0.37661367927E+02  0.11791866536E+03  0.00000000000E+00 0.  1.
          1    1    6    6  503    0 -0.34800753090E+02 -0.10090609676E+03 -0.25497463717E+03  0.27641490260E+03  0.00000000000E+00 0. -1.
         -1    1    6    6    0  503 -0.18215966451E+03 -0.17015332128E+03 -0.80496762502E+03  0.84267857066E+03  0.00000000000E+00 0.  1.
<mgrwt>
<rscale>  0 0.16551540E+04</rscale>
<asrwt>0</asrwt>
<pdfrwt beam="1">  1        1 0.33891335E+00 0.16551540E+04</pdfrwt>
<pdfrwt beam="2">  1       -2 0.47830115E-01 0.16551540E+04</pdfrwt>
<totfact> 0.75385599E+00</totfact>
</mgrwt>
</event>
<event>
12    5  0.5041746E-008  0.3061607E+04  0.7818608E-02  0.8226354E-01
         -2   -1    0    0    0  501 -0.00000000000E+00  0.00000000000E+00  0.10961201983E+04  0.10961201983E+04  0.00000000000E+00 0.  1.
          1   -1    0    0  501    0  0.00000000000E+00 -0.00000000000E+00 -0.21378672703E+04  0.21378672703E+04  0.00000000000E+00 0. -1.
        -24    2    1    2    0    0  0.45374873054E+02  0.73670554538E+03  0.77700239326E+03  0.10746504629E+04  0.79667800879E+02 0.  0.
        254    2    1    2    0    0 -0.45374873054E+02 -0.73670554538E+03 -0.18187494652E+04  0.21593370058E+04  0.90005152502E+03 0.  0.
         23    2    4    4    0    0 -0.21200869655E+03 -0.85722165428E+03 -0.11471931396E+04  0.14507005679E+04  0.93291940625E+02 0.  0.
         23    2    4    4    0    0  0.16663382349E+03  0.12051610890E+03 -0.67155632555E+03  0.70863643784E+03  0.94269502043E+02 0.  0.
          1    1    3    3  502    0  0.10002893419E+02  0.42320166207E+02  0.23709328376E+02  0.49529653709E+02  0.00000000000E+00 0. -1.
         -2    1    3    3    0  502  0.35371979635E+02  0.69438537917E+03  0.75329306488E+03  0.10251208091E+04  0.00000000000E+00 0.  1.
         13    1    5    5    0    0 -0.15301953823E+03 -0.63529487157E+03 -0.77922857282E+03  0.10169620060E+04  0.00000000000E+00 0. -1.
        -13    1    5    5    0    0 -0.58989158314E+02 -0.22192678271E+03 -0.36796456683E+03  0.43373856196E+03  0.00000000000E+00 0.  1.
          1    1    6    6  503    0  0.15731411445E+03  0.13525810049E+03 -0.59546859921E+03  0.63057540152E+03  0.00000000000E+00 0. -1.
         -1    1    6    6    0  503  0.93197090414E+01 -0.14741991588E+02 -0.76087726339E+02  0.78061036324E+02  0.00000000000E+00 0.  1.
<mgrwt>
<rscale>  0 0.30616071E+04</rscale>
<asrwt>0</asrwt>
<pdfrwt beam="1">  1        1 0.32890266E+00 0.30616071E+04</pdfrwt>
<pdfrwt beam="2">  1       -2 0.16863388E+00 0.30616071E+04</pdfrwt>
<totfact> 0.38970811E-01</totfact>
</mgrwt>
</event>
<event>
12    5  0.5041746E-008  0.1103370E+04  0.7818608E-02  0.9201914E-01
          1   -1    0    0  501    0  0.00000000000E+00  0.00000000000E+00  0.81837305085E+03  0.81837305085E+03  0.00000000000E+00 0. -1.
         -2   -1    0    0    0  501 -0.00000000000E+00 -0.00000000000E+00 -0.37190390856E+03  0.37190390856E+03  0.00000000000E+00 0.  1.
        -24    2    1    2    0    0  0.28920345619E+02  0.10285363790E+03  0.22694751008E+03  0.26220960567E+03  0.76377010636E+02 0.  0.
        254    2    1    2    0    0 -0.28920345619E+02 -0.10285363790E+03  0.21952163221E+03  0.92806735374E+03  0.89537925420E+03 0.  0.
         23    2    4    4    0    0  0.75659824422E+02 -0.17550999817E+03  0.53522301139E+03  0.57546111888E+03  0.90352968570E+02 0.  0.
         23    2    4    4    0    0 -0.10458017004E+03  0.72656360278E+02 -0.31570137918E+03  0.35260623487E+03  0.91912117780E+02 0.  0.
          3    1    3    3  502    0  0.30512637997E+02  0.11253881782E+03  0.22297212782E+03  0.25161990457E+03  0.00000000000E+00 0. -1.
         -2    1    3    3    0  502 -0.15922923786E+01 -0.96851799244E+01  0.39753822672E+01  0.10589701099E+02  0.00000000000E+00 0.  1.
         13    1    5    5    0    0  0.45122852123E+02 -0.37956771515E+02  0.83121625663E+02  0.10191169187E+03  0.00000000000E+00 0. -1.
        -13    1    5    5    0    0  0.30536972300E+02 -0.13755322666E+03  0.45210138573E+03  0.47354942701E+03  0.00000000000E+00 0.  1.
          3    1    6    6  503    0 -0.72186166617E+02  0.20425493614E+02 -0.82797731182E+02  0.11172961885E+03  0.00000000000E+00 0. -1.
         -3    1    6    6    0  503 -0.32394003424E+02  0.52230866663E+02 -0.23290364800E+03  0.24087661601E+03  0.00000000000E+00 0.  1.
<mgrwt>
<rscale>  0 0.11033696E+04</rscale>
<asrwt>0</asrwt>
<pdfrwt beam="1">  1        1 0.12590355E+00 0.11033696E+04</pdfrwt>
<pdfrwt beam="2">  1       -2 0.57215986E-01 0.11033696E+04</pdfrwt>
<totfact> 0.53265375E+01</totfact>
</mgrwt>
</event>
<event>
12    5  0.5041746E-008  0.3672411E+04  0.7818608E-02  0.8074103E-01
          1   -1    0    0  501    0  0.00000000000E+00  0.00000000000E+00  0.27245570072E+04  0.27245570072E+04  0.00000000000E+00 0. -1.
         -2   -1    0    0    0  501 -0.00000000000E+00 -0.00000000000E+00 -0.12375044762E+04  0.12375044762E+04  0.00000000000E+00 0.  1.
        -24    2    1    2    0    0  0.14194238649E+04  0.83075867692E+03  0.13727686708E+03  0.16522590696E+04  0.78682954105E+02 0.  0.
        254    2    1    2    0    0 -0.14194238649E+04 -0.83075867692E+03  0.13497756640E+04  0.23098024138E+04  0.89909329901E+03 0.  0.
         23    2    4    4    0    0 -0.28353603733E+03  0.14088282983E+03  0.63117823987E+02  0.33537523653E+03  0.90840703258E+02 0.  0.
         23    2    4    4    0    0 -0.11358878276E+04 -0.97164150676E+03  0.12866578400E+04  0.19744271773E+04  0.92444073655E+02 0.  0.
          1    1    3    3  502    0  0.10687609529E+04  0.65609502280E+03  0.12529259060E+03  0.12603209459E+04  0.00000000000E+00 0. -1.
         -2    1    3    3    0  502  0.35066291203E+03  0.17466365412E+03  0.11984276482E+02  0.39193812372E+03  0.00000000000E+00 0.  1.
         13    1    5    5    0    0 -0.71078201639E+00 -0.78776026783E+00 -0.10536433222E+02  0.10589721543E+02  0.00000000000E+00 0.  1.
        -13    1    5    5    0    0 -0.28282525531E+03  0.14167059010E+03  0.73654257209E+02  0.32478551499E+03  0.00000000000E+00 0. -1.
          1    1    6    6  503    0 -0.99030130955E+03 -0.82326326012E+03  0.11414124143E+04  0.17208374062E+04  0.00000000000E+00 0. -1.
         -1    1    6    6    0  503 -0.14558651803E+03 -0.14837824663E+03  0.14524542567E+03  0.25358977105E+03  0.00000000000E+00 0.  1.
<mgrwt>
<rscale>  0 0.36724115E+04</rscale>
<asrwt>0</asrwt>
<pdfrwt beam="1">  1        1 0.41916261E+00 0.36724115E+04</pdfrwt>
<pdfrwt beam="2">  1       -2 0.19038530E+00 0.36724115E+04</pdfrwt>
<totfact> 0.10281378E-01</totfact>
</mgrwt>
</event>
<event>
12    5  0.5041746E-008  0.1006366E+04  0.7818608E-02  0.9301590E-01
          1   -1    0    0  501    0  0.00000000000E+00  0.00000000000E+00  0.40727047456E+03  0.40727047456E+03  0.00000000000E+00 0. -1.
         -2   -1    0    0    0  501 -0.00000000000E+00 -0.00000000000E+00 -0.62168267873E+03  0.62168267873E+03  0.00000000000E+00 0.  1.
        -24    2    1    2    0    0  0.28220568243E+02 -0.50356090493E+02 -0.33137454247E+01  0.99209331065E+02  0.80618695970E+02 0.  0.
        254    2    1    2    0    0 -0.28220568243E+02  0.50356090493E+02 -0.21109845874E+03  0.92974382222E+03  0.90361987547E+03 0.  0.
         23    2    4    4    0    0 -0.21436097169E+03  0.36350433785E+03  0.97292835614E+02  0.44278972268E+03  0.92254066740E+02 0.  0.
         23    2    4    4    0    0  0.18614040345E+03 -0.31314824736E+03 -0.30839129435E+03  0.48695409954E+03  0.96483314639E+02 0.  0.
          3    1    3    3  502    0  0.26232559118E+02 -0.18235847532E+02  0.36178207677E+02  0.48265474242E+02  0.00000000000E+00 0. -1.
         -4    1    3    3    0  502  0.19880091252E+01 -0.32120242962E+02 -0.39491953102E+02  0.50943856823E+02  0.00000000000E+00 0.  1.
         13    1    5    5    0    0 -0.59536839056E+02  0.18989429329E+03  0.36080494704E+02  0.20225300969E+03  0.00000000000E+00 0. -1.
        -13    1    5    5    0    0 -0.15482413264E+03  0.17361004456E+03  0.61212340910E+02  0.24053671299E+03  0.00000000000E+00 0.  1.
          2    1    6    6  503    0  0.30466152137E+01 -0.42977974288E+02 -0.72231636109E+02  0.84105870147E+02  0.00000000000E+00 0. -1.
         -2    1    6    6    0  503  0.18309378824E+03 -0.27017027307E+03 -0.23615965825E+03  0.40284822939E+03  0.00000000000E+00 0.  1.
<mgrwt>
<rscale>  0 0.10063657E+04</rscale>
<asrwt>0</asrwt>
<pdfrwt beam="1">  1        1 0.62656996E-01 0.10063657E+04</pdfrwt>
<pdfrwt beam="2">  1       -2 0.95643488E-01 0.10063657E+04</pdfrwt>
<totfact> 0.47069367E+01</totfact>
</mgrwt>
</event>
<event>
12    5  0.5041746E-008  0.3477772E+04  0.7818608E-02  0.8119078E-01
         -2   -1    0    0    0  501 -0.00000000000E+00  0.00000000000E+00  0.13114175074E+04  0.13114175074E+04  0.00000000000E+00 0.  1.
          1   -1    0    0  501    0  0.00000000000E+00 -0.00000000000E+00 -0.23056911807E+04  0.23056911807E+04  0.00000000000E+00 0. -1.
        -24    2    1    2    0    0 -0.10901331160E+04 -0.54970313974E+03 -0.15822477236E+04  0.20001370502E+04  0.80477377195E+02 0.  0.
        254    2    1    2    0    0  0.10901331160E+04  0.54970313974E+03  0.58797405028E+03  0.16169716380E+04  0.88222448498E+03 0.  0.
         23    2    4    4    0    0  0.13871287030E+03  0.50100564856E+03  0.34274517336E+03  0.62903892081E+03  0.89262476765E+02 0.  0.
         23    2    4    4    0    0  0.95142024568E+03  0.48697491178E+02  0.24522887692E+03  0.98793271719E+03  0.91114883990E+02 0.  0.
          1    1    3    3  502    0 -0.38532644402E+03 -0.17145775160E+03 -0.49407705150E+03  0.64960477359E+03  0.00000000000E+00 0. -1.
         -2    1    3    3    0  502 -0.70480667196E+03 -0.37824538813E+03 -0.10881706721E+04  0.13505322766E+04  0.00000000000E+00 0.  1.
         13    1    5    5    0    0  0.88970818768E+02  0.43906414494E+03  0.29357555358E+03  0.53561155292E+03  0.00000000000E+00 0. -1.
        -13    1    5    5    0    0  0.49742051531E+02  0.61941503615E+02  0.49169619781E+02  0.93427367886E+02  0.00000000000E+00 0.  1.
          1    1    6    6  503    0  0.91396517160E+03  0.49946999846E+02  0.25301933721E+03  0.94965563374E+03  0.00000000000E+00 0. -1.
         -1    1    6    6    0  503  0.37455074082E+02 -0.12495086682E+01 -0.77904602834E+01  0.38277083455E+02  0.00000000000E+00 0.  1.
<mgrwt>
<rscale>  0 0.34777716E+04</rscale>
<asrwt>0</asrwt>
<pdfrwt beam="1">  1        1 0.35472172E+00 0.34777716E+04</pdfrwt>
<pdfrwt beam="2">  1       -2 0.20175654E+00 0.34777716E+04</pdfrwt>
<totfact> 0.17176698E-01</totfact>
</mgrwt>
</event>
<event>
12    5  0.5041746E-008  0.1618077E+04  0.7818608E-02  0.8809519E-01
         -2   -1    0    0    0  501 -0.00000000000E+00  0.00000000000E+00  0.25036444629E+03  0.25036444629E+03  0.00000000000E+00 0.  1.
          1   -1    0    0  501    0  0.00000000000E+00 -0.00000000000E+00 -0.26143608415E+04  0.26143608415E+04  0.00000000000E+00 0. -1.
        -24    2    1    2    0    0  0.28918378126E+03  0.40064492307E+03 -0.11998812363E+04  0.13001226407E+04  0.80375905028E+02 0.  0.
        254    2    1    2    0    0 -0.28918378126E+03 -0.40064492307E+03 -0.11641151589E+04  0.15646026470E+04  0.92123489195E+03 0.  0.
         23    2    4    4    0    0  0.31991697854E+03 -0.58528600956E+02 -0.42776667539E+03  0.54519257822E+03  0.92076861830E+02 0.  0.
         23    2    4    4    0    0 -0.60910075980E+03 -0.34211632211E+03 -0.73634848355E+03  0.10194100688E+04  0.94554141875E+02 0.  0.
          1    1    3    3  502    0  0.17003563902E+03  0.27780856618E+03 -0.85945324848E+03  0.91910260815E+03  0.00000000000E+00 0. -1.
         -2    1    3    3    0  502  0.11914814224E+03  0.12283635689E+03 -0.34042798779E+03  0.38102003260E+03  0.00000000000E+00 0.  1.
         13    1    5    5    0    0  0.18161857254E+03  0.28115765678E+00 -0.28471843217E+03  0.33771285223E+03  0.00000000000E+00 0.  1.
        -13    1    5    5    0    0  0.13829840600E+03 -0.58809758613E+02 -0.14304824322E+03  0.20747972599E+03  0.00000000000E+00 0. -1.
          4    1    6    6  503    0 -0.98076031482E+02 -0.17812330150E+02 -0.99931892742E+02  0.14114733523E+03  0.00000000000E+00 0. -1.
         -4    1    6    6    0  503 -0.51102472832E+03 -0.32430399196E+03 -0.63641659081E+03  0.87826273359E+03  0.00000000000E+00 0.  1.
<mgrwt>
<rscale>  0 0.16180766E+04</rscale>
<asrwt>0</asrwt>
<pdfrwt beam="1">  1        1 0.40220936E+00 0.16180766E+04</pdfrwt>
<pdfrwt beam="2">  1       -2 0.38517607E-01 0.16180766E+04</pdfrwt>
<totfact> 0.60546900E+00</totfact>
</mgrwt>
</event>
<event>
12    5  0.5041746E-008  0.1310098E+04  0.7818608E-02  0.9021596E-01
          1   -1    0    0  501    0  0.00000000000E+00  0.00000000000E+00  0.25501887388E+03  0.25501887388E+03  0.00000000000E+00 0. -1.
         -2   -1    0    0    0  501 -0.00000000000E+00 -0.00000000000E+00 -0.16825769191E+04  0.16825769191E+04  0.00000000000E+00 0.  1.
        -24    2    1    2    0    0  0.42485740893E+02  0.47447347841E+02  0.11044546177E+03  0.15072281041E+03  0.80392017986E+02 0.  0.
        254    2    1    2    0    0 -0.42485740893E+02 -0.47447347841E+02 -0.15380035070E+04  0.17868729825E+04  0.90741610041E+03 0.  0.
         23    2    4    4    0    0 -0.25580472898E+03 -0.36451137111E+03 -0.49338216387E+03  0.67065395056E+03  0.89700405492E+02 0.  0.
         23    2    4    4    0    0  0.21331898809E+03  0.31706402326E+03 -0.10446213431E+04  0.11162190320E+04  0.93148222547E+02 0.  0.
          1    1    3    3  502    0  0.45943625420E+02  0.60016190576E+02  0.54253815740E+02  0.93038897083E+02  0.00000000000E+00 0. -1.
         -2    1    3    3    0  502 -0.34578845276E+01 -0.12568842735E+02  0.56191646031E+02  0.57683913328E+02  0.00000000000E+00 0.  1.
         13    1    5    5    0    0 -0.50720079044E+02 -0.52320400322E+02 -0.13280289743E+03  0.15148122086E+03  0.00000000000E+00 0.  1.
        -13    1    5    5    0    0 -0.20508464994E+03 -0.31219097078E+03 -0.36057926644E+03  0.51917272970E+03  0.00000000000E+00 0. -1.
          3    1    6    6  503    0  0.50948232942E+02  0.83363538139E+02 -0.39680243493E+03  0.40865312221E+03  0.00000000000E+00 0. -1.
         -3    1    6    6    0  503  0.16237075515E+03  0.23370048513E+03 -0.64781890816E+03  0.70756590975E+03  0.00000000000E+00 0.  1.
<mgrwt>
<rscale>  0 0.13100975E+04</rscale>
<asrwt>0</asrwt>
<pdfrwt beam="1">  1        1 0.39233674E-01 0.13100975E+04</pdfrwt>
<pdfrwt beam="2">  1       -2 0.25885798E+00 0.13100975E+04</pdfrwt>
<totfact> 0.52756106E+00</totfact>
</mgrwt>
</event>
<event>
12    5  0.5041746E-008  0.2252030E+04  0.7818608E-02  0.8497079E-01
          1   -1    0    0  501    0  0.00000000000E+00  0.00000000000E+00  0.19672118564E+04  0.19672118564E+04  0.00000000000E+00 0. -1.
         -2   -1    0    0    0  501 -0.00000000000E+00 -0.00000000000E+00 -0.64452125718E+03  0.64452125718E+03  0.00000000000E+00 0.  1.
        -24    2    1    2    0    0  0.52484963610E+03 -0.75402263595E+03  0.85705778180E+03  0.12587062369E+04  0.76000482355E+02 0.  0.
        254    2    1    2    0    0 -0.52484963610E+03  0.75402263595E+03  0.46563281743E+03  0.13530268767E+04  0.87741126758E+03 0.  0.
         23    2    4    4    0    0 -0.69134177022E+02  0.60549087310E+03 -0.79810898313E+02  0.62128651993E+03  0.90710685776E+02 0.  0.
         23    2    4    4    0    0 -0.45571545907E+03  0.14853176285E+03  0.54544371574E+03  0.73174035681E+03  0.90536393397E+02 0.  0.
          3    1    3    3  502    0  0.45648237422E+03 -0.63469492318E+03  0.76044129098E+03  0.10906350263E+04  0.00000000000E+00 0. -1.
         -2    1    3    3    0  502  0.68367261880E+02 -0.11932771277E+03  0.96616490819E+02  0.16807121060E+03  0.00000000000E+00 0.  1.
         13    1    5    5    0    0  0.53027320188E+01  0.52286904395E+02 -0.30881617459E+02  0.60956653739E+02  0.00000000000E+00 0. -1.
        -13    1    5    5    0    0 -0.74436909041E+02  0.55320396871E+03 -0.48929280854E+02  0.56032986619E+03  0.00000000000E+00 0.  1.
          4    1    6    6  503    0 -0.10273813280E+02  0.79746849801E-02 -0.20462459264E+01  0.10475610975E+02  0.00000000000E+00 0. -1.
         -4    1    6    6    0  503 -0.44544164579E+03  0.14852378816E+03  0.54748996167E+03  0.72126474584E+03  0.00000000000E+00 0.  1.
<mgrwt>
<rscale>  0 0.22520301E+04</rscale>
<asrwt>0</asrwt>
<pdfrwt beam="1">  1        1 0.30264798E+00 0.22520301E+04</pdfrwt>
<pdfrwt beam="2">  1       -2 0.99157117E-01 0.22520301E+04</pdfrwt>
<totfact> 0.21074967E+00</totfact>
</mgrwt>
</event>
<event>
12    5  0.5041746E-008  0.1164866E+04  0.7818608E-02  0.9144178E-01
          1   -1    0    0  501    0  0.00000000000E+00  0.00000000000E+00  0.13786100391E+04  0.13786100391E+04  0.00000000000E+00 0. -1.
         -2   -1    0    0    0  501 -0.00000000000E+00 -0.00000000000E+00 -0.24606528816E+03  0.24606528816E+03  0.00000000000E+00 0.  1.
        -24    2    1    2    0    0 -0.13839891194E+03 -0.16238132365E+03  0.30349725959E+03  0.37784894386E+03  0.71674854052E+02 0.  0.
        254    2    1    2    0    0  0.13839891194E+03  0.16238132365E+03  0.82904749135E+03  0.12468263834E+04  0.90649563392E+03 0.  0.
         23    2    4    4    0    0 -0.35107661106E+02 -0.22712056367E+03 -0.63295831806E+02  0.25356737083E+03  0.86450858391E+02 0.  0.
         23    2    4    4    0    0  0.17350657305E+03  0.38950188732E+03  0.89234332315E+03  0.99325901256E+03  0.92035908883E+02 0.  0.
          1    1    3    3  502    0 -0.13397648737E+03 -0.16641926157E+03  0.27244459371E+03  0.34622409857E+03  0.00000000000E+00 0. -1.
         -2    1    3    3    0  502 -0.44224245719E+01  0.40379379162E+01  0.31052665875E+02  0.31624845290E+02  0.00000000000E+00 0.  1.
         13    1    5    5    0    0 -0.15549006307E+02  0.19087145652E+01 -0.46463429543E+01  0.16340235350E+02  0.00000000000E+00 0.  1.
        -13    1    5    5    0    0 -0.19558654799E+02 -0.22902927824E+03 -0.58649488851E+02  0.23722713549E+03  0.00000000000E+00 0. -1.
          1    1    6    6  503    0  0.14256537805E+03  0.34612788443E+03  0.70164706368E+03  0.79525970686E+03  0.00000000000E+00 0. -1.
         -1    1    6    6    0  503  0.30941194999E+02  0.43374002899E+02  0.19069625948E+03  0.19799930569E+03  0.00000000000E+00 0.  1.
<mgrwt>
<rscale>  0 0.11648658E+04</rscale>
<asrwt>0</asrwt>
<pdfrwt beam="1">  1        1 0.21209385E+00 0.11648658E+04</pdfrwt>
<pdfrwt beam="2">  1       -2 0.37856199E-01 0.11648658E+04</pdfrwt>
<totfact> 0.45580489E+01</totfact>
</mgrwt>
</event>
<event>
12    5  0.5041746E-008  0.2412644E+04  0.7818608E-02  0.8434785E-01
          1   -1    0    0  501    0  0.00000000000E+00  0.00000000000E+00  0.11353833368E+04  0.11353833368E+04  0.00000000000E+00 0. -1.
         -2   -1    0    0    0  501 -0.00000000000E+00 -0.00000000000E+00 -0.12816924627E+04  0.12816924627E+04  0.00000000000E+00 0.  1.
        -24    2    1    2    0    0 -0.56107704600E+03 -0.55082123986E+03  0.61224075497E+03  0.99969660738E+03  0.79643423673E+02 0.  0.
        254    2    1    2    0    0  0.56107704600E+03  0.55082123986E+03 -0.75854988083E+03  0.14173791922E+04  0.90296974637E+03 0.  0.
         23    2    4    4    0    0  0.10435741927E+03  0.30981796269E+02  0.19139660159E+03  0.23862684561E+03  0.91977006311E+02 0.  0.
         23    2    4    4    0    0  0.45671962673E+03  0.51983944359E+03 -0.94994648242E+03  0.11787523466E+04  0.90735387276E+02 0.  0.
          1    1    3    3  502    0 -0.44886572789E+03 -0.47212509086E+03  0.47943270566E+03  0.80884996282E+03  0.00000000000E+00 0. -1.
         -2    1    3    3    0  502 -0.11221131812E+03 -0.78696148996E+02  0.13280804931E+03  0.19084664457E+03  0.00000000000E+00 0.  1.
         13    1    5    5    0    0  0.80677253386E+01  0.84427669545E+01 -0.92737222146E+01  0.14912090051E+02  0.00000000000E+00 0.  1.
        -13    1    5    5    0    0  0.96289693931E+02  0.22539029315E+02  0.20067032380E+03  0.22371475556E+03  0.00000000000E+00 0. -1.
          3    1    6    6  503    0  0.22209100816E+03  0.22898751765E+03 -0.50966347835E+03  0.60126247206E+03  0.00000000000E+00 0. -1.
         -3    1    6    6    0  503  0.23462861857E+03  0.29085192593E+03 -0.44028300406E+03  0.57748987449E+03  0.00000000000E+00 0.  1.
<mgrwt>
<rscale>  0 0.24126436E+04</rscale>
<asrwt>0</asrwt>
<pdfrwt beam="1">  1        1 0.17467436E+00 0.24126436E+04</pdfrwt>
<pdfrwt beam="2">  1       -2 0.19718346E+00 0.24126436E+04</pdfrwt>
<totfact> 0.13000380E+00</totfact>
</mgrwt>
</event>
<event>
12    5  0.5041746E-008  0.1894559E+04  0.7818608E-02  0.8657570E-01
          1   -1    0    0  501    0  0.00000000000E+00  0.00000000000E+00  0.47541299162E+03  0.47541299162E+03  0.00000000000E+00 0. -1.
         -2   -1    0    0    0  501 -0.00000000000E+00 -0.00000000000E+00 -0.18874915165E+04  0.18874915165E+04  0.00000000000E+00 0.  1.
        -24    2    1    2    0    0 -0.60305919627E+03 -0.22296463121E+03 -0.92448814360E+02  0.65441080829E+03  0.79455029769E+02 0.  0.
        254    2    1    2    0    0  0.60305919627E+03  0.22296463121E+03 -0.13196297106E+04  0.17084936999E+04  0.87414788711E+03 0.  0.
         23    2    4    4    0    0 -0.18198588210E+03 -0.10491142263E+03 -0.29263597865E+03  0.37176248362E+03  0.91903538264E+02 0.  0.
         23    2    4    4    0    0  0.78504507837E+03  0.32787605384E+03 -0.10269937319E+04  0.13367312162E+04  0.91300259327E+02 0.  0.
          3    1    3    3  502    0 -0.17113724867E+03 -0.64454398844E+02  0.96591436460E+01  0.18312735041E+03  0.00000000000E+00 0. -1.
         -4    1    3    3    0  502 -0.43192194760E+03 -0.15851023236E+03 -0.10210795801E+03  0.47128345788E+03  0.00000000000E+00 0.  1.
         13    1    5    5    0    0 -0.52545781787E+02 -0.50954843517E+02 -0.41542145427E+02  0.84161779379E+02  0.00000000000E+00 0.  1.
        -13    1    5    5    0    0 -0.12944010032E+03 -0.53956579116E+02 -0.25109383322E+03  0.28760070424E+03  0.00000000000E+00 0. -1.
          4    1    6    6  503    0  0.59606224481E+03  0.21059943348E+03 -0.72988817801E+03  0.96559778038E+03  0.00000000000E+00 0. -1.
         -4    1    6    6    0  503  0.18898283357E+03  0.11727662036E+03 -0.29710555389E+03  0.37113343587E+03  0.00000000000E+00 0.  1.
<mgrwt>
<rscale>  0 0.18945585E+04</rscale>
<asrwt>0</asrwt>
<pdfrwt beam="1">  1        1 0.73140461E-01 0.18945585E+04</pdfrwt>
<pdfrwt beam="2">  1       -2 0.29038331E+00 0.18945585E+04</pdfrwt>
<totfact> 0.14177301E+00</totfact>
</mgrwt>
</event>
<event>
12    5  0.5041746E-008  0.2393294E+04  0.7818608E-02  0.8442019E-01
          1   -1    0    0  501    0  0.00000000000E+00  0.00000000000E+00  0.15934103777E+04  0.15934103777E+04  0.00000000000E+00 0. -1.
         -2   -1    0    0    0  501 -0.00000000000E+00 -0.00000000000E+00 -0.89867861474E+03  0.89867861474E+03  0.00000000000E+00 0.  1.
        -24    2    1    2    0    0 -0.58357862176E+03 -0.54761979127E+03  0.96944714023E+03  0.12595102519E+04  0.78018416847E+02 0.  0.
        254    2    1    2    0    0  0.58357862176E+03  0.54761979127E+03 -0.27471537730E+03  0.12325787405E+04  0.89628699058E+03 0.  0.
         23    2    4    4    0    0  0.61316975262E+03  0.74855525901E+03 -0.27095882902E+03  0.10090848197E+04  0.92311240342E+02 0.  0.
         23    2    4    4    0    0 -0.29591130863E+02 -0.20093546773E+03 -0.37565482797E+01  0.22349392077E+03  0.93191865244E+02 0.  0.
          1    1    3    3  502    0 -0.50427770487E+03 -0.49290242231E+03  0.81769166832E+03  0.10797538914E+04  0.00000000000E+00 0. -1.
         -4    1    3    3    0  502 -0.79300916889E+02 -0.54717368965E+02  0.15175547191E+03  0.17975636050E+03  0.00000000000E+00 0.  1.
         13    1    5    5    0    0  0.44877710204E+03  0.60806710035E+03 -0.20695031974E+03  0.78356551780E+03  0.00000000000E+00 0. -1.
        -13    1    5    5    0    0  0.16439265059E+03  0.14048815865E+03 -0.64008509282E+02  0.22551930195E+03  0.00000000000E+00 0.  1.
          1    1    6    6  503    0 -0.54904240707E+02 -0.17885679894E+03 -0.15920266170E+02  0.18777029863E+03  0.00000000000E+00 0. -1.
         -1    1    6    6    0  503  0.25313109844E+02 -0.22078668798E+02  0.12163717890E+02  0.35723622139E+02  0.00000000000E+00 0.  1.
<mgrwt>
<rscale>  0 0.23932938E+04</rscale>
<asrwt>0</asrwt>
<pdfrwt beam="1">  1        1 0.24514006E+00 0.23932938E+04</pdfrwt>
<pdfrwt beam="2">  1       -2 0.13825825E+00 0.23932938E+04</pdfrwt>
<totfact> 0.16473694E+00</totfact>
</mgrwt>
</event>
<event>
12    5  0.5041746E-008  0.1752885E+04  0.7818608E-02  0.8731764E-01
          1   -1    0    0  501    0  0.00000000000E+00  0.00000000000E+00  0.13747757320E+04  0.13747757320E+04  0.00000000000E+00 0. -1.
         -2   -1    0    0    0  501 -0.00000000000E+00 -0.00000000000E+00 -0.55874682304E+03  0.55874682304E+03  0.00000000000E+00 0.  1.
        -24    2    1    2    0    0  0.62489289840E+03 -0.81990221497E+02  0.45781871750E+03  0.78327798738E+03  0.81932268031E+02 0.  0.
        254    2    1    2    0    0 -0.62489289840E+03  0.81990221497E+02  0.35821019146E+03  0.11502445676E+04  0.89304786728E+03 0.  0.
         23    2    4    4    0    0 -0.81775049137E+03 -0.63883289974E+00  0.14289067478E+03  0.83493794511E+03  0.89371992256E+02 0.  0.
         23    2    4    4    0    0  0.19285759297E+03  0.82629054396E+02  0.21531951669E+03  0.31530662254E+03  0.95048199107E+02 0.  0.
          3    1    3    3  502    0  0.14864283845E+03 -0.10395633118E+02  0.68500054753E+02  0.16399701251E+03  0.00000000000E+00 0. -1.
         -4    1    3    3    0  502  0.47625005994E+03 -0.71594588378E+02  0.38931866274E+03  0.61928097487E+03  0.00000000000E+00 0.  1.
         13    1    5    5    0    0 -0.48193425068E+03 -0.36270528955E+02  0.10985083163E+03  0.49562423111E+03  0.00000000000E+00 0. -1.
        -13    1    5    5    0    0 -0.33581624069E+03  0.35631696056E+02  0.33039843146E+02  0.33931371400E+03  0.00000000000E+00 0.  1.
          3    1    6    6  503    0  0.19725207891E+02  0.37936658129E+02  0.11718562924E+02  0.44335071596E+02  0.00000000000E+00 0. -1.
         -3    1    6    6    0  503  0.17313238508E+03  0.44692396267E+02  0.20360095376E+03  0.27097155094E+03  0.00000000000E+00 0.  1.
<mgrwt>
<rscale>  0 0.17528851E+04</rscale>
<asrwt>0</asrwt>
<pdfrwt beam="1">  1        1 0.21150396E+00 0.17528851E+04</pdfrwt>
<pdfrwt beam="2">  1       -2 0.85961050E-01 0.17528851E+04</pdfrwt>
<totfact> 0.78131999E+00</totfact>
</mgrwt>
</event>
<event>
12    5  0.5041746E-008  0.1950924E+04  0.7818608E-02  0.8629915E-01
          1   -1    0    0  501    0  0.00000000000E+00  0.00000000000E+00  0.31110990652E+04  0.31110990652E+04  0.00000000000E+00 0. -1.
         -2   -1    0    0    0  501 -0.00000000000E+00 -0.00000000000E+00 -0.30584881555E+03  0.30584881555E+03  0.00000000000E+00 0.  1.
        -24    2    1    2    0    0  0.24406527477E+03  0.70252969087E+03  0.13704340508E+04  0.15612718429E+04  0.79777534002E+02 0.  0.
        254    2    1    2    0    0 -0.24406527477E+03 -0.70252969087E+03  0.14348161988E+04  0.18556760378E+04  0.91198695610E+03 0.  0.
         23    2    4    4    0    0 -0.52046798310E+03 -0.26137183268E+03  0.10416482456E+04  0.11969284728E+04  0.91676306499E+02 0.  0.
         23    2    4    4    0    0  0.27640270833E+03 -0.44115785820E+03  0.39316795325E+03  0.65874756503E+03  0.91370684265E+02 0.  0.
          3    1    3    3  502    0  0.19653237003E+03  0.54969011579E+03  0.11389371277E+04  0.12798288857E+04  0.00000000000E+00 0. -1.
         -4    1    3    3    0  502  0.47532904739E+02  0.15283957508E+03  0.23149692319E+03  0.28144295726E+03  0.00000000000E+00 0.  1.
         13    1    5    5    0    0 -0.33771606136E+03 -0.21046744808E+03  0.65874698078E+03  0.76960786736E+03  0.00000000000E+00 0. -1.
        -13    1    5    5    0    0 -0.18275192174E+03 -0.50904384592E+02  0.38290126479E+03  0.42732060545E+03  0.00000000000E+00 0.  1.
          2    1    6    6  503    0  0.25107891535E+02 -0.92135646387E+01  0.83252919924E+01  0.28010827860E+02  0.00000000000E+00 0. -1.
         -2    1    6    6    0  503  0.25129481680E+03 -0.43194429356E+03  0.38484266126E+03  0.63073673717E+03  0.00000000000E+00 0.  1.
<mgrwt>
<rscale>  0 0.19509238E+04</rscale>
<asrwt>0</asrwt>
<pdfrwt beam="1">  1        1 0.47863060E+00 0.19509238E+04</pdfrwt>
<pdfrwt beam="2">  1       -2 0.47053666E-01 0.19509238E+04</pdfrwt>
<totfact> 0.17396409E+00</totfact>
</mgrwt>
</event>
<event>
12    5  0.5041746E-008  0.1441774E+04  0.7818608E-02  0.8924123E-01
          1   -1    0    0  501    0  0.00000000000E+00  0.00000000000E+00  0.40347507531E+03  0.40347507531E+03  0.00000000000E+00 0. -1.
         -2   -1    0    0    0  501 -0.00000000000E+00 -0.00000000000E+00 -0.12880057722E+04  0.12880057722E+04  0.00000000000E+00 0.  1.
        -24    2    1    2    0    0  0.39407638593E+03 -0.62727876822E+02 -0.61684698615E+02  0.41173380621E+03  0.80552719739E+02 0.  0.
        254    2    1    2    0    0 -0.39407638593E+03  0.62727876822E+02 -0.82284599824E+03  0.12797470413E+04  0.89523514694E+03 0.  0.
         23    2    4    4    0    0 -0.29917696836E+03 -0.24938856002E+03 -0.84989748043E+03  0.93946665887E+03  0.92576258360E+02 0.  0.
         23    2    4    4    0    0 -0.94899417570E+02  0.31211643684E+03  0.27051482192E+02  0.34028038239E+03  0.92932159921E+02 0.  0.
          1    1    3    3  502    0  0.18265413404E+03 -0.65352679620E+02 -0.10999896963E+02  0.19430518045E+03  0.00000000000E+00 0. -1.
         -2    1    3    3    0  502  0.21142225189E+03  0.26248027982E+01 -0.50684801651E+02  0.21742862577E+03  0.00000000000E+00 0.  1.
         13    1    5    5    0    0 -0.30613185939E+03 -0.24361658762E+03 -0.82804620147E+03  0.91581999807E+03  0.00000000000E+00 0.  1.
        -13    1    5    5    0    0  0.69548910272E+01 -0.57719724039E+01 -0.21851278962E+02  0.23646660798E+02  0.00000000000E+00 0. -1.
          1    1    6    6  503    0 -0.49014260288E+02  0.42798022967E+02  0.15214536688E+02  0.66824775406E+02  0.00000000000E+00 0. -1.
         -1    1    6    6    0  503 -0.45885157282E+02  0.26931841388E+03  0.11836945504E+02  0.27345560698E+03  0.00000000000E+00 0.  1.
<mgrwt>
<rscale>  0 0.14417742E+04</rscale>
<asrwt>0</asrwt>
<pdfrwt beam="1">  1        1 0.62073090E-01 0.14417742E+04</pdfrwt>
<pdfrwt beam="2">  1       -2 0.19815473E+00 0.14417742E+04</pdfrwt>
<totfact> 0.68832988E+00</totfact>
</mgrwt>
</event>
<event>
12    5  0.5041746E-008  0.1193262E+04  0.7818608E-02  0.9118775E-01
         -2   -1    0    0    0  501 -0.00000000000E+00  0.00000000000E+00  0.16796279164E+03  0.16796279164E+03  0.00000000000E+00 0.  1.
          1   -1    0    0  501    0  0.00000000000E+00 -0.00000000000E+00 -0.21193281329E+04  0.21193281329E+04  0.00000000000E+00 0. -1.
        -24    2    1    2    0    0  0.16109702313E+02  0.83597008112E+02  0.20925510023E+02  0.11799545768E+03  0.78975115004E+02 0.  0.
        254    2    1    2    0    0 -0.16109702313E+02 -0.83597008112E+02 -0.19722908513E+04  0.21692954669E+04  0.89925727033E+03 0.  0.
         23    2    4    4    0    0  0.36910680213E+03 -0.20203034908E+02 -0.15119522796E+04  0.15592630499E+04  0.93024561317E+02 0.  0.
         23    2    4    4    0    0 -0.38521650445E+03 -0.63393973204E+02 -0.46033857170E+03  0.61003241698E+03  0.88416050771E+02 0.  0.
          1    1    3    3  502    0  0.47375664538E+02  0.48621190184E+02  0.21074859065E+02  0.71081807869E+02  0.00000000000E+00 0. -1.
         -2    1    3    3    0  502 -0.31265962225E+02  0.34975817928E+02 -0.14934904214E+00  0.46913649812E+02  0.00000000000E+00 0.  1.
         13    1    5    5    0    0  0.37864375139E+02 -0.11052481434E+01 -0.31176715910E+03  0.31406001651E+03  0.00000000000E+00 0. -1.
        -13    1    5    5    0    0  0.33124242699E+03 -0.19097786764E+02 -0.12001851205E+04  0.12452030334E+04  0.00000000000E+00 0.  1.
          2    1    6    6  503    0 -0.36345353332E+03 -0.79991491889E+02 -0.41848248866E+03  0.56002205579E+03  0.00000000000E+00 0.  1.
         -2    1    6    6    0  503 -0.21762971126E+02  0.16597518685E+02 -0.41856083036E+02  0.50010361185E+02  0.00000000000E+00 0. -1.
<mgrwt>
<rscale>  0 0.11932615E+04</rscale>
<asrwt>0</asrwt>
<pdfrwt beam="1">  1        1 0.32605047E+00 0.11932615E+04</pdfrwt>
<pdfrwt beam="2">  1       -2 0.25840430E-01 0.11932615E+04</pdfrwt>
<totfact> 0.29114452E+01</totfact>
</mgrwt>
</event>
<event>
12    5  0.5041746E-008  0.1164406E+04  0.7818608E-02  0.9144596E-01
         -4   -1    0    0    0  501 -0.00000000000E+00  0.00000000000E+00  0.44336228084E+03  0.44336228084E+03  0.00000000000E+00 0.  1.
          3   -1    0    0  501    0  0.00000000000E+00 -0.00000000000E+00 -0.76452163309E+03  0.76452163309E+03  0.00000000000E+00 0. -1.
        -24    2    1    2    0    0  0.14044408136E+03  0.57116653205E+02 -0.23871686283E+03  0.29501873270E+03  0.84044392916E+02 0.  0.
        254    2    1    2    0    0 -0.14044408136E+03 -0.57116653205E+02 -0.82442489414E+02  0.91286518124E+03  0.89640349341E+03 0.  0.
         23    2    4    4    0    0 -0.23992895162E+03  0.13780134527E+03  0.32827701920E+03  0.43869327479E+03  0.90171366986E+02 0.  0.
         23    2    4    4    0    0  0.99484870264E+02 -0.19491799847E+03 -0.41071950862E+03  0.47417190645E+03  0.90874730071E+02 0.  0.
          3    1    3    3  502    0 -0.78027790121E+01 -0.19110375932E+01 -0.36782656162E+02  0.37649690826E+02  0.00000000000E+00 0. -1.
         -4    1    3    3    0  502  0.14824686037E+03  0.59027690798E+02 -0.20193420667E+03  0.25736904187E+03  0.00000000000E+00 0.  1.
         13    1    5    5    0    0  0.19028181741E+01  0.12814261183E+02  0.40679062467E+02  0.42692061673E+02  0.00000000000E+00 0.  1.
        -13    1    5    5    0    0 -0.24183176980E+03  0.12498708409E+03  0.28759795674E+03  0.39600121312E+03  0.00000000000E+00 0. -1.
          3    1    6    6  503    0  0.51977854007E+02 -0.27745957787E+02 -0.68511326884E+02  0.90362256457E+02  0.00000000000E+00 0. -1.
         -3    1    6    6    0  503  0.47507016258E+02 -0.16717204069E+03 -0.34220818173E+03  0.38380964999E+03  0.00000000000E+00 0.  1.
<mgrwt>
<rscale>  0 0.11644055E+04</rscale>
<asrwt>0</asrwt>
<pdfrwt beam="1">  1        3 0.11761871E+00 0.11644055E+04</pdfrwt>
<pdfrwt beam="2">  1       -4 0.68209582E-01 0.11644055E+04</pdfrwt>
<totfact> 0.26678223E+00</totfact>
</mgrwt>
</event>
<event>
12    5  0.5041746E-008  0.1498761E+04  0.7818608E-02  0.8885277E-01
         -2   -1    0    0    0  501 -0.00000000000E+00  0.00000000000E+00  0.13193431791E+04  0.13193431791E+04  0.00000000000E+00 0.  1.
          1   -1    0    0  501    0  0.00000000000E+00 -0.00000000000E+00 -0.42564433944E+03  0.42564433944E+03  0.00000000000E+00 0. -1.
        -24    2    1    2    0    0 -0.30396768450E+02 -0.34112459127E+03 -0.10629023328E+03  0.36735763999E+03  0.79775131871E+02 0.  0.
        254    2    1    2    0    0  0.30396768450E+02  0.34112459127E+03  0.99998907291E+03  0.13776298785E+04  0.88351343280E+03 0.  0.
         23    2    4    4    0    0 -0.26934169791E+03  0.83546273046E+02 -0.23472138554E+01  0.29657935643E+03  0.91808906287E+02 0.  0.
         23    2    4    4    0    0  0.29973846636E+03  0.25757831823E+03  0.10023362868E+04  0.10810505221E+04  0.88331541952E+02 0.  0.
          1    1    3    3  502    0 -0.14738395011E+02 -0.22522525647E+03 -0.10839605338E+03  0.25038638307E+03  0.00000000000E+00 0. -1.
         -2    1    3    3    0  502 -0.15658373439E+02 -0.11589933480E+03  0.21058201003E+01  0.11697125692E+03  0.00000000000E+00 0.  1.
         13    1    5    5    0    0 -0.15691585505E+03  0.52715587861E+02  0.43752761750E+02  0.17121864072E+03  0.00000000000E+00 0. -1.
        -13    1    5    5    0    0 -0.11242584286E+03  0.30830685185E+02 -0.46099975606E+02  0.12536071571E+03  0.00000000000E+00 0.  1.
          4    1    6    6  503    0  0.23064548397E+03  0.14794752601E+03  0.63804319915E+03  0.69439537276E+03  0.00000000000E+00 0. -1.
         -4    1    6    6    0  503  0.69092982389E+02  0.10963079222E+03  0.36429308762E+03  0.38665514933E+03  0.00000000000E+00 0.  1.
<mgrwt>
<rscale>  0 0.14987608E+04</rscale>
<asrwt>0</asrwt>
<pdfrwt beam="1">  1        1 0.65483745E-01 0.14987608E+04</pdfrwt>
<pdfrwt beam="2">  1       -2 0.20297587E+00 0.14987608E+04</pdfrwt>
<totfact> 0.59314381E+00</totfact>
</mgrwt>
</event>
<event>
12    5  0.5041746E-008  0.2735510E+04  0.7818608E-02  0.8323574E-01
          1   -1    0    0  501    0  0.00000000000E+00  0.00000000000E+00  0.18403919988E+04  0.18403919988E+04  0.00000000000E+00 0. -1.
         -2   -1    0    0    0  501 -0.00000000000E+00 -0.00000000000E+00 -0.10164973029E+04  0.10164973029E+04  0.00000000000E+00 0.  1.
        -24    2    1    2    0    0 -0.25622048656E+03 -0.83871666281E+03  0.12551469166E+04  0.15333284275E+04  0.81287798432E+02 0.  0.
        254    2    1    2    0    0  0.25622048656E+03  0.83871666281E+03 -0.43125222063E+03  0.13235608743E+04  0.89260312114E+03 0.  0.
         23    2    4    4    0    0  0.16057874494E+03  0.80973440283E+03  0.41804064910E+02  0.83152715728E+03  0.90744129220E+02 0.  0.
         23    2    4    4    0    0  0.95641741612E+02  0.28982259978E+02 -0.47305628554E+03  0.49203371699E+03  0.91255768182E+02 0.  0.
          3    1    3    3  502    0 -0.12613810488E+03 -0.46203509837E+03  0.61879021158E+03  0.78248870891E+03  0.00000000000E+00 0. -1.
         -4    1    3    3    0  502 -0.13008238167E+03 -0.37668156445E+03  0.63635670499E+03  0.75083971858E+03  0.00000000000E+00 0.  1.
         13    1    5    5    0    0  0.16015305754E+03  0.79490194951E+03  0.53493280552E+02  0.81263746051E+03  0.00000000000E+00 0. -1.
        -13    1    5    5    0    0  0.42568740367E+00  0.14832453327E+02 -0.11689215642E+02  0.18889696763E+02  0.00000000000E+00 0.  1.
          4    1    6    6  503    0  0.89115658856E+02  0.57314018055E+02 -0.38415539815E+03  0.39849951975E+03  0.00000000000E+00 0. -1.
         -4    1    6    6    0  503  0.65260827556E+01 -0.28331758076E+02 -0.88900887396E+02  0.93534197231E+02  0.00000000000E+00 0.  1.
<mgrwt>
<rscale>  0 0.27355098E+04</rscale>
<asrwt>0</asrwt>
<pdfrwt beam="1">  1        1 0.28313723E+00 0.27355098E+04</pdfrwt>
<pdfrwt beam="2">  1       -2 0.15638420E+00 0.27355098E+04</pdfrwt>
<totfact> 0.78413533E-01</totfact>
</mgrwt>
</event>
<event>
12    5  0.5041746E-008  0.2043106E+04  0.7818608E-02  0.8586728E-01
          1   -1    0    0  501    0  0.00000000000E+00  0.00000000000E+00  0.15521397626E+04  0.15521397626E+04  0.00000000000E+00 0. -1.
         -2   -1    0    0    0  501 -0.00000000000E+00 -0.00000000000E+00 -0.67234307670E+03  0.67234307670E+03  0.00000000000E+00 0.  1.
        -24    2    1    2    0    0  0.41075957981E+03  0.64938750317E+03  0.66509073112E+03  0.10193561213E+04  0.79458541134E+02 0.  0.
        254    2    1    2    0    0 -0.41075957981E+03 -0.64938750317E+03  0.21470595483E+03  0.12051267180E+04  0.90321879840E+03 0.  0.
         23    2    4    4    0    0 -0.61647036840E+03 -0.69479685893E+03  0.26502893476E+03  0.97004774330E+03  0.89296683734E+02 0.  0.
         23    2    4    4    0    0  0.20571078859E+03  0.45409355759E+02 -0.50322979931E+02  0.23507897473E+03  0.91382623722E+02 0.  0.
          1    1    3    3  502    0  0.40271625142E+03  0.60129323059E+03  0.62538699773E+03  0.95647416340E+03  0.00000000000E+00 0. -1.
         -2    1    3    3    0  502  0.80433283888E+01  0.48094272583E+02  0.39703733389E+02  0.62881957920E+02  0.00000000000E+00 0.  1.
         13    1    5    5    0    0 -0.11863501998E+03 -0.17235766145E+03  0.88043365686E+02  0.22700895504E+03  0.00000000000E+00 0.  1.
        -13    1    5    5    0    0 -0.49783534842E+03 -0.52243919748E+03  0.17698556908E+03  0.74303878826E+03  0.00000000000E+00 0. -1.
          4    1    6    6  503    0  0.21258297762E+03  0.41632586188E+02 -0.37200935939E+02  0.21979241170E+03  0.00000000000E+00 0. -1.
         -4    1    6    6    0  503 -0.68721890365E+01  0.37767695704E+01 -0.13122043992E+02  0.15286563023E+02  0.00000000000E+00 0.  1.
<mgrwt>
<rscale>  0 0.20431059E+04</rscale>
<asrwt>0</asrwt>
<pdfrwt beam="1">  1        1 0.23879073E+00 0.20431059E+04</pdfrwt>
<pdfrwt beam="2">  1       -2 0.10343740E+00 0.20431059E+04</pdfrwt>
<totfact> 0.37217707E+00</totfact>
</mgrwt>
</event>
<event>
12    5  0.5041746E-008  0.3878613E+04  0.7818608E-02  0.8029492E-01
          1   -1    0    0  501    0  0.00000000000E+00  0.00000000000E+00  0.16936838912E+04  0.16936838912E+04  0.00000000000E+00 0. -1.
         -2   -1    0    0    0  501 -0.00000000000E+00 -0.00000000000E+00 -0.22205494726E+04  0.22205494726E+04  0.00000000000E+00 0.  1.
        -24    2    1    2    0    0  0.89861082839E+03 -0.46474396050E+02  0.13619427793E+04  0.16344663405E+04  0.83251388344E+02 0.  0.
        254    2    1    2    0    0 -0.89861082839E+03  0.46474396050E+02 -0.18888083607E+04  0.22797670233E+04  0.90558233550E+03 0.  0.
         23    2    4    4    0    0  0.42513202569E+02 -0.24953332190E+03 -0.56716926857E+03  0.62804311168E+03  0.93182185982E+02 0.  0.
         23    2    4    4    0    0 -0.94112403096E+03  0.29600771795E+03 -0.13216390922E+04  0.16517239116E+04  0.90149760997E+02 0.  0.
          1    1    3    3  502    0  0.82897174885E+03 -0.23753650000E+02  0.12720194823E+04  0.15184834407E+04  0.00000000000E+00 0. -1.
         -2    1    3    3    0  502  0.69639079538E+02 -0.22720746050E+02  0.89923297015E+02  0.11598289980E+03  0.00000000000E+00 0.  1.
         13    1    5    5    0    0  0.43037433446E+02 -0.20916935672E+03 -0.53621224059E+03  0.57717207783E+03  0.00000000000E+00 0. -1.
        -13    1    5    5    0    0 -0.52423087689E+00 -0.40363965183E+02 -0.30957027974E+02  0.50871033843E+02  0.00000000000E+00 0.  1.
          4    1    6    6  503    0 -0.79079501072E+03  0.24992006541E+03 -0.11624594236E+04  0.14279806370E+04  0.00000000000E+00 0. -1.
         -4    1    6    6    0  503 -0.15032902024E+03  0.46087652543E+02 -0.15917966854E+03  0.22374327458E+03  0.00000000000E+00 0.  1.
<mgrwt>
<rscale>  0 0.38786126E+04</rscale>
<asrwt>0</asrwt>
<pdfrwt beam="1">  1        1 0.26056675E+00 0.38786126E+04</pdfrwt>
<pdfrwt beam="2">  1       -2 0.34162300E+00 0.38786126E+04</pdfrwt>
<totfact> 0.58695079E-02</totfact>
</mgrwt>
</event>
<event>
12    5  0.5041746E-008  0.2326809E+04  0.7818608E-02  0.8467425E-01
         -2   -1    0    0    0  501 -0.00000000000E+00  0.00000000000E+00  0.17099560878E+04  0.17099560878E+04  0.00000000000E+00 0.  1.
          1   -1    0    0  501    0  0.00000000000E+00 -0.00000000000E+00 -0.79154678165E+03  0.79154678165E+03  0.00000000000E+00 0. -1.
        -24    2    1    2    0    0  0.44062213851E+03 -0.29928913409E+03  0.12875860647E+04  0.13956479223E+04  0.78951847949E+02 0.  0.
        254    2    1    2    0    0 -0.44062213851E+03  0.29928913409E+03 -0.36917675864E+03  0.11058549471E+04  0.89604789498E+03 0.  0.
         23    2    4    4    0    0  0.15195475717E+03  0.15648254487E+03 -0.42561381354E+03  0.48683951988E+03  0.91041555156E+02 0.  0.
         23    2    4    4    0    0 -0.59257689568E+03  0.14280658921E+03  0.56437054901E+02  0.61901542718E+03  0.91944867759E+02 0.  0.
          3    1    3    3  502    0  0.87303179266E+02 -0.24597187562E+02  0.23279626531E+03  0.24984188578E+03  0.00000000000E+00 0. -1.
         -4    1    3    3    0  502  0.35331895924E+03 -0.27469194652E+03  0.10547897994E+04  0.11458060366E+04  0.00000000000E+00 0.  1.
         13    1    5    5    0    0  0.22970980106E+02  0.76372720647E+02 -0.19555293127E+03  0.21119045270E+03  0.00000000000E+00 0. -1.
        -13    1    5    5    0    0  0.12898377707E+03  0.80109824226E+02 -0.23006088227E+03  0.27564906718E+03  0.00000000000E+00 0.  1.
          1    1    6    6  503    0 -0.34766019493E+03  0.71112385198E+02  0.76578325303E+02  0.36302730252E+03  0.00000000000E+00 0. -1.
         -1    1    6    6    0  503 -0.24491670074E+03  0.71694204015E+02 -0.20141270402E+02  0.25598812466E+03  0.00000000000E+00 0.  1.
<mgrwt>
<rscale>  0 0.23268092E+04</rscale>
<asrwt>0</asrwt>
<pdfrwt beam="1">  1        1 0.12177643E+00 0.23268092E+04</pdfrwt>
<pdfrwt beam="2">  1       -2 0.26307017E+00 0.23268092E+04</pdfrwt>
<totfact> 0.94982962E-01</totfact>
</mgrwt>
</event>
<event>
12    5  0.5041746E-008  0.1211948E+04  0.7818608E-02  0.9102463E-01
          1   -1    0    0  501    0  0.00000000000E+00  0.00000000000E+00  0.46750170438E+03  0.46750170438E+03  0.00000000000E+00 0. -1.
         -2   -1    0    0    0  501 -0.00000000000E+00 -0.00000000000E+00 -0.78546083742E+03  0.78546083742E+03  0.00000000000E+00 0.  1.
        -24    2    1    2    0    0 -0.11000747739E+03  0.20980266841E+02  0.16774914710E+03  0.21671105264E+03  0.79259619637E+02 0.  0.
        254    2    1    2    0    0  0.11000747739E+03 -0.20980266841E+02 -0.48570828014E+03  0.10362514892E+04  0.90849479840E+03 0.  0.
         23    2    4    4    0    0 -0.40681668176E+02  0.41212948291E+03 -0.34934360462E+03  0.54928488677E+03  0.90372694644E+02 0.  0.
         23    2    4    4    0    0  0.15068914556E+03 -0.43310974975E+03 -0.13636467552E+03  0.48696660240E+03  0.90828812636E+02 0.  0.
          1    1    3    3  502    0 -0.52027351921E+02 -0.24046251627E+02  0.10716538950E+03  0.12152978347E+03  0.00000000000E+00 0. -1.
         -2    1    3    3    0  502 -0.57980125465E+02  0.45026518469E+02  0.60583757604E+02  0.95181269165E+02  0.00000000000E+00 0.  1.
         13    1    5    5    0    0 -0.57395683337E+01  0.34720446911E+03 -0.26213098457E+03  0.43508222107E+03  0.00000000000E+00 0. -1.
        -13    1    5    5    0    0 -0.34942099842E+02  0.64925013792E+02 -0.87212620048E+02  0.11420266570E+03  0.00000000000E+00 0.  1.
          4    1    6    6  503    0  0.66290934168E+02 -0.31498033247E+03 -0.10350607249E+03  0.33811330178E+03  0.00000000000E+00 0. -1.
         -4    1    6    6    0  503  0.84398211394E+02 -0.11812941728E+03 -0.32858603024E+02  0.14885330062E+03  0.00000000000E+00 0.  1.
<mgrwt>
<rscale>  0 0.12119477E+04</rscale>
<asrwt>0</asrwt>
<pdfrwt beam="1">  1        1 0.71923340E-01 0.12119477E+04</pdfrwt>
<pdfrwt beam="2">  1       -2 0.12084013E+00 0.12119477E+04</pdfrwt>
<totfact> 0.21923196E+01</totfact>
</mgrwt>
</event>
<event>
12    5  0.5041746E-008  0.1794120E+04  0.7818608E-02  0.8709432E-01
          1   -1    0    0  501    0  0.00000000000E+00  0.00000000000E+00  0.12157698233E+04  0.12157698233E+04  0.00000000000E+00 0. -1.
         -2   -1    0    0    0  501 -0.00000000000E+00 -0.00000000000E+00 -0.66189905026E+03  0.66189905026E+03  0.00000000000E+00 0.  1.
        -24    2    1    2    0    0 -0.37862087056E+02 -0.63929725258E+03  0.87109076098E+01  0.64507186037E+03  0.76859028928E+02 0.  0.
        254    2    1    2    0    0  0.37862087056E+02  0.63929725258E+03  0.54515986545E+03  0.12325970132E+04  0.90108912062E+03 0.  0.
         23    2    4    4    0    0 -0.14505485479E+03  0.54486970056E+03 -0.71224670195E+02  0.57635716825E+03  0.95868296475E+02 0.  0.
         23    2    4    4    0    0  0.18291694185E+03  0.94427552027E+02  0.61638453564E+03  0.65623984496E+03  0.91354628454E+02 0.  0.
          1    1    3    3  502    0 -0.50812169651E+02 -0.42163495793E+03  0.31414002662E+02  0.42584592742E+03  0.00000000000E+00 0. -1.
         -2    1    3    3    0  502  0.12950082595E+02 -0.21766229465E+03 -0.22703095052E+02  0.21922593295E+03  0.00000000000E+00 0.  1.
         13    1    5    5    0    0 -0.12511477454E+03  0.29855250769E+03 -0.22606388063E+02  0.32449708078E+03  0.00000000000E+00 0.  1.
        -13    1    5    5    0    0 -0.19940080252E+02  0.24631719287E+03 -0.48618282132E+02  0.25186008747E+03  0.00000000000E+00 0. -1.
          3    1    6    6  503    0 -0.58250856005E+01  0.35540653711E+01  0.19784399835E+01  0.71047327665E+01  0.00000000000E+00 0. -1.
         -3    1    6    6    0  503  0.18874202745E+03  0.90873486656E+02  0.61440609566E+03  0.64913511219E+03  0.00000000000E+00 0.  1.
<mgrwt>
<rscale>  0 0.17941203E+04</rscale>
<asrwt>0</asrwt>
<pdfrwt beam="1">  1        1 0.18704151E+00 0.17941203E+04</pdfrwt>
<pdfrwt beam="2">  1       -2 0.10183062E+00 0.17941203E+04</pdfrwt>
<totfact> 0.68169903E+00</totfact>
</mgrwt>
</event>
<event>
12    5  0.5041746E-008  0.2123868E+04  0.7818608E-02  0.8550802E-01
         -2   -1    0    0    0  501 -0.00000000000E+00  0.00000000000E+00  0.92170338240E+03  0.92170338240E+03  0.00000000000E+00 0.  1.
          1   -1    0    0  501    0  0.00000000000E+00 -0.00000000000E+00 -0.12234995712E+04  0.12234995712E+04  0.00000000000E+00 0. -1.
        -24    2    1    2    0    0  0.94768937630E+02  0.20434988959E+03 -0.95345032010E+03  0.98292404582E+03  0.79574732396E+02 0.  0.
        254    2    1    2    0    0 -0.94768937630E+02 -0.20434988959E+03  0.65165413132E+03  0.11622789078E+04  0.93568110147E+03 0.  0.
         23    2    4    4    0    0 -0.23827263625E+03  0.59360745986E+02 -0.14993738209E+03  0.30156677400E+03  0.90353490728E+02 0.  0.
         23    2    4    4    0    0  0.14350369862E+03 -0.26371063557E+03  0.80159151341E+03  0.86071213376E+03  0.90220906642E+02 0.  0.
          1    1    3    3  502    0  0.54597167342E+02  0.11383772103E+03 -0.69045502760E+03  0.70190314328E+03  0.00000000000E+00 0. -1.
         -4    1    3    3    0  502  0.40171770288E+02  0.90512168560E+02 -0.26299529250E+03  0.28102090254E+03  0.00000000000E+00 0.  1.
         13    1    5    5    0    0 -0.15349884083E+03 -0.27933651065E+01 -0.11108730884E+03  0.18949957048E+03  0.00000000000E+00 0. -1.
        -13    1    5    5    0    0 -0.84773795412E+02  0.62154111093E+02 -0.38850073249E+02  0.11206720352E+03  0.00000000000E+00 0.  1.
          4    1    6    6  503    0  0.24312434561E+02 -0.96856314158E+02  0.36416461686E+03  0.37760840595E+03  0.00000000000E+00 0. -1.
         -4    1    6    6    0  503  0.11919126405E+03 -0.16685432141E+03  0.43742689655E+03  0.48310372781E+03  0.00000000000E+00 0.  1.
<mgrwt>
<rscale>  0 0.21238679E+04</rscale>
<asrwt>0</asrwt>
<pdfrwt beam="1">  1        1 0.18823070E+00 0.21238679E+04</pdfrwt>
<pdfrwt beam="2">  1       -2 0.14180052E+00 0.21238679E+04</pdfrwt>
<totfact> 0.28731719E+00</totfact>
</mgrwt>
</event>
<event>
12    5  0.5041746E-008  0.1754519E+04  0.7818608E-02  0.8730867E-01
         -2   -1    0    0    0  501 -0.00000000000E+00  0.00000000000E+00  0.11446245719E+04  0.11446245719E+04  0.00000000000E+00 0.  1.
          1   -1    0    0  501    0  0.00000000000E+00 -0.00000000000E+00 -0.67234625238E+03  0.67234625238E+03  0.00000000000E+00 0. -1.
        -24    2    1    2    0    0  0.24902107342E+03 -0.79657176910E+02 -0.43313489222E+03  0.51275176976E+03  0.83377345198E+02 0.  0.
        254    2    1    2    0    0 -0.24902107342E+03  0.79657176910E+02  0.90541321178E+03  0.13042190546E+04  0.90158610093E+03 0.  0.
         23    2    4    4    0    0 -0.25737972929E+02  0.44058237375E+03  0.24424390466E+03  0.51326256266E+03  0.94911021276E+02 0.  0.
         23    2    4    4    0    0 -0.22328310049E+03 -0.36092519684E+03  0.66116930713E+03  0.79095649191E+03  0.91350855129E+02 0.  0.
          3    1    3    3  502    0  0.14974588396E+03 -0.84292243329E+02 -0.31073744588E+03  0.35508699261E+03  0.00000000000E+00 0. -1.
         -4    1    3    3    0  502  0.99275189460E+02  0.46350664194E+01 -0.12239744633E+03  0.15766477715E+03  0.00000000000E+00 0.  1.
         13    1    5    5    0    0 -0.30433732136E+02  0.38465135149E+03  0.17379265087E+03  0.42318643616E+03  0.00000000000E+00 0.  1.
        -13    1    5    5    0    0  0.46957592077E+01  0.55931022258E+02  0.70451253782E+02  0.90076126498E+02  0.00000000000E+00 0. -1.
          1    1    6    6  503    0 -0.13610515280E+03 -0.20720545912E+03  0.30244025896E+03  0.39106115269E+03  0.00000000000E+00 0. -1.
         -1    1    6    6    0  503 -0.87177947692E+02 -0.15371973772E+03  0.35872904817E+03  0.39989533922E+03  0.00000000000E+00 0.  1.
<mgrwt>
<rscale>  0 0.17545188E+04</rscale>
<asrwt>0</asrwt>
<pdfrwt beam="1">  1        1 0.10343788E+00 0.17545188E+04</pdfrwt>
<pdfrwt beam="2">  1       -2 0.17609609E+00 0.17545188E+04</pdfrwt>
<totfact> 0.46327628E+00</totfact>
</mgrwt>
</event>
<event>
12    5  0.5041746E-008  0.2393432E+04  0.7818608E-02  0.8441967E-01
         -2   -1    0    0    0  501 -0.00000000000E+00  0.00000000000E+00  0.94341094019E+03  0.94341094019E+03  0.00000000000E+00 0.  1.
          1   -1    0    0  501    0  0.00000000000E+00 -0.00000000000E+00 -0.15180327106E+04  0.15180327106E+04  0.00000000000E+00 0. -1.
        -24    2    1    2    0    0 -0.16420915636E+03  0.70104924862E+03  0.51397109764E+03  0.88817920989E+03  0.79128526076E+02 0.  0.
        254    2    1    2    0    0  0.16420915636E+03 -0.70104924862E+03 -0.10885928681E+04  0.15732644409E+04  0.87845994366E+03 0.  0.
         23    2    4    4    0    0 -0.20439895690E+03  0.36112260389E+02 -0.52133403563E+03  0.56835932103E+03  0.90333339167E+02 0.  0.
         23    2    4    4    0    0  0.36860811326E+03 -0.73716150901E+03 -0.56725883243E+03  0.10049051199E+04  0.93662615026E+02 0.  0.
          3    1    3    3  502    0 -0.11160743540E+03  0.39911550626E+03  0.25228592371E+03  0.48517789962E+03  0.00000000000E+00 0. -1.
         -4    1    3    3    0  502 -0.52601720957E+02  0.30193374236E+03  0.26168517393E+03  0.40300131027E+03  0.00000000000E+00 0.  1.
         13    1    5    5    0    0 -0.42894551634E+02 -0.48014924133E+01 -0.39405011423E+02  0.58444433563E+02  0.00000000000E+00 0.  1.
        -13    1    5    5    0    0 -0.16150440527E+03  0.40913752802E+02 -0.48192902421E+03  0.50991488747E+03  0.00000000000E+00 0. -1.
          1    1    6    6  503    0  0.24727461872E+03 -0.40416378423E+03 -0.29691160219E+03  0.55915078562E+03  0.00000000000E+00 0. -1.
         -1    1    6    6    0  503  0.12133349453E+03 -0.33299772479E+03 -0.27034723024E+03  0.44575433426E+03  0.00000000000E+00 0.  1.
<mgrwt>
<rscale>  0 0.23934316E+04</rscale>
<asrwt>0</asrwt>
<pdfrwt beam="1">  1        1 0.23354349E+00 0.23934316E+04</pdfrwt>
<pdfrwt beam="2">  1       -2 0.14514014E+00 0.23934316E+04</pdfrwt>
<totfact> 0.16356014E+00</totfact>
</mgrwt>
</event>
<event>
12    5  0.5041746E-008  0.1125080E+04  0.7818608E-02  0.9181086E-01
         -2   -1    0    0    0  501 -0.00000000000E+00  0.00000000000E+00  0.13408510224E+04  0.13408510224E+04  0.00000000000E+00 0.  1.
          1   -1    0    0  501    0  0.00000000000E+00 -0.00000000000E+00 -0.23600782134E+03  0.23600782134E+03  0.00000000000E+00 0. -1.
        -24    2    1    2    0    0  0.35079533674E+02 -0.20650236258E+03  0.26520980539E+03  0.34739561898E+03  0.80459155987E+02 0.  0.
        254    2    1    2    0    0 -0.35079533674E+02  0.20650236258E+03  0.83963339563E+03  0.12294632247E+04  0.87333944285E+03 0.  0.
         23    2    4    4    0    0  0.33208941290E+03  0.18977749403E+03  0.11088386317E+03  0.40831449899E+03  0.90147787419E+02 0.  0.
         23    2    4    4    0    0 -0.36716894657E+03  0.16724868548E+02  0.72874953246E+03  0.82114872572E+03  0.90092131369E+02 0.  0.
          3    1    3    3  502    0  0.48769175868E+02 -0.18681467725E+03  0.20033341377E+03  0.27822946074E+03  0.00000000000E+00 0. -1.
         -4    1    3    3    0  502 -0.13689642194E+02 -0.19687685328E+02  0.64876391615E+02  0.69166158242E+02  0.00000000000E+00 0.  1.
         13    1    5    5    0    0  0.33062926204E+03  0.19581027179E+03  0.11471568969E+03  0.40102002558E+03  0.00000000000E+00 0.  1.
        -13    1    5    5    0    0  0.14601508646E+01 -0.60327777576E+01 -0.38318265156E+01  0.72944734194E+01  0.00000000000E+00 0. -1.
          3    1    6    6  503    0  0.42419101474E+01 -0.37855817388E+01  0.58354386753E+01  0.81471943228E+01  0.00000000000E+00 0. -1.
         -3    1    6    6    0  503 -0.37141085672E+03  0.20510450286E+02  0.72291409378E+03  0.81300153139E+03  0.00000000000E+00 0.  1.
<mgrwt>
<rscale>  0 0.11250801E+04</rscale>
<asrwt>0</asrwt>
<pdfrwt beam="1">  1        1 0.36308896E-01 0.11250801E+04</pdfrwt>
<pdfrwt beam="2">  1       -2 0.20628477E+00 0.11250801E+04</pdfrwt>
<totfact> 0.12584636E+01</totfact>
</mgrwt>
</event>
<event>
12    5  0.5041746E-008  0.1374140E+04  0.7818608E-02  0.8972753E-01
         -2   -1    0    0    0  501 -0.00000000000E+00  0.00000000000E+00  0.49027424959E+03  0.49027424959E+03  0.00000000000E+00 0.  1.
          1   -1    0    0  501    0  0.00000000000E+00 -0.00000000000E+00 -0.96285902535E+03  0.96285902535E+03  0.00000000000E+00 0. -1.
        -24    2    1    2    0    0 -0.18072858217E+03  0.12727694678E+03  0.20209703215E+03  0.31125423046E+03  0.84697957361E+02 0.  0.
        254    2    1    2    0    0  0.18072858217E+03 -0.12727694678E+03 -0.67468180792E+03  0.11418790445E+04  0.89433213556E+03 0.  0.
         23    2    4    4    0    0  0.32057886808E+03 -0.43560748771E+03 -0.52440727214E+03  0.75821806885E+03  0.85830990087E+02 0.  0.
         23    2    4    4    0    0 -0.13985028591E+03  0.30833054093E+03 -0.15027453578E+03  0.38366097563E+03  0.99937396295E+02 0.  0.
          1    1    3    3  502    0 -0.30441745530E+02  0.48346798224E+02  0.15926736301E+02  0.59310822778E+02  0.00000000000E+00 0. -1.
         -2    1    3    3    0  502 -0.15028683664E+03  0.78930148556E+02  0.18617029585E+03  0.25194340768E+03  0.00000000000E+00 0.  1.
         13    1    5    5    0    0  0.78355786926E+02 -0.13479526718E+03 -0.20165363757E+03  0.25489916231E+03  0.00000000000E+00 0. -1.
        -13    1    5    5    0    0  0.24222308115E+03 -0.30081222053E+03 -0.32275363457E+03  0.50331890655E+03  0.00000000000E+00 0.  1.
          2    1    6    6  503    0 -0.21055773104E+02  0.66848623868E+02  0.94355401236E+01  0.70718551395E+02  0.00000000000E+00 0. -1.
         -2    1    6    6    0  503 -0.11879451280E+03  0.24148191706E+03 -0.15971007590E+03  0.31294242423E+03  0.00000000000E+00 0.  1.
<mgrwt>
<rscale>  0 0.13741397E+04</rscale>
<asrwt>0</asrwt>
<pdfrwt beam="1">  1        1 0.14813216E+00 0.13741397E+04</pdfrwt>
<pdfrwt beam="2">  1       -2 0.75426808E-01 0.13741397E+04</pdfrwt>
<totfact> 0.21862121E+01</totfact>
</mgrwt>
</event>
<event>
12    5  0.5041746E-008  0.3154348E+04  0.7818608E-02  0.8200979E-01
          1   -1    0    0  501    0  0.00000000000E+00  0.00000000000E+00  0.20469697435E+04  0.20469697435E+04  0.00000000000E+00 0. -1.
         -2   -1    0    0    0  501 -0.00000000000E+00 -0.00000000000E+00 -0.12152004701E+04  0.12152004701E+04  0.00000000000E+00 0.  1.
        -24    2    1    2    0    0 -0.57355020614E+03 -0.15080955076E+03  0.17490105816E+04  0.18485418380E+04  0.79784414844E+02 0.  0.
        254    2    1    2    0    0  0.57355020614E+03  0.15080955076E+03 -0.91724130814E+03  0.14136283757E+04  0.89739077755E+03 0.  0.
         23    2    4    4    0    0 -0.19958191906E+02 -0.24456009123E+03 -0.54304669348E+03  0.60280147013E+03  0.90895178333E+02 0.  0.
         23    2    4    4    0    0  0.59350839805E+03  0.39536964199E+03 -0.37419461466E+03  0.81082690556E+03  0.94070658417E+02 0.  0.
          1    1    3    3  502    0 -0.56424964868E+03 -0.15083936049E+03  0.16741763842E+04  0.17731319026E+04  0.00000000000E+00 0. -1.
         -2    1    3    3    0  502 -0.93005574606E+01  0.29809733172E-01  0.74834197347E+02  0.75409935355E+02  0.00000000000E+00 0.  1.
         13    1    5    5    0    0  0.22930138186E+02 -0.98201988280E+02 -0.29348786216E+03  0.31032973911E+03  0.00000000000E+00 0.  1.
        -13    1    5    5    0    0 -0.42888330092E+02 -0.14635810295E+03 -0.24955883132E+03  0.29247173102E+03  0.00000000000E+00 0. -1.
          3    1    6    6  503    0  0.47838145453E+03  0.27377630435E+03 -0.30179160139E+03  0.62839513965E+03  0.00000000000E+00 0. -1.
         -3    1    6    6    0  503  0.11512694352E+03  0.12159333764E+03 -0.72403013261E+02  0.18243176591E+03  0.00000000000E+00 0.  1.
<mgrwt>
<rscale>  0 0.31543485E+04</rscale>
<asrwt>0</asrwt>
<pdfrwt beam="1">  1        1 0.31491842E+00 0.31543485E+04</pdfrwt>
<pdfrwt beam="2">  1       -2 0.18695392E+00 0.31543485E+04</pdfrwt>
<totfact> 0.33232491E-01</totfact>
</mgrwt>
</event>
<event>
12    5  0.5041746E-008  0.1793571E+04  0.7818608E-02  0.8709726E-01
          1   -1    0    0  501    0  0.00000000000E+00  0.00000000000E+00  0.83477763723E+03  0.83477763723E+03  0.00000000000E+00 0. -1.
         -2   -1    0    0    0  501 -0.00000000000E+00 -0.00000000000E+00 -0.96339923097E+03  0.96339923097E+03  0.00000000000E+00 0.  1.
        -24    2    1    2    0    0  0.17303646886E+03 -0.23680412317E+03  0.55424324031E+03  0.63223424091E+03  0.80726412290E+02 0.  0.
        254    2    1    2    0    0 -0.17303646886E+03  0.23680412317E+03 -0.68286483405E+03  0.11659426273E+04  0.89838745329E+03 0.  0.
         23    2    4    4    0    0 -0.53111242802E+03  0.19782015759E+03 -0.38060169665E+03  0.68894000846E+03  0.92560563032E+02 0.  0.
         23    2    4    4    0    0  0.35807595915E+03  0.38983965576E+02 -0.30226313741E+03  0.47700261882E+03  0.80189475824E+02 0.  0.
          3    1    3    3  502    0  0.10644904593E+03 -0.20284188650E+03  0.43096998382E+03  0.48806900870E+03  0.00000000000E+00 0. -1.
         -4    1    3    3    0  502  0.66587422932E+02 -0.33962236667E+02  0.12327325650E+03  0.14416523221E+03  0.00000000000E+00 0.  1.
         13    1    5    5    0    0 -0.37753795697E+02  0.18550427816E+02 -0.61919148008E+02  0.74856184459E+02  0.00000000000E+00 0.  1.
        -13    1    5    5    0    0 -0.49335863232E+03  0.17926972978E+03 -0.31868254864E+03  0.61408382401E+03  0.00000000000E+00 0. -1.
          4    1    6    6  503    0  0.21525315241E+03  0.62689674714E+02 -0.18034697416E+03  0.28773068315E+03  0.00000000000E+00 0. -1.
         -4    1    6    6    0  503  0.14282280674E+03 -0.23705709138E+02 -0.12191616325E+03  0.18927193567E+03  0.00000000000E+00 0.  1.
<mgrwt>
<rscale>  0 0.17935709E+04</rscale>
<asrwt>0</asrwt>
<pdfrwt beam="1">  1        1 0.12842733E+00 0.17935709E+04</pdfrwt>
<pdfrwt beam="2">  1       -2 0.14821527E+00 0.17935709E+04</pdfrwt>
<totfact> 0.52767402E+00</totfact>
</mgrwt>
</event>
<event>
12    5  0.5041746E-008  0.1681389E+04  0.7818608E-02  0.8772051E-01
         -2   -1    0    0    0  501 -0.00000000000E+00  0.00000000000E+00  0.99959311528E+03  0.99959311528E+03  0.00000000000E+00 0.  1.
          1   -1    0    0  501    0  0.00000000000E+00 -0.00000000000E+00 -0.70705480908E+03  0.70705480908E+03  0.00000000000E+00 0. -1.
        -24    2    1    2    0    0  0.18295609900E+03  0.84226154950E+02 -0.46424229082E+03  0.51230740308E+03  0.79818489875E+02 0.  0.
        254    2    1    2    0    0 -0.18295609900E+03 -0.84226154950E+02  0.75678059702E+03  0.11943405213E+04  0.90175685716E+03 0.  0.
         23    2    4    4    0    0 -0.48976742319E+03  0.47799535950E+01  0.18233237876E+03  0.53080543984E+03  0.92813478820E+02 0.  0.
         23    2    4    4    0    0  0.30681132419E+03 -0.89006108545E+02  0.57444821825E+03  0.66353508144E+03  0.90734628673E+02 0.  0.
          1    1    3    3  502    0  0.62500541627E+02  0.27159686444E+02 -0.25716537469E+03  0.26604134305E+03  0.00000000000E+00 0. -1.
         -2    1    3    3    0  502  0.12045555737E+03  0.57066468505E+02 -0.20707691613E+03  0.24626606003E+03  0.00000000000E+00 0.  1.
         13    1    5    5    0    0 -0.33541154031E+03  0.46437396557E+02  0.12175354112E+03  0.35983504269E+03  0.00000000000E+00 0.  1.
        -13    1    5    5    0    0 -0.15435588288E+03 -0.41657442962E+02  0.60578837643E+02  0.17097039716E+03  0.00000000000E+00 0. -1.
          3    1    6    6  503    0  0.10557265484E+03 -0.74282284411E+02  0.25245818770E+03  0.28354643317E+03  0.00000000000E+00 0. -1.
         -3    1    6    6    0  503  0.20123866935E+03 -0.14723824134E+02  0.32199003055E+03  0.37998864827E+03  0.00000000000E+00 0.  1.
<mgrwt>
<rscale>  0 0.16813889E+04</rscale>
<asrwt>0</asrwt>
<pdfrwt beam="1">  1        1 0.10877766E+00 0.16813889E+04</pdfrwt>
<pdfrwt beam="2">  1       -2 0.15378356E+00 0.16813889E+04</pdfrwt>
<totfact> 0.62748209E+00</totfact>
</mgrwt>
</event>
<event>
12    5  0.5041746E-008  0.2836805E+04  0.7818608E-02  0.8291932E-01
          1   -1    0    0  501    0  0.00000000000E+00  0.00000000000E+00  0.11098420858E+04  0.11098420858E+04  0.00000000000E+00 0. -1.
         -2   -1    0    0    0  501 -0.00000000000E+00 -0.00000000000E+00 -0.18127488958E+04  0.18127488958E+04  0.00000000000E+00 0.  1.
        -24    2    1    2    0    0 -0.80903540767E+03  0.10183192546E+04 -0.19815946812E+03  0.13182175290E+04  0.83173816139E+02 0.  0.
        254    2    1    2    0    0  0.80903540767E+03 -0.10183192546E+04 -0.50474734188E+03  0.16043734526E+04  0.79229533713E+03 0.  0.
         23    2    4    4    0    0  0.22142091259E+03  0.33222066436E+02  0.88929264162E+02  0.25775772338E+03  0.91649897491E+02 0.  0.
         23    2    4    4    0    0  0.58761449508E+03 -0.10515413210E+04 -0.59367660604E+03  0.13466157293E+04  0.99458861009E+02 0.  0.
          1    1    3    3  502    0 -0.82125867893E+02  0.67365007784E+02 -0.12725044309E+02  0.10697957377E+03  0.00000000000E+00 0. -1.
         -2    1    3    3    0  502 -0.72690953977E+03  0.95095424682E+03 -0.18543442381E+03  0.12112379552E+04  0.00000000000E+00 0.  1.
         13    1    5    5    0    0  0.20506824720E+02 -0.21955911484E+02  0.27006734088E+02  0.40397470159E+02  0.00000000000E+00 0. -1.
        -13    1    5    5    0    0  0.20091408787E+03  0.55177977920E+02  0.61922530074E+02  0.21736025322E+03  0.00000000000E+00 0.  1.
          2    1    6    6  503    0  0.38712391481E+03 -0.61430144044E+03 -0.39048673293E+03  0.82444591923E+03  0.00000000000E+00 0. -1.
         -2    1    6    6    0  503  0.20049058027E+03 -0.43723988060E+03 -0.20318987311E+03  0.52216981002E+03  0.00000000000E+00 0.  1.
<mgrwt>
<rscale>  0 0.28368046E+04</rscale>
<asrwt>0</asrwt>
<pdfrwt beam="1">  1        1 0.17074494E+00 0.28368046E+04</pdfrwt>
<pdfrwt beam="2">  1       -2 0.27888444E+00 0.28368046E+04</pdfrwt>
<totfact> 0.40377785E-01</totfact>
</mgrwt>
</event>
<event>
12    5  0.5041746E-008  0.1988393E+04  0.7818608E-02  0.8612067E-01
          1   -1    0    0  501    0  0.00000000000E+00  0.00000000000E+00  0.15032494145E+04  0.15032494145E+04  0.00000000000E+00 0. -1.
         -2   -1    0    0    0  501 -0.00000000000E+00 -0.00000000000E+00 -0.65752669731E+03  0.65752669731E+03  0.00000000000E+00 0.  1.
        -24    2    1    2    0    0  0.73070526875E+03 -0.26374701535E+03  0.45737726002E+03  0.90509335934E+03  0.80668167533E+02 0.  0.
        254    2    1    2    0    0 -0.73070526875E+03  0.26374701535E+03  0.38834545719E+03  0.12556827525E+04  0.90688163666E+03 0.  0.
         23    2    4    4    0    0 -0.91536641437E+03  0.17714421341E+03  0.18792933310E+03  0.95543972166E+03  0.90949890458E+02 0.  0.
         23    2    4    4    0    0  0.18466114562E+03  0.86602801942E+02  0.20041612409E+03  0.30024303084E+03  0.91539449244E+02 0.  0.
          3    1    3    3  502    0  0.37167886202E+03 -0.17447017557E+03  0.25632194791E+03  0.48403094903E+03  0.00000000000E+00 0. -1.
         -4    1    3    3    0  502  0.35902640672E+03 -0.89276839778E+02  0.20105531211E+03  0.42106241031E+03  0.00000000000E+00 0.  1.
         13    1    5    5    0    0 -0.81750417667E+03  0.18547138274E+03  0.16102005049E+03  0.85360422290E+03  0.00000000000E+00 0.  1.
        -13    1    5    5    0    0 -0.97862237696E+02 -0.83271693265E+01  0.26909282611E+02  0.10183549875E+03  0.00000000000E+00 0. -1.
          2    1    6    6  503    0  0.74029778712E+02  0.55968445756E+02  0.14648975718E+03  0.17341315987E+03  0.00000000000E+00 0. -1.
         -2    1    6    6    0  503  0.11063136691E+03  0.30634356186E+02  0.53926366907E+02  0.12682987098E+03  0.00000000000E+00 0.  1.
<mgrwt>
<rscale>  0 0.19883929E+04</rscale>
<asrwt>0</asrwt>
<pdfrwt beam="1">  1        1 0.23126914E+00 0.19883929E+04</pdfrwt>
<pdfrwt beam="2">  1       -2 0.10115795E+00 0.19883929E+04</pdfrwt>
<totfact> 0.42628136E+00</totfact>
</mgrwt>
</event>
<event>
12    5  0.5041746E-008  0.1687592E+04  0.7818608E-02  0.8768473E-01
          1   -1    0    0  501    0  0.00000000000E+00  0.00000000000E+00  0.19864435169E+04  0.19864435169E+04  0.00000000000E+00 0. -1.
         -2   -1    0    0    0  501 -0.00000000000E+00 -0.00000000000E+00 -0.35842538451E+03  0.35842538451E+03  0.00000000000E+00 0.  1.
        -24    2    1    2    0    0 -0.45109825549E+03 -0.16710746053E+03  0.10942899613E+04  0.11980067839E+04  0.79593940483E+02 0.  0.
        254    2    1    2    0    0  0.45109825549E+03  0.16710746053E+03  0.53372817106E+03  0.11468621175E+04  0.89387494455E+03 0.  0.
         23    2    4    4    0    0  0.39576223584E+03  0.45149542428E+03  0.57861532225E+03  0.83869028182E+03  0.90165582251E+02 0.  0.
         23    2    4    4    0    0  0.55336019650E+02 -0.28438796375E+03 -0.44887151181E+02  0.30817183567E+03  0.94954910166E+02 0.  0.
          3    1    3    3  502    0 -0.34797124358E+03 -0.12528102176E+03  0.75094508030E+03  0.83707695847E+03  0.00000000000E+00 0. -1.
         -4    1    3    3    0  502 -0.10312701190E+03 -0.41826438769E+02  0.34334488100E+03  0.36092982542E+03  0.00000000000E+00 0.  1.
         13    1    5    5    0    0  0.20162348357E+03  0.17067267948E+03  0.28250857774E+03  0.38677162401E+03  0.00000000000E+00 0. -1.
        -13    1    5    5    0    0  0.19413875226E+03  0.28082274481E+03  0.29610674451E+03  0.45191865781E+03  0.00000000000E+00 0.  1.
          3    1    6    6  503    0 -0.22160434621E+02 -0.85953386751E+02 -0.33372696434E+02  0.94830408751E+02  0.00000000000E+00 0. -1.
         -3    1    6    6    0  503  0.77496454271E+02 -0.19843457700E+03 -0.11514454748E+02  0.21334142692E+03  0.00000000000E+00 0.  1.
<mgrwt>
<rscale>  0 0.16875921E+04</rscale>
<asrwt>0</asrwt>
<pdfrwt beam="1">  1        1 0.30560669E+00 0.16875921E+04</pdfrwt>
<pdfrwt beam="2">  1       -2 0.55142368E-01 0.16875921E+04</pdfrwt>
<totfact> 0.78742239E+00</totfact>
</mgrwt>
</event>
<event>
12    5  0.5041746E-008  0.1321034E+04  0.7818608E-02  0.9013049E-01
          1   -1    0    0  501    0  0.00000000000E+00  0.00000000000E+00  0.73640025068E+03  0.73640025068E+03  0.00000000000E+00 0. -1.
         -2   -1    0    0    0  501 -0.00000000000E+00 -0.00000000000E+00 -0.59245327410E+03  0.59245327410E+03  0.00000000000E+00 0.  1.
        -24    2    1    2    0    0  0.32484040828E+03  0.55744338635E+02  0.16550910884E+03  0.37716043936E+03  0.78917740536E+02 0.  0.
        254    2    1    2    0    0 -0.32484040828E+03 -0.55744338635E+02 -0.21562132261E+02  0.95169308542E+03  0.89253912023E+03 0.  0.
         23    2    4    4    0    0 -0.21681294154E+02 -0.43311297891E+03 -0.96930703780E+02  0.45394450155E+03  0.92806886263E+02 0.  0.
         23    2    4    4    0    0 -0.30315911413E+03  0.37736864027E+03  0.75368571518E+02  0.49774858387E+03  0.88094790024E+02 0.  0.
          1    1    3    3  502    0  0.31558785087E+03  0.40586530464E+02  0.16698171469E+03  0.35934085645E+03  0.00000000000E+00 0. -1.
         -2    1    3    3    0  502  0.92525574073E+01  0.15157808171E+02 -0.14726058564E+01  0.17819582911E+02  0.00000000000E+00 0.  1.
         13    1    5    5    0    0  0.12960726884E+02 -0.35140007924E+03 -0.55478266092E+02  0.35598853091E+03  0.00000000000E+00 0.  1.
        -13    1    5    5    0    0 -0.34642021039E+02 -0.81712899670E+02 -0.41452437688E+02  0.97955970642E+02  0.00000000000E+00 0. -1.
          1    1    6    6  503    0 -0.44730537035E+02  0.15627516597E+02  0.50089836108E+01  0.47645882668E+02  0.00000000000E+00 0. -1.
         -1    1    6    6    0  503 -0.25842857709E+03  0.36174112368E+03  0.70359587908E+02  0.45010270120E+03  0.00000000000E+00 0.  1.
<mgrwt>
<rscale>  0 0.13210340E+04</rscale>
<asrwt>0</asrwt>
<pdfrwt beam="1">  1        1 0.11329235E+00 0.13210340E+04</pdfrwt>
<pdfrwt beam="2">  1       -2 0.91146657E-01 0.13210340E+04</pdfrwt>
<totfact> 0.22224676E+01</totfact>
</mgrwt>
</event>
<event>
12    5  0.5041746E-008  0.1590447E+04  0.7818608E-02  0.8826438E-01
          1   -1    0    0  501    0  0.00000000000E+00  0.00000000000E+00  0.13538658105E+04  0.13538658105E+04  0.00000000000E+00 0. -1.
         -2   -1    0    0    0  501 -0.00000000000E+00 -0.00000000000E+00 -0.46709267017E+03  0.46709267017E+03  0.00000000000E+00 0.  1.
        -24    2    1    2    0    0 -0.86952247932E+02 -0.28404046109E+03  0.80722931696E+03  0.86406861654E+03  0.82193229550E+02 0.  0.
        254    2    1    2    0    0  0.86952247932E+02  0.28404046109E+03  0.79543823332E+02  0.95688986408E+03  0.90612985559E+03 0.  0.
         23    2    4    4    0    0  0.20966059295E+03  0.57889128002E+03  0.40960931696E+02  0.62279267908E+03  0.84381543392E+02 0.  0.
         23    2    4    4    0    0 -0.12270834502E+03 -0.29485081893E+03  0.38582891636E+02  0.33409718500E+03  0.90210565562E+02 0.  0.
          3    1    3    3  502    0 -0.90251631686E+02 -0.28835105124E+03  0.78384003524E+03  0.84005766862E+03  0.00000000000E+00 0. -1.
         -4    1    3    3    0  502  0.32993837534E+01  0.43105901515E+01  0.23389281718E+02  0.24010947918E+02  0.00000000000E+00 0.  1.
         13    1    5    5    0    0  0.16053002400E+02  0.10030016080E+03  0.31816565059E+02  0.10644301271E+03  0.00000000000E+00 0.  1.
        -13    1    5    5    0    0  0.19360759055E+03  0.47859111922E+03  0.91443666370E+01  0.51634966637E+03  0.00000000000E+00 0. -1.
          3    1    6    6  503    0 -0.69068077816E+02 -0.25596295812E+03  0.23566558564E+02  0.26616314168E+03  0.00000000000E+00 0. -1.
         -3    1    6    6    0  503 -0.53640267204E+02 -0.38887860806E+02  0.15016333072E+02  0.67934043326E+02  0.00000000000E+00 0.  1.
<mgrwt>
<rscale>  0 0.15904475E+04</rscale>
<asrwt>0</asrwt>
<pdfrwt beam="1">  1        1 0.20828705E+00 0.15904475E+04</pdfrwt>
<pdfrwt beam="2">  1       -2 0.71860412E-01 0.15904475E+04</pdfrwt>
<totfact> 0.12243579E+01</totfact>
</mgrwt>
</event>
<event>
12    5  0.5041746E-008  0.1200502E+04  0.7818608E-02  0.9112417E-01
          1   -1    0    0  501    0  0.00000000000E+00  0.00000000000E+00  0.19826905487E+04  0.19826905487E+04  0.00000000000E+00 0. -1.
         -2   -1    0    0    0  501 -0.00000000000E+00 -0.00000000000E+00 -0.18172347256E+03  0.18172347256E+03  0.00000000000E+00 0.  1.
        -24    2    1    2    0    0 -0.21637112169E+03  0.15104326368E+03  0.42501817124E+03  0.50617513857E+03  0.77086284220E+02 0.  0.
        254    2    1    2    0    0  0.21637112169E+03 -0.15104326368E+03  0.13759489049E+04  0.16582388827E+04  0.88706835892E+03 0.  0.
         23    2    4    4    0    0  0.41804658391E+03 -0.10368594180E+02  0.23660645141E+03  0.48892845209E+03  0.90542610686E+02 0.  0.
         23    2    4    4    0    0 -0.20167546223E+03 -0.14067466950E+03  0.11393424535E+04  0.11693104306E+04  0.93398619280E+02 0.  0.
          3    1    3    3  502    0 -0.19950000328E+03  0.15833646078E+03  0.40886042376E+03  0.48170274261E+03  0.00000000000E+00 0. -1.
         -4    1    3    3    0  502 -0.16871118406E+02 -0.72931970993E+01  0.16157747482E+02  0.24472395957E+02  0.00000000000E+00 0.  1.
         13    1    5    5    0    0  0.33357636537E+03 -0.40949509544E+02  0.20513952503E+03  0.39374138542E+03  0.00000000000E+00 0. -1.
        -13    1    5    5    0    0  0.84470218548E+02  0.30580915363E+02  0.31466926378E+02  0.95187066673E+02  0.00000000000E+00 0.  1.
          2    1    6    6  503    0 -0.12006563813E+03 -0.30772704968E+02  0.46657117772E+03  0.48275395463E+03  0.00000000000E+00 0. -1.
         -2    1    6    6    0  503 -0.81609824094E+02 -0.10990196453E+03  0.67277127580E+03  0.68655647600E+03  0.00000000000E+00 0.  1.
<mgrwt>
<rscale>  0 0.12005022E+04</rscale>
<asrwt>0</asrwt>
<pdfrwt beam="1">  1        1 0.30502930E+00 0.12005022E+04</pdfrwt>
<pdfrwt beam="2">  1       -2 0.27957459E-01 0.12005022E+04</pdfrwt>
<totfact> 0.31150453E+01</totfact>
</mgrwt>
</event>
<event>
12    5  0.5041746E-008  0.2415379E+04  0.7818608E-02  0.8433768E-01
         -2   -1    0    0    0  501 -0.00000000000E+00  0.00000000000E+00  0.13428296785E+04  0.13428296785E+04  0.00000000000E+00 0.  1.
          3   -1    0    0  501    0  0.00000000000E+00 -0.00000000000E+00 -0.10861495433E+04  0.10861495433E+04  0.00000000000E+00 0. -1.
        -24    2    1    2    0    0  0.88121077651E+02 -0.52606394020E+03 -0.78507332045E+03  0.95095644292E+03  0.58901989328E+02 0.  0.
        254    2    1    2    0    0 -0.88121077651E+02  0.52606394020E+03  0.10417534557E+04  0.14780227788E+04  0.90265856160E+03 0.  0.
         23    2    4    4    0    0  0.35892719057E+03  0.45415573510E+03  0.54575946716E+03  0.80072290041E+03  0.90651019796E+02 0.  0.
         23    2    4    4    0    0 -0.44704826822E+03  0.71908205100E+02  0.49599398852E+03  0.67729987843E+03  0.87761862941E+02 0.  0.
          3    1    3    3  502    0  0.60654642416E+02 -0.33267443352E+03 -0.44683639822E+03  0.56036954872E+03  0.00000000000E+00 0. -1.
         -4    1    3    3    0  502  0.27466435235E+02 -0.19338950669E+03 -0.33823692223E+03  0.39058689420E+03  0.00000000000E+00 0.  1.
         13    1    5    5    0    0  0.55143994650E+02  0.26165999695E+02  0.59816043046E+02  0.85460392532E+02  0.00000000000E+00 0.  1.
        -13    1    5    5    0    0  0.30378319592E+03  0.42798973541E+03  0.48594342411E+03  0.71526250788E+03  0.00000000000E+00 0. -1.
          3    1    6    6  503    0 -0.33224724564E+03  0.15655610434E+02  0.34047154683E+03  0.47597710509E+03  0.00000000000E+00 0. -1.
         -3    1    6    6    0  503 -0.11480102258E+03  0.56252594666E+02  0.15552244170E+03  0.20132277334E+03  0.00000000000E+00 0.  1.
<mgrwt>
<rscale>  0 0.24153789E+04</rscale>
<asrwt>0</asrwt>
<pdfrwt beam="1">  1        3 0.16709993E+00 0.24153789E+04</pdfrwt>
<pdfrwt beam="2">  1       -2 0.20658918E+00 0.24153789E+04</pdfrwt>
<totfact> 0.10892361E-01</totfact>
</mgrwt>
</event>
<event>
12    5  0.5041746E-008  0.3044952E+04  0.7818608E-02  0.8231010E-01
         -2   -1    0    0    0  501 -0.00000000000E+00  0.00000000000E+00  0.14637436930E+04  0.14637436930E+04  0.00000000000E+00 0.  1.
          1   -1    0    0  501    0  0.00000000000E+00 -0.00000000000E+00 -0.15835647769E+04  0.15835647769E+04  0.00000000000E+00 0. -1.
        -24    2    1    2    0    0 -0.64726960553E+03  0.18578910661E+02  0.11704910986E+04  0.13404912192E+04  0.86972286769E+02 0.  0.
        254    2    1    2    0    0  0.64726960553E+03 -0.18578910661E+02 -0.12903121824E+04  0.17068172508E+04  0.91050342191E+03 0.  0.
         23    2    4    4    0    0  0.78076437463E+03 -0.69818245993E+02 -0.13170671271E+04  0.15354384205E+04  0.91857114085E+02 0.  0.
         23    2    4    4    0    0 -0.13349476911E+03  0.51239335332E+02  0.26754944708E+02  0.17137883035E+03  0.90601068213E+02 0.  0.
          1    1    3    3  502    0 -0.12613466450E+03  0.38237482112E+02  0.23007959540E+03  0.26515783761E+03  0.00000000000E+00 0. -1.
         -2    1    3    3    0  502 -0.52113494103E+03 -0.19658571451E+02  0.94041150317E+03  0.10753333816E+04  0.00000000000E+00 0.  1.
         13    1    5    5    0    0  0.41856328768E+03  0.48825279038E+00 -0.75036379316E+03  0.85920968702E+03  0.00000000000E+00 0.  1.
        -13    1    5    5    0    0  0.36220108696E+03 -0.70306498784E+02 -0.56670333398E+03  0.67622873343E+03  0.00000000000E+00 0. -1.
          3    1    6    6  503    0 -0.14270818130E+03  0.49282018988E+02  0.89585023777E+01  0.15124350291E+03  0.00000000000E+00 0. -1.
         -3    1    6    6    0  503  0.92134121974E+01  0.19573163442E+01  0.17796442330E+02  0.20135327442E+02  0.00000000000E+00 0.  1.
<mgrwt>
<rscale>  0 0.30449519E+04</rscale>
<asrwt>0</asrwt>
<pdfrwt beam="1">  1        1 0.24362535E+00 0.30449519E+04</pdfrwt>
<pdfrwt beam="2">  1       -2 0.22519134E+00 0.30449519E+04</pdfrwt>
<totfact> 0.39093148E-01</totfact>
</mgrwt>
</event>
<event>
12    5  0.5041746E-008  0.4876212E+04  0.7818608E-02  0.7847892E-01
          1   -1    0    0  501    0  0.00000000000E+00  0.00000000000E+00  0.19749230903E+04  0.19749230903E+04  0.00000000000E+00 0. -1.
         -2   -1    0    0    0  501 -0.00000000000E+00 -0.00000000000E+00 -0.30099204281E+04  0.30099204281E+04  0.00000000000E+00 0.  1.
        -24    2    1    2    0    0  0.93021483110E+03 -0.11960655934E+04  0.13425896068E+04  0.20260379618E+04  0.80065191309E+02 0.  0.
        254    2    1    2    0    0 -0.93021483110E+03  0.11960655934E+04 -0.23775869447E+04  0.29588055566E+04  0.89762915867E+03 0.  0.
         23    2    4    4    0    0  0.34059031261E+02  0.64115934171E+02  0.36900589201E+02  0.12163487233E+03  0.90346654941E+02 0.  0.
         23    2    4    4    0    0 -0.96427386236E+03  0.11319496592E+04 -0.24144875339E+04  0.28371706842E+04  0.93023264266E+02 0.  0.
          1    1    3    3  502    0  0.86189239547E+03 -0.10928703094E+04  0.12051784987E+04  0.18411081522E+04  0.00000000000E+00 0. -1.
         -2    1    3    3    0  502  0.68322435635E+02 -0.10319528398E+03  0.13741110813E+03  0.18492980962E+03  0.00000000000E+00 0.  1.
         13    1    5    5    0    0  0.28979371272E+02 -0.17323332369E+02  0.55174849313E+01  0.34210297334E+02  0.00000000000E+00 0. -1.
        -13    1    5    5    0    0  0.50796599888E+01  0.81439266540E+02  0.31383104269E+02  0.87424574999E+02  0.00000000000E+00 0.  1.
          3    1    6    6  503    0 -0.60001796896E+03  0.63693844753E+03 -0.13923005872E+04  0.16444491705E+04  0.00000000000E+00 0. -1.
         -3    1    6    6    0  503 -0.36425589340E+03  0.49501121167E+03 -0.10221869466E+04  0.11927215138E+04  0.00000000000E+00 0.  1.
<mgrwt>
<rscale>  0 0.48762122E+04</rscale>
<asrwt>0</asrwt>
<pdfrwt beam="1">  1        1 0.30383432E+00 0.48762122E+04</pdfrwt>
<pdfrwt beam="2">  1       -2 0.46306468E+00 0.48762122E+04</pdfrwt>
<totfact> 0.56648006E-03</totfact>
</mgrwt>
</event>
<event>
12    5  0.5041746E-008  0.1475215E+04  0.7818608E-02  0.8901104E-01
         -2   -1    0    0    0  501 -0.00000000000E+00  0.00000000000E+00  0.39209060172E+03  0.39209060172E+03  0.00000000000E+00 0.  1.
          1   -1    0    0  501    0  0.00000000000E+00 -0.00000000000E+00 -0.13875998119E+04  0.13875998119E+04  0.00000000000E+00 0. -1.
        -24    2    1    2    0    0  0.78728532839E+01  0.30692802393E+03 -0.70940714638E+03  0.77714938683E+03  0.80223914297E+02 0.  0.
        254    2    1    2    0    0 -0.78728532839E+01 -0.30692802393E+03 -0.28610206380E+03  0.10025410268E+04  0.91047642792E+03 0.  0.
         23    2    4    4    0    0 -0.32842857274E+03  0.28187851876E+02  0.13605140298E+03  0.36886035070E+03  0.94276676224E+02 0.  0.
         23    2    4    4    0    0  0.32055571946E+03 -0.33511587580E+03 -0.42215346678E+03  0.63368067609E+03  0.90989176513E+02 0.  0.
          3    1    3    3  502    0 -0.10861765797E+01  0.27588738817E+03 -0.55978296468E+03  0.62407691695E+03  0.00000000000E+00 0. -1.
         -4    1    3    3    0  502  0.89590298637E+01  0.31040635760E+02 -0.14962418170E+03  0.15307246988E+03  0.00000000000E+00 0.  1.
         13    1    5    5    0    0 -0.77734915834E+02  0.17494470737E+02  0.77595181708E+02  0.11121953907E+03  0.00000000000E+00 0.  1.
        -13    1    5    5    0    0 -0.25069365691E+03  0.10693381139E+02  0.58456221273E+02  0.25764081163E+03  0.00000000000E+00 0. -1.
          1    1    6    6  503    0  0.25589316574E+03 -0.20769586130E+03 -0.28777163773E+03  0.43752874026E+03  0.00000000000E+00 0. -1.
         -1    1    6    6    0  503  0.64662553713E+02 -0.12742001451E+03 -0.13438182905E+03  0.19615193583E+03  0.00000000000E+00 0.  1.
<mgrwt>
<rscale>  0 0.14752150E+04</rscale>
<asrwt>0</asrwt>
<pdfrwt beam="1">  1        1 0.21347689E+00 0.14752150E+04</pdfrwt>
<pdfrwt beam="2">  1       -2 0.60321631E-01 0.14752150E+04</pdfrwt>
<totfact> 0.17069454E+01</totfact>
</mgrwt>
</event>
<event>
12    5  0.5041746E-008  0.2211362E+04  0.7818608E-02  0.8513714E-01
          1   -1    0    0  501    0  0.00000000000E+00  0.00000000000E+00  0.37290254583E+04  0.37290254583E+04  0.00000000000E+00 0. -1.
         -2   -1    0    0    0  501 -0.00000000000E+00 -0.00000000000E+00 -0.32784171812E+03  0.32784171812E+03  0.00000000000E+00 0.  1.
        -24    2    1    2    0    0  0.99935591762E+01 -0.82647902874E+03  0.67832743119E+03  0.10723955578E+04  0.82077233368E+02 0.  0.
        254    2    1    2    0    0 -0.99935591762E+01  0.82647902874E+03  0.27228563090E+04  0.29844716186E+04  0.89997605913E+03 0.  0.
         23    2    4    4    0    0  0.18485110352E+03  0.73507729295E+02  0.16038856190E+04  0.16186588438E+04  0.89632901399E+02 0.  0.
         23    2    4    4    0    0 -0.19484466269E+03  0.75297129944E+03  0.11189706900E+04  0.13658127749E+04  0.91754621546E+02 0.  0.
          3    1    3    3  502    0 -0.12484833928E+02 -0.35985375699E+03  0.34344556861E+03  0.49759969464E+03  0.00000000000E+00 0. -1.
         -4    1    3    3    0  502  0.22478393104E+02 -0.46662527174E+03  0.33488186258E+03  0.57479586313E+03  0.00000000000E+00 0.  1.
         13    1    5    5    0    0  0.13743114985E+03  0.73162025309E+02  0.91571358253E+03  0.92885486925E+03  0.00000000000E+00 0. -1.
        -13    1    5    5    0    0  0.47419953667E+02  0.34570398629E+00  0.68817203645E+03  0.68980397452E+03  0.00000000000E+00 0.  1.
          3    1    6    6  503    0 -0.14389131540E+03  0.38620132302E+03  0.61893907632E+03  0.74360053305E+03  0.00000000000E+00 0. -1.
         -3    1    6    6    0  503 -0.50953347294E+02  0.36676997643E+03  0.50003161367E+03  0.62221224183E+03  0.00000000000E+00 0.  1.
<mgrwt>
<rscale>  0 0.22113617E+04</rscale>
<asrwt>0</asrwt>
<pdfrwt beam="1">  1        1 0.57369619E+00 0.22113617E+04</pdfrwt>
<pdfrwt beam="2">  1       -2 0.50437190E-01 0.22113617E+04</pdfrwt>
<totfact> 0.48775969E-01</totfact>
</mgrwt>
</event>
<event>
12    5  0.5041746E-008  0.2130505E+04  0.7818608E-02  0.8547923E-01
          1   -1    0    0  501    0  0.00000000000E+00  0.00000000000E+00  0.30267442202E+04  0.30267442202E+04  0.00000000000E+00 0. -1.
         -2   -1    0    0    0  501 -0.00000000000E+00 -0.00000000000E+00 -0.37491222444E+03  0.37491222444E+03  0.00000000000E+00 0.  1.
        -24    2    1    2    0    0  0.72992971700E+02  0.44935617157E+03  0.23956808484E+04  0.24398005177E+04  0.78044191916E+02 0.  0.
        254    2    1    2    0    0 -0.72992971700E+02 -0.44935617157E+03  0.25615114741E+03  0.96185592700E+03  0.80765368267E+03 0.  0.
         23    2    4    4    0    0 -0.11311483353E+03 -0.65063600961E+02 -0.26198286523E+03  0.30946221730E+03  0.10051668781E+03 0.  0.
         23    2    4    4    0    0  0.40121861834E+02 -0.38429257061E+03  0.51813401263E+03  0.65239370970E+03  0.88680064195E+02 0.  0.
          3    1    3    3  502    0  0.36419632818E+02  0.27296609556E+03  0.16388544710E+04  0.16618305739E+04  0.00000000000E+00 0. -1.
         -4    1    3    3    0  502  0.36573338883E+02  0.17639007601E+03  0.75682637736E+03  0.77796994383E+03  0.00000000000E+00 0.  1.
         13    1    5    5    0    0 -0.74350960190E+02 -0.14021346357E+02 -0.22048963852E+03  0.23311015450E+03  0.00000000000E+00 0. -1.
        -13    1    5    5    0    0 -0.38763873345E+02 -0.51042254604E+02 -0.41493226703E+02  0.76352062801E+02  0.00000000000E+00 0.  1.
          4    1    6    6  503    0 -0.13810241539E+02 -0.12723257916E+03  0.12009353793E+03  0.17550301942E+03  0.00000000000E+00 0.  1.
         -4    1    6    6    0  503  0.53932103374E+02 -0.25705999145E+03  0.39804047470E+03  0.47689069028E+03  0.00000000000E+00 0. -1.
<mgrwt>
<rscale>  0 0.21305055E+04</rscale>
<asrwt>0</asrwt>
<pdfrwt beam="1">  1        1 0.46565294E+00 0.21305055E+04</pdfrwt>
<pdfrwt beam="2">  1       -2 0.57678806E-01 0.21305055E+04</pdfrwt>
<totfact> 0.12980520E+00</totfact>
</mgrwt>
</event>
<event>
12    5  0.5041746E-008  0.2546522E+04  0.7818608E-02  0.8386597E-01
         -2   -1    0    0    0  501 -0.00000000000E+00  0.00000000000E+00  0.11408053624E+04  0.11408053624E+04  0.00000000000E+00 0.  1.
          1   -1    0    0  501    0  0.00000000000E+00 -0.00000000000E+00 -0.14210959930E+04  0.14210959930E+04  0.00000000000E+00 0. -1.
        -24    2    1    2    0    0 -0.50891071370E+03 -0.73053400654E+03  0.55161235151E+03  0.10504241149E+04  0.80278175674E+02 0.  0.
        254    2    1    2    0    0  0.50891071370E+03  0.73053400654E+03 -0.83190298205E+03  0.15114772405E+04  0.89433261591E+03 0.  0.
         23    2    4    4    0    0  0.62183548199E+03  0.12930900204E+03 -0.46260806991E+03  0.79102838546E+03  0.91211269032E+02 0.  0.
         23    2    4    4    0    0 -0.11292476829E+03  0.60122500450E+03 -0.36929491214E+03  0.72044885507E+03  0.91892933916E+02 0.  0.
          1    1    3    3  502    0 -0.30315618622E+03 -0.42483095988E+03  0.36889428314E+03  0.63911502083E+03  0.00000000000E+00 0. -1.
         -2    1    3    3    0  502 -0.20575452748E+03 -0.30570304666E+03  0.18271806837E+03  0.41130909402E+03  0.00000000000E+00 0.  1.
         13    1    5    5    0    0  0.25712311078E+03  0.98464276066E+02 -0.18650260966E+03  0.33255184733E+03  0.00000000000E+00 0.  1.
        -13    1    5    5    0    0  0.36471237121E+03  0.30844725973E+02 -0.27610546025E+03  0.45847653813E+03  0.00000000000E+00 0. -1.
          4    1    6    6  503    0  0.13156797641E+02  0.21882550992E+02 -0.18652564839E+02  0.31620650486E+02  0.00000000000E+00 0. -1.
         -4    1    6    6    0  503 -0.12608156593E+03  0.57934245351E+03 -0.35064234731E+03  0.68882820458E+03  0.00000000000E+00 0.  1.
<mgrwt>
<rscale>  0 0.25465223E+04</rscale>
<asrwt>0</asrwt>
<pdfrwt beam="1">  1        1 0.21863015E+00 0.25465223E+04</pdfrwt>
<pdfrwt beam="2">  1       -2 0.17550852E+00 0.25465223E+04</pdfrwt>
<totfact> 0.11240890E+00</totfact>
</mgrwt>
</event>
<event>
12    5  0.5041746E-008  0.2714296E+04  0.7818608E-02  0.8330381E-01
          1   -1    0    0  501    0  0.00000000000E+00  0.00000000000E+00  0.23465570014E+04  0.23465570014E+04  0.00000000000E+00 0. -1.
         -2   -1    0    0    0  501 -0.00000000000E+00 -0.00000000000E+00 -0.78491639765E+03  0.78491639765E+03  0.00000000000E+00 0.  1.
        -24    2    1    2    0    0  0.32944481018E+03  0.30073609255E+03 -0.59393442971E+03  0.74705064158E+03  0.79689861139E+02 0.  0.
        254    2    1    2    0    0 -0.32944481018E+03 -0.30073609255E+03  0.21555750334E+04  0.23844227574E+04  0.91651081887E+03 0.  0.
         23    2    4    4    0    0 -0.45746640391E+03 -0.54214947582E+03  0.17093071544E+04  0.18526069364E+04  0.84970276416E+02 0.  0.
         23    2    4    4    0    0  0.12802159373E+03  0.24141338327E+03  0.44626787906E+03  0.53181582106E+03  0.94884654024E+02 0.  0.
          1    1    3    3  502    0  0.76593228615E+02  0.42294530661E+02 -0.79167918973E+02  0.11799537867E+03  0.00000000000E+00 0. -1.
         -2    1    3    3    0  502  0.25285158157E+03  0.25844156189E+03 -0.51476651074E+03  0.62905526291E+03  0.00000000000E+00 0.  1.
         13    1    5    5    0    0  0.20577942489E+01 -0.13895630307E+02  0.27506802797E+02  0.30886036633E+02  0.00000000000E+00 0.  1.
        -13    1    5    5    0    0 -0.45952419816E+03 -0.52825384551E+03  0.16818003516E+04  0.18217208998E+04  0.00000000000E+00 0. -1.
          1    1    6    6  503    0  0.40057589084E+02  0.13454079299E+03  0.29547620117E+03  0.32712691861E+03  0.00000000000E+00 0.  1.
         -1    1    6    6    0  503  0.87964004644E+02  0.10687259028E+03  0.15079167789E+03  0.20468890245E+03  0.00000000000E+00 0. -1.
<mgrwt>
<rscale>  0 0.27142963E+04</rscale>
<asrwt>0</asrwt>
<pdfrwt beam="1">  1        1 0.36100877E+00 0.27142963E+04</pdfrwt>
<pdfrwt beam="2">  1       -2 0.12075637E+00 0.27142963E+04</pdfrwt>
<totfact> 0.69300662E-01</totfact>
</mgrwt>
</event>
<event>
12    5  0.5041746E-008  0.1600692E+04  0.7818608E-02  0.8820123E-01
          1   -1    0    0  501    0  0.00000000000E+00  0.00000000000E+00  0.97468313108E+03  0.97468313108E+03  0.00000000000E+00 0. -1.
         -2   -1    0    0    0  501 -0.00000000000E+00 -0.00000000000E+00 -0.65719164692E+03  0.65719164692E+03  0.00000000000E+00 0.  1.
        -24    2    1    2    0    0  0.23780372258E+03 -0.26418266873E+03 -0.30428502098E+03  0.47552415523E+03  0.84798321254E+02 0.  0.
        254    2    1    2    0    0 -0.23780372258E+03  0.26418266873E+03  0.62177650514E+03  0.11563506228E+04  0.90785331827E+03 0.  0.
         23    2    4    4    0    0 -0.55235838129E+03  0.57945139191E+02  0.23838075465E+03  0.61145373257E+03  0.92697693346E+02 0.  0.
         23    2    4    4    0    0  0.31455465872E+03  0.20623752954E+03  0.38339575049E+03  0.54489689019E+03  0.91879091930E+02 0.  0.
          3    1    3    3  502    0  0.74756501939E+02 -0.96580071607E+02 -0.55655565456E+02  0.13421544911E+03  0.00000000000E+00 0. -1.
         -4    1    3    3    0  502  0.16304722064E+03 -0.16760259713E+03 -0.24862945552E+03  0.34130870612E+03  0.00000000000E+00 0.  1.
         13    1    5    5    0    0  0.10718705303E+01 -0.31524094195E+01 -0.31015416350E+01  0.45504013115E+01  0.00000000000E+00 0.  1.
        -13    1    5    5    0    0 -0.55343025182E+03  0.61097548611E+02  0.24148229629E+03  0.60690333126E+03  0.00000000000E+00 0. -1.
          4    1    6    6  503    0  0.29021252526E+03  0.15874209784E+03  0.30422029969E+03  0.44941334447E+03  0.00000000000E+00 0. -1.
         -4    1    6    6    0  503  0.24342133452E+02  0.47495431704E+02  0.79175450795E+02  0.95483545715E+02  0.00000000000E+00 0.  1.
<mgrwt>
<rscale>  0 0.16006919E+04</rscale>
<asrwt>0</asrwt>
<pdfrwt beam="1">  1        1 0.14995125E+00 0.16006919E+04</pdfrwt>
<pdfrwt beam="2">  1       -2 0.10110641E+00 0.16006919E+04</pdfrwt>
<totfact> 0.10721125E+01</totfact>
</mgrwt>
</event>
<event>
12    5  0.5041746E-008  0.1493065E+04  0.7818608E-02  0.8889078E-01
          1   -1    0    0  501    0  0.00000000000E+00  0.00000000000E+00  0.59126881512E+03  0.59126881512E+03  0.00000000000E+00 0. -1.
         -2   -1    0    0    0  501 -0.00000000000E+00 -0.00000000000E+00 -0.94256768172E+03  0.94256768172E+03  0.00000000000E+00 0.  1.
        -24    2    1    2    0    0  0.32916110632E+03 -0.27508630418E+03  0.64458094570E+02  0.44120249897E+03  0.80531301264E+02 0.  0.
        254    2    1    2    0    0 -0.32916110632E+03  0.27508630418E+03 -0.41575696116E+03  0.10926339979E+04  0.91486375700E+03 0.  0.
         23    2    4    4    0    0 -0.33808495312E+03 -0.12568291461E+02  0.20229041900E+03  0.40484888956E+03  0.92313662476E+02 0.  0.
         23    2    4    4    0    0  0.89238468015E+01  0.28765459564E+03 -0.61804738016E+03  0.68778510831E+03  0.90779896746E+02 0.  0.
          1    1    3    3  502    0  0.18633527990E+03 -0.15291108993E+03 -0.42587985443E+01  0.24108250730E+03  0.00000000000E+00 0. -1.
         -2    1    3    3    0  502  0.14282582642E+03 -0.12217521425E+03  0.68716893115E+02  0.20011999168E+03  0.00000000000E+00 0.  1.
         13    1    5    5    0    0 -0.90616614251E+02 -0.20782202734E+02  0.10114785121E+03  0.13738325419E+03  0.00000000000E+00 0. -1.
        -13    1    5    5    0    0 -0.24746833887E+03  0.82139112728E+01  0.10114256779E+03  0.26746563536E+03  0.00000000000E+00 0.  1.
          4    1    6    6  503    0 -0.11730764298E+02  0.38142417883E+02 -0.34330069102E+02  0.52640369656E+02  0.00000000000E+00 0. -1.
         -4    1    6    6    0  503  0.20654611100E+02  0.24951217776E+03 -0.58371731106E+03  0.63514473865E+03  0.00000000000E+00 0.  1.
<mgrwt>
<rscale>  0 0.14930651E+04</rscale>
<asrwt>0</asrwt>
<pdfrwt beam="1">  1        1 0.90964433E-01 0.14930651E+04</pdfrwt>
<pdfrwt beam="2">  1       -2 0.14501041E+00 0.14930651E+04</pdfrwt>
<totfact> 0.97005876E+00</totfact>
</mgrwt>
</event>
<event>
12    5  0.5041746E-008  0.1207758E+04  0.7818608E-02  0.9106093E-01
         -2   -1    0    0    0  501 -0.00000000000E+00  0.00000000000E+00  0.25357162105E+03  0.25357162105E+03  0.00000000000E+00 0.  1.
          1   -1    0    0  501    0  0.00000000000E+00 -0.00000000000E+00 -0.14381345158E+04  0.14381345158E+04  0.00000000000E+00 0. -1.
        -24    2    1    2    0    0 -0.19726680110E+03 -0.75152277467E+02 -0.87648314568E+02  0.24198751133E+03  0.79458624257E+02 0.  0.
        254    2    1    2    0    0  0.19726680110E+03  0.75152277467E+02 -0.10969145802E+04  0.14497186255E+04  0.92406733593E+03 0.  0.
         23    2    4    4    0    0 -0.21413780173E+03  0.29948054818E+03 -0.18839737869E+03  0.42337491304E+03  0.90604347732E+02 0.  0.
         23    2    4    4    0    0  0.41140460284E+03 -0.22432827071E+03 -0.90851720151E+03  0.10263437125E+04  0.91656917113E+02 0.  0.
          3    1    3    3  502    0  0.39193476289E+01 -0.11021452780E+02 -0.14246045110E+02  0.18433217530E+02  0.00000000000E+00 0. -1.
         -4    1    3    3    0  502 -0.20118614873E+03 -0.64130824687E+02 -0.73402269458E+02  0.22355429380E+03  0.00000000000E+00 0.  1.
         13    1    5    5    0    0 -0.52665245193E+02  0.20057514299E+02 -0.30889643404E+02  0.64265869641E+02  0.00000000000E+00 0.  1.
        -13    1    5    5    0    0 -0.16147255654E+03  0.27942303388E+03 -0.15750773529E+03  0.35910904340E+03  0.00000000000E+00 0. -1.
          2    1    6    6  503    0  0.23549233258E+03 -0.17007699021E+03 -0.49986303892E+03  0.57814001676E+03  0.00000000000E+00 0. -1.
         -2    1    6    6    0  503  0.17591227025E+03 -0.54251280499E+02 -0.40865416259E+03  0.44820369573E+03  0.00000000000E+00 0.  1.
<mgrwt>
<rscale>  0 0.12077584E+04</rscale>
<asrwt>0</asrwt>
<pdfrwt beam="1">  1        1 0.22125146E+00 0.12077584E+04</pdfrwt>
<pdfrwt beam="2">  1       -2 0.39011018E-01 0.12077584E+04</pdfrwt>
<totfact> 0.38934819E+01</totfact>
</mgrwt>
</event>
<event>
12    5  0.5041746E-008  0.1256374E+04  0.7818608E-02  0.9064894E-01
         -2   -1    0    0    0  501 -0.00000000000E+00  0.00000000000E+00  0.24323382350E+03  0.24323382350E+03  0.00000000000E+00 0.  1.
          1   -1    0    0  501    0  0.00000000000E+00 -0.00000000000E+00 -0.16223860781E+04  0.16223860781E+04  0.00000000000E+00 0. -1.
        -24    2    1    2    0    0 -0.21203022863E+03 -0.20669736271E+03 -0.36486377553E+03  0.47674146026E+03  0.80475012469E+02 0.  0.
        254    2    1    2    0    0  0.21203022863E+03  0.20669736271E+03 -0.10142884790E+04  0.13888784413E+04  0.90139979388E+03 0.  0.
         23    2    4    4    0    0 -0.27217699118E+02 -0.14567562899E+03 -0.92875474575E+03  0.94503249805E+03  0.92405912068E+02 0.  0.
         23    2    4    4    0    0  0.23924792775E+03  0.35237299170E+03 -0.85533733291E+02  0.44384594326E+03  0.90977500540E+02 0.  0.
          1    1    3    3  502    0 -0.61664411287E+02 -0.67295774325E+02 -0.17461577566E+03  0.19703271294E+03  0.00000000000E+00 0. -1.
         -2    1    3    3    0  502 -0.15036581734E+03 -0.13940158839E+03 -0.19024799987E+03  0.27970874732E+03  0.00000000000E+00 0.  1.
         13    1    5    5    0    0  0.62457140852E+01  0.85461600015E+01 -0.19530110778E+02  0.22214207666E+02  0.00000000000E+00 0. -1.
        -13    1    5    5    0    0 -0.33463413203E+02 -0.15422178899E+03 -0.90922463497E+03  0.92281829038E+03  0.00000000000E+00 0.  1.
          2    1    6    6  503    0  0.56420363520E+02  0.14727867118E+03 -0.60730245369E+01  0.15783265198E+03  0.00000000000E+00 0. -1.
         -2    1    6    6    0  503  0.18282756423E+03  0.20509432052E+03 -0.79460708754E+02  0.28601329128E+03  0.00000000000E+00 0.  1.
<mgrwt>
<rscale>  0 0.12563744E+04</rscale>
<asrwt>0</asrwt>
<pdfrwt beam="1">  1        1 0.24959787E+00 0.12563744E+04</pdfrwt>
<pdfrwt beam="2">  1       -2 0.37420586E-01 0.12563744E+04</pdfrwt>
<totfact> 0.31381264E+01</totfact>
</mgrwt>
</event>
<event>
12    5  0.5041746E-008  0.2669869E+04  0.7818608E-02  0.8344848E-01
          1   -1    0    0  501    0  0.00000000000E+00  0.00000000000E+00  0.23781417175E+04  0.23781417175E+04  0.00000000000E+00 0. -1.
         -2   -1    0    0    0  501 -0.00000000000E+00 -0.00000000000E+00 -0.74934574297E+03  0.74934574297E+03  0.00000000000E+00 0.  1.
        -24    2    1    2    0    0 -0.94882660891E+03 -0.48382135987E+03  0.10869657634E+03  0.10735448954E+04  0.79552841551E+02 0.  0.
        254    2    1    2    0    0  0.94882660891E+03  0.48382135987E+03  0.15200993982E+04  0.20539425651E+04  0.87955832006E+03 0.  0.
         23    2    4    4    0    0  0.11016055154E+04  0.43139466306E+03  0.13615134618E+04  0.18058756080E+04  0.88497107135E+02 0.  0.
         23    2    4    4    0    0 -0.15277890646E+03  0.52426696808E+02  0.15858593641E+03  0.24806695716E+03  0.10147789520E+03 0.  0.
          3    1    3    3  502    0 -0.10843183696E+03 -0.82825695113E+02  0.23988434305E+02  0.13853881773E+03  0.00000000000E+00 0. -1.
         -4    1    3    3    0  502 -0.84039477195E+03 -0.40099566475E+03  0.84708142034E+02  0.93500607762E+03  0.00000000000E+00 0.  1.
         13    1    5    5    0    0  0.11682129596E+02  0.11208798156E+02  0.81784176670E+01  0.18138242019E+02  0.00000000000E+00 0. -1.
        -13    1    5    5    0    0  0.10899233858E+04  0.42018586490E+03  0.13533350441E+04  0.17877373659E+04  0.00000000000E+00 0.  1.
          3    1    6    6  503    0 -0.18001606048E+02  0.48509737292E+02  0.68752758343E+02  0.86047627581E+02  0.00000000000E+00 0. -1.
         -3    1    6    6    0  503 -0.13477730041E+03  0.39169595160E+01  0.89833178062E+02  0.16201932958E+03  0.00000000000E+00 0.  1.
<mgrwt>
<rscale>  0 0.26698692E+04</rscale>
<asrwt>0</asrwt>
<pdfrwt beam="1">  1        1 0.36586795E+00 0.26698692E+04</pdfrwt>
<pdfrwt beam="2">  1       -2 0.11528396E+00 0.26698692E+04</pdfrwt>
<totfact> 0.74185248E-01</totfact>
</mgrwt>
</event>
<event>
12    5  0.5041746E-008  0.1737226E+04  0.7818608E-02  0.8740413E-01
         -2   -1    0    0    0  501 -0.00000000000E+00  0.00000000000E+00  0.33913455820E+03  0.33913455820E+03  0.00000000000E+00 0.  1.
          1   -1    0    0  501    0  0.00000000000E+00 -0.00000000000E+00 -0.22247468013E+04  0.22247468013E+04  0.00000000000E+00 0. -1.
        -24    2    1    2    0    0  0.52557665449E+03  0.20869911339E+03 -0.11055465388E+04  0.12442889355E+04  0.78966232898E+02 0.  0.
        254    2    1    2    0    0 -0.52557665449E+03 -0.20869911339E+03 -0.78006570428E+03  0.13195924240E+04  0.90168482448E+03 0.  0.
         23    2    4    4    0    0 -0.24598160207E+03 -0.19508689441E+03  0.13825575827E+03  0.35506450287E+03  0.91598589372E+02 0.  0.
         23    2    4    4    0    0 -0.27959505242E+03 -0.13612218974E+02 -0.91832146255E+03  0.96452792108E+03  0.92957603906E+02 0.  0.
          1    1    3    3  502    0  0.36117874410E+03  0.12688099935E+03 -0.81740421221E+03  0.90260651412E+03  0.00000000000E+00 0. -1.
         -2    1    3    3    0  502  0.16439791039E+03  0.81818114040E+02 -0.28814232658E+03  0.34168242140E+03  0.00000000000E+00 0.  1.
         13    1    5    5    0    0 -0.15628982216E+03 -0.76377615328E+02  0.10300024004E+03  0.20216106966E+03  0.00000000000E+00 0. -1.
        -13    1    5    5    0    0 -0.89691779911E+02 -0.11870927909E+03  0.35255518228E+02  0.15290343322E+03  0.00000000000E+00 0.  1.
          3    1    6    6  503    0 -0.26445942520E+03 -0.25647719575E+02 -0.89797030051E+03  0.93645461913E+03  0.00000000000E+00 0. -1.
         -3    1    6    6    0  503 -0.15135627215E+02  0.12035500600E+02 -0.20351162039E+02  0.28073301947E+02  0.00000000000E+00 0.  1.
<mgrwt>
<rscale>  0 0.17372260E+04</rscale>
<asrwt>0</asrwt>
<pdfrwt beam="1">  1        1 0.34226875E+00 0.17372260E+04</pdfrwt>
<pdfrwt beam="2">  1       -2 0.52174546E-01 0.17372260E+04</pdfrwt>
<totfact> 0.60567823E+00</totfact>
</mgrwt>
</event>
<event>
12    5  0.5041746E-008  0.1151349E+04  0.7818608E-02  0.9156540E-01
         -2   -1    0    0    0  501 -0.00000000000E+00  0.00000000000E+00  0.14168803370E+03  0.14168803370E+03  0.00000000000E+00 0.  1.
          1   -1    0    0  501    0  0.00000000000E+00 -0.00000000000E+00 -0.23389485297E+04  0.23389485297E+04  0.00000000000E+00 0. -1.
        -24    2    1    2    0    0  0.80221832898E+02  0.61724777072E+02 -0.26759037670E+02  0.13129528774E+03  0.79226989763E+02 0.  0.
        254    2    1    2    0    0 -0.80221832898E+02 -0.61724777072E+02 -0.21705014584E+04  0.23493412757E+04  0.89335455353E+03 0.  0.
         23    2    4    4    0    0  0.14741236640E+03  0.13565396905E+02 -0.10186319790E+02  0.17386046146E+03  0.90605039523E+02 0.  0.
         23    2    4    4    0    0 -0.22763419930E+03 -0.75290173977E+02 -0.21603151386E+04  0.21754808142E+04  0.90935890181E+02 0.  0.
          3    1    3    3  502    0  0.33153980557E+01  0.30875602885E+02 -0.36431020986E+02  0.47869760892E+02  0.00000000000E+00 0. -1.
         -4    1    3    3    0  502  0.76906434842E+02  0.30849174188E+02  0.96719833165E+01  0.83425526846E+02  0.00000000000E+00 0.  1.
         13    1    5    5    0    0  0.14603603290E+03  0.31619235495E+02 -0.23672747242E+02  0.15128350181E+03  0.00000000000E+00 0.  1.
        -13    1    5    5    0    0  0.13763335068E+01 -0.18053838590E+02  0.13486427452E+02  0.22576959653E+02  0.00000000000E+00 0. -1.
          3    1    6    6  503    0  0.17314198153E+01  0.10566980293E+02 -0.13197342773E+03  0.13240711656E+03  0.00000000000E+00 0. -1.
         -3    1    6    6    0  503 -0.22936561912E+03 -0.85857154270E+02 -0.20283417109E+04  0.20430736977E+04  0.00000000000E+00 0.  1.
<mgrwt>
<rscale>  0 0.11513488E+04</rscale>
<asrwt>0</asrwt>
<pdfrwt beam="1">  1        1 0.35983824E+00 0.11513488E+04</pdfrwt>
<pdfrwt beam="2">  1       -2 0.21798159E-01 0.11513488E+04</pdfrwt>
<totfact> 0.28160394E+01</totfact>
</mgrwt>
</event>
<event>
12    5  0.5041746E-008  0.1339530E+04  0.7818608E-02  0.8998792E-01
          1   -1    0    0  501    0  0.00000000000E+00  0.00000000000E+00  0.25322438998E+04  0.25322438998E+04  0.00000000000E+00 0. -1.
         -2   -1    0    0    0  501 -0.00000000000E+00 -0.00000000000E+00 -0.17714916071E+03  0.17714916071E+03  0.00000000000E+00 0.  1.
        -24    2    1    2    0    0  0.64311236965E+01 -0.22888244003E+03  0.11993851286E+04  0.12236510483E+04  0.79803950405E+02 0.  0.
        254    2    1    2    0    0 -0.64311236965E+01  0.22888244003E+03  0.11557096105E+04  0.14857420123E+04  0.90517185800E+03 0.  0.
         23    2    4    4    0    0 -0.26925245277E+03 -0.10825647793E+03  0.64981210257E+02  0.31078276449E+03  0.90260848006E+02 0.  0.
         23    2    4    4    0    0  0.26282132908E+03  0.33713891795E+03  0.10907284003E+04  0.11749592478E+04  0.90017163964E+02 0.  0.
          1    1    3    3  502    0  0.28103489139E+02 -0.16183388727E+03  0.68262578560E+03  0.70210966119E+03  0.00000000000E+00 0. -1.
         -2    1    3    3    0  502 -0.21672365443E+02 -0.67048552758E+02  0.51675934299E+03  0.52154138706E+03  0.00000000000E+00 0.  1.
         13    1    5    5    0    0 -0.18086121677E+03 -0.10257244124E+03  0.13559508149E+02  0.20836445400E+03  0.00000000000E+00 0.  1.
        -13    1    5    5    0    0 -0.88391236006E+02 -0.56840366908E+01  0.51421702108E+02  0.10241831049E+03  0.00000000000E+00 0. -1.
          2    1    6    6  503    0  0.11160870896E+02  0.10253411805E+02  0.99672383576E+01  0.18139551629E+02  0.00000000000E+00 0. -1.
         -2    1    6    6    0  503  0.25166045818E+03  0.32688550615E+03  0.10807611619E+04  0.11568196962E+04  0.00000000000E+00 0.  1.
<mgrwt>
<rscale>  0 0.13395296E+04</rscale>
<asrwt>0</asrwt>
<pdfrwt beam="1">  1        1 0.38957596E+00 0.13395296E+04</pdfrwt>
<pdfrwt beam="2">  1       -2 0.27253719E-01 0.13395296E+04</pdfrwt>
<totfact> 0.13618899E+01</totfact>
</mgrwt>
</event>
<event>
12    5  0.5041746E-008  0.1215695E+04  0.7818608E-02  0.9099229E-01
          1   -1    0    0  501    0  0.00000000000E+00  0.00000000000E+00  0.69778442341E+03  0.69778442341E+03  0.00000000000E+00 0. -1.
         -2   -1    0    0    0  501 -0.00000000000E+00 -0.00000000000E+00 -0.52950239220E+03  0.52950239220E+03  0.00000000000E+00 0.  1.
        -24    2    1    2    0    0  0.20412492465E+02  0.12712858584E+03 -0.16226369493E+03  0.22341120772E+03  0.83694168572E+02 0.  0.
        254    2    1    2    0    0 -0.20412492465E+02 -0.12712858584E+03  0.33054572615E+03  0.10038756079E+04  0.93910990404E+03 0.  0.
         23    2    4    4    0    0  0.37599766700E+03  0.36690616438E+02  0.40241947235E+03  0.55946285214E+03  0.91306102072E+02 0.  0.
         23    2    4    4    0    0 -0.39641015947E+03 -0.16381920228E+03 -0.71873746202E+02  0.44441275576E+03  0.91428204204E+02 0.  0.
          3    1    3    3  502    0  0.11002583438E+02  0.18750067536E+02  0.64403794451E+01  0.22673781385E+02  0.00000000000E+00 0. -1.
         -4    1    3    3    0  502  0.94099090269E+01  0.10837851831E+03 -0.16870407438E+03  0.20073742633E+03  0.00000000000E+00 0.  1.
         13    1    5    5    0    0  0.32108303208E+03  0.56157700153E+02  0.30764218783E+03  0.44820945607E+03  0.00000000000E+00 0.  1.
        -13    1    5    5    0    0  0.54914634917E+02 -0.19467083715E+02  0.94777284518E+02  0.11125339607E+03  0.00000000000E+00 0. -1.
          3    1    6    6  503    0 -0.13794181280E+03 -0.44130243835E+02 -0.66899783512E+02  0.15953370545E+03  0.00000000000E+00 0. -1.
         -3    1    6    6    0  503 -0.25846834666E+03 -0.11968895845E+03 -0.49739626900E+01  0.28487905031E+03  0.00000000000E+00 0.  1.
<mgrwt>
<rscale>  0 0.12156949E+04</rscale>
<asrwt>0</asrwt>
<pdfrwt beam="1">  1        1 0.10735145E+00 0.12156949E+04</pdfrwt>
<pdfrwt beam="2">  1       -2 0.81461907E-01 0.12156949E+04</pdfrwt>
<totfact> 0.31457738E+01</totfact>
</mgrwt>
</event>
<event>
12    5  0.5041746E-008  0.2707859E+04  0.7818608E-02  0.8332459E-01
         -2   -1    0    0    0  501 -0.00000000000E+00  0.00000000000E+00  0.55561519394E+03  0.55561519394E+03  0.00000000000E+00 0.  1.
          1   -1    0    0  501    0  0.00000000000E+00 -0.00000000000E+00 -0.32992718257E+04  0.32992718257E+04  0.00000000000E+00 0. -1.
        -24    2    1    2    0    0 -0.18488947848E+03 -0.11571347549E+04 -0.15993741702E+04  0.19843161033E+04  0.79797878892E+02 0.  0.
        254    2    1    2    0    0  0.18488947848E+03  0.11571347549E+04 -0.11442824615E+04  0.18705709163E+04  0.90360845552E+03 0.  0.
         23    2    4    4    0    0 -0.21538178654E+03  0.91117998329E+03 -0.49224370754E+03  0.10616651379E+04  0.90502605157E+02 0.  0.
         23    2    4    4    0    0  0.40027126502E+03  0.24595477158E+03 -0.65203875400E+03  0.80890577836E+03  0.91995577562E+02 0.  0.
          3    1    3    3  502    0 -0.17269619334E+03 -0.10075493527E+04 -0.14330696240E+04  0.17603034456E+04  0.00000000000E+00 0. -1.
         -4    1    3    3    0  502 -0.12193285136E+02 -0.14958540217E+03 -0.16630454623E+03  0.22401265777E+03  0.00000000000E+00 0.  1.
         13    1    5    5    0    0 -0.85229201333E+02  0.44837906435E+03 -0.19409301924E+03  0.49596360978E+03  0.00000000000E+00 0. -1.
        -13    1    5    5    0    0 -0.13015258521E+03  0.46280091894E+03 -0.29815068830E+03  0.56570152814E+03  0.00000000000E+00 0.  1.
          3    1    6    6  503    0  0.11465016531E+03  0.10053724577E+03 -0.15456418660E+03  0.21712320459E+03  0.00000000000E+00 0. -1.
         -3    1    6    6    0  503  0.28562109970E+03  0.14541752581E+03 -0.49747456740E+03  0.59178257377E+03  0.00000000000E+00 0.  1.
<mgrwt>
<rscale>  0 0.27078593E+04</rscale>
<asrwt>0</asrwt>
<pdfrwt beam="1">  1        1 0.50758028E+00 0.27078593E+04</pdfrwt>
<pdfrwt beam="2">  1       -2 0.85479261E-01 0.27078593E+04</pdfrwt>
<totfact> 0.32642801E-01</totfact>
</mgrwt>
</event>
<event>
12    5  0.5041746E-008  0.2860606E+04  0.7818608E-02  0.8284696E-01
          1   -1    0    0  501    0  0.00000000000E+00  0.00000000000E+00  0.12464135370E+04  0.12464135370E+04  0.00000000000E+00 0. -1.
         -2   -1    0    0    0  501 -0.00000000000E+00 -0.00000000000E+00 -0.16413227602E+04  0.16413227602E+04  0.00000000000E+00 0.  1.
        -24    2    1    2    0    0  0.15603877934E+03  0.19010389211E+03 -0.14533445843E+04  0.14762123875E+04  0.80653218918E+02 0.  0.
        254    2    1    2    0    0 -0.15603877934E+03 -0.19010389211E+03  0.10584353612E+04  0.14115239097E+04  0.90090329302E+03 0.  0.
         23    2    4    4    0    0 -0.34797442366E+02  0.20471708146E+03 -0.43591342119E+02  0.23107652106E+03  0.91521626089E+02 0.  0.
         23    2    4    4    0    0 -0.12124133698E+03 -0.39482097357E+03  0.11020267033E+04  0.11804473886E+04  0.91706704008E+02 0.  0.
          3    1    3    3  502    0  0.67082323430E+02  0.31650384186E+02 -0.52905955294E+03  0.53423383971E+03  0.00000000000E+00 0. -1.
         -4    1    3    3    0  502  0.88956455911E+02  0.15845350793E+03 -0.92428503139E+03  0.94197854778E+03  0.00000000000E+00 0.  1.
         13    1    5    5    0    0  0.56483854246E+01  0.15889024252E+03 -0.56267036017E+02  0.16865346948E+03  0.00000000000E+00 0. -1.
        -13    1    5    5    0    0 -0.40445827790E+02  0.45826838938E+02  0.12675693898E+02  0.62423051580E+02  0.00000000000E+00 0.  1.
          3    1    6    6  503    0 -0.76919727254E+02 -0.24264194738E+03  0.79756194081E+03  0.83719580057E+03  0.00000000000E+00 0. -1.
         -3    1    6    6    0  503 -0.44321609721E+02 -0.15217902620E+03  0.30446476249E+03  0.34325158806E+03  0.00000000000E+00 0.  1.
<mgrwt>
<rscale>  0 0.28606062E+04</rscale>
<asrwt>0</asrwt>
<pdfrwt beam="1">  1        1 0.19175593E+00 0.28606062E+04</pdfrwt>
<pdfrwt beam="2">  1       -2 0.25251119E+00 0.28606062E+04</pdfrwt>
<totfact> 0.46346392E-01</totfact>
</mgrwt>
</event>
<event>
12    5  0.5041746E-008  0.1785509E+04  0.7818608E-02  0.8714044E-01
          1   -1    0    0  501    0  0.00000000000E+00  0.00000000000E+00  0.13491801257E+04  0.13491801257E+04  0.00000000000E+00 0. -1.
         -2   -1    0    0    0  501 -0.00000000000E+00 -0.00000000000E+00 -0.59073713161E+03  0.59073713161E+03  0.00000000000E+00 0.  1.
        -24    2    1    2    0    0  0.21284537339E+03  0.25561700208E+03  0.91313314736E+03  0.97498944178E+03  0.78415955264E+02 0.  0.
        254    2    1    2    0    0 -0.21284537339E+03 -0.25561700208E+03 -0.15469015327E+03  0.96492781554E+03  0.89247601702E+03 0.  0.
         23    2    4    4    0    0 -0.12216957100E+03  0.24777142389E+03 -0.30757409229E+03  0.42325319036E+03  0.90693761229E+02 0.  0.
         23    2    4    4    0    0 -0.90675802390E+02 -0.50338842598E+03  0.15288393902E+03  0.54167462518E+03  0.91738172012E+02 0.  0.
          3    1    3    3  502    0  0.95533356903E+02  0.17507804730E+03  0.53539487216E+03  0.57133756577E+03  0.00000000000E+00 0. -1.
         -4    1    3    3    0  502  0.11731201649E+03  0.80538954780E+02  0.37773827521E+03  0.40365187601E+03  0.00000000000E+00 0.  1.
         13    1    5    5    0    0 -0.15343831069E+02 -0.19525999411E+01 -0.41418169369E+01  0.16012509046E+02  0.00000000000E+00 0.  1.
        -13    1    5    5    0    0 -0.10682573993E+03  0.24972402384E+03 -0.30343227535E+03  0.40724068132E+03  0.00000000000E+00 0. -1.
          3    1    6    6  503    0 -0.71968363502E+02 -0.25173110779E+03  0.11705406285E+03  0.28679199711E+03  0.00000000000E+00 0.  1.
         -3    1    6    6    0  503 -0.18707438888E+02 -0.25165731819E+03  0.35829876175E+02  0.25488262807E+03  0.00000000000E+00 0. -1.
<mgrwt>
<rscale>  0 0.17855092E+04</rscale>
<asrwt>0</asrwt>
<pdfrwt beam="1">  1        1 0.20756617E+00 0.17855092E+04</pdfrwt>
<pdfrwt beam="2">  1       -2 0.90882636E-01 0.17855092E+04</pdfrwt>
<totfact> 0.71469391E+00</totfact>
</mgrwt>
</event>
<event>
12    5  0.5041746E-008  0.1383907E+04  0.7818608E-02  0.8965551E-01
         -2   -1    0    0    0  501 -0.00000000000E+00  0.00000000000E+00  0.55670793454E+03  0.55670793454E+03  0.00000000000E+00 0.  1.
          1   -1    0    0  501    0  0.00000000000E+00 -0.00000000000E+00 -0.86005485192E+03  0.86005485192E+03  0.00000000000E+00 0. -1.
        -24    2    1    2    0    0 -0.27212345361E+03 -0.25683544459E+03  0.53953122087E+02  0.38662850368E+03  0.80963206894E+02 0.  0.
        254    2    1    2    0    0  0.27212345361E+03  0.25683544459E+03 -0.35730003948E+03  0.10301342828E+04  0.89078488018E+03 0.  0.
         23    2    4    4    0    0 -0.16664324831E+03  0.35287443094E+03  0.65589851933E+02  0.40639600548E+03  0.92549167306E+02 0.  0.
         23    2    4    4    0    0  0.43876670192E+03 -0.96038986355E+02 -0.42288989141E+03  0.62373827731E+03  0.92053640375E+02 0.  0.
          3    1    3    3  502    0 -0.26133440762E+03 -0.22302287006E+03  0.32357162778E+02  0.34508239474E+03  0.00000000000E+00 0. -1.
         -4    1    3    3    0  502 -0.10789045995E+02 -0.33812574524E+02  0.21595959309E+02  0.41546108938E+02  0.00000000000E+00 0.  1.
         13    1    5    5    0    0 -0.11565166718E+03  0.24224702808E+03  0.88089229724E+02  0.28252193389E+03  0.00000000000E+00 0. -1.
        -13    1    5    5    0    0 -0.50991581133E+02  0.11062740286E+03 -0.22499377791E+02  0.12387407159E+03  0.00000000000E+00 0.  1.
          3    1    6    6  503    0  0.35941069093E+03 -0.53385887061E+02 -0.37312445044E+03  0.52081470141E+03  0.00000000000E+00 0. -1.
         -3    1    6    6    0  503  0.79356010997E+02 -0.42653099294E+02 -0.49765440972E+02  0.10292357590E+03  0.00000000000E+00 0.  1.
<mgrwt>
<rscale>  0 0.13839066E+04</rscale>
<asrwt>0</asrwt>
<pdfrwt beam="1">  1        1 0.13231613E+00 0.13839066E+04</pdfrwt>
<pdfrwt beam="2">  1       -2 0.85647375E-01 0.13839066E+04</pdfrwt>
<totfact> 0.19900319E+01</totfact>
</mgrwt>
</event>
<event>
12    5  0.5041746E-008  0.2615644E+04  0.7818608E-02  0.8362907E-01
         -2   -1    0    0    0  501 -0.00000000000E+00  0.00000000000E+00  0.86431931912E+03  0.86431931912E+03  0.00000000000E+00 0.  1.
          1   -1    0    0  501    0  0.00000000000E+00 -0.00000000000E+00 -0.19788961184E+04  0.19788961184E+04  0.00000000000E+00 0. -1.
        -24    2    1    2    0    0  0.98637313218E+03 -0.26330810798E+03  0.10438966947E+03  0.10293599321E+04  0.80134581555E+02 0.  0.
        254    2    1    2    0    0 -0.98637313218E+03  0.26330810798E+03 -0.12189664688E+04  0.18138555054E+04  0.87288568951E+03 0.  0.
         23    2    4    4    0    0 -0.62821335165E+03  0.23029755131E+03 -0.16302486369E+03  0.69478837964E+03  0.92004396458E+02 0.  0.
         23    2    4    4    0    0 -0.35815978052E+03  0.33010556671E+02 -0.10559416051E+04  0.11190671258E+04  0.89052981073E+02 0.  0.
          1    1    3    3  502    0  0.29984117193E+03 -0.43636342648E+02  0.40928141413E+02  0.30575148657E+03  0.00000000000E+00 0. -1.
         -2    1    3    3    0  502  0.68653196025E+03 -0.21967176533E+03  0.63461528053E+02  0.72360844555E+03  0.00000000000E+00 0.  1.
         13    1    5    5    0    0 -0.41624404858E+03  0.12224618327E+03 -0.70523912875E+02  0.43951889560E+03  0.00000000000E+00 0. -1.
        -13    1    5    5    0    0 -0.21196930307E+03  0.10805136803E+03 -0.92500950819E+02  0.25526948404E+03  0.00000000000E+00 0.  1.
          3    1    6    6  503    0 -0.26899931797E+03  0.96927484553E+01 -0.66504256233E+03  0.71745117754E+03  0.00000000000E+00 0. -1.
         -3    1    6    6    0  503 -0.89160462548E+02  0.23317808216E+02 -0.39089904275E+03  0.40161594824E+03  0.00000000000E+00 0.  1.
<mgrwt>
<rscale>  0 0.26156438E+04</rscale>
<asrwt>0</asrwt>
<pdfrwt beam="1">  1        1 0.30444555E+00 0.26156438E+04</pdfrwt>
<pdfrwt beam="2">  1       -2 0.13297221E+00 0.26156438E+04</pdfrwt>
<totfact> 0.97621706E-01</totfact>
</mgrwt>
</event>
<event>
12    5  0.5041746E-008  0.1605995E+04  0.7818608E-02  0.8816873E-01
         -2   -1    0    0    0  501 -0.00000000000E+00  0.00000000000E+00  0.25638594092E+03  0.25638594092E+03  0.00000000000E+00 0.  1.
          1   -1    0    0  501    0  0.00000000000E+00 -0.00000000000E+00 -0.25149793117E+04  0.25149793117E+04  0.00000000000E+00 0. -1.
        -24    2    1    2    0    0  0.38029034822E+02 -0.54339688559E+03 -0.80611671191E+03  0.97618124664E+03  0.79870459567E+02 0.  0.
        254    2    1    2    0    0 -0.38029034822E+02  0.54339688559E+03 -0.14524766589E+04  0.17951840060E+04  0.90347705452E+03 0.  0.
         23    2    4    4    0    0  0.93317723749E+02  0.72863506928E+03 -0.75900087032E+03  0.10599377796E+04  0.88139172832E+02 0.  0.
         23    2    4    4    0    0 -0.13134675857E+03 -0.18523818369E+03 -0.69347578860E+03  0.73524622640E+03  0.90073238998E+02 0.  0.
          3    1    3    3  502    0  0.92455182871E+01 -0.23925869534E+03 -0.42422375476E+03  0.48713036962E+03  0.00000000000E+00 0. -1.
         -4    1    3    3    0  502  0.28783516535E+02 -0.30413819024E+03 -0.38189295715E+03  0.48905087702E+03  0.00000000000E+00 0.  1.
         13    1    5    5    0    0  0.10161602340E+03  0.71560501348E+03 -0.73123571383E+03  0.10281643938E+04  0.00000000000E+00 0. -1.
        -13    1    5    5    0    0 -0.82982996476E+01  0.13030055802E+02 -0.27765156489E+02  0.31773385814E+02  0.00000000000E+00 0.  1.
          4    1    6    6  503    0 -0.91479962621E+02 -0.13724772950E+03 -0.60434767923E+03  0.62645162639E+03  0.00000000000E+00 0. -1.
         -4    1    6    6    0  503 -0.39866795950E+02 -0.47990454191E+02 -0.89128109369E+02  0.10879460001E+03  0.00000000000E+00 0.  1.
<mgrwt>
<rscale>  0 0.16059954E+04</rscale>
<asrwt>0</asrwt>
<pdfrwt beam="1">  1        1 0.38691990E+00 0.16059954E+04</pdfrwt>
<pdfrwt beam="2">  1       -2 0.39443990E-01 0.16059954E+04</pdfrwt>
<totfact> 0.67850571E+00</totfact>
</mgrwt>
</event>
<event>
12    5  0.5041746E-008  0.3325979E+04  0.7818608E-02  0.8156316E-01
         -2   -1    0    0    0  501 -0.00000000000E+00  0.00000000000E+00  0.17558394966E+04  0.17558394966E+04  0.00000000000E+00 0.  1.
          1   -1    0    0  501    0  0.00000000000E+00 -0.00000000000E+00 -0.15750494587E+04  0.15750494587E+04  0.00000000000E+00 0. -1.
        -24    2    1    2    0    0  0.30538947740E+03 -0.42429639811E+03 -0.13669008552E+04  0.14665054751E+04  0.94499705840E+02 0.  0.
        254    2    1    2    0    0 -0.30538947740E+03  0.42429639811E+03  0.15476908931E+04  0.18643834802E+04  0.89849234498E+03 0.  0.
         23    2    4    4    0    0 -0.16166986573E+03 -0.64000338817E+02 -0.35639662855E+02  0.19861792628E+03  0.89138690901E+02 0.  0.
         23    2    4    4    0    0 -0.14371961167E+03  0.48829673692E+03  0.15833305560E+04  0.16657655539E+04  0.93542508183E+02 0.  0.
          1    1    3    3  502    0  0.19581517535E+03 -0.19263705995E+03 -0.73139282584E+03  0.78127337434E+03  0.00000000000E+00 0. -1.
         -2    1    3    3    0  502  0.10957430205E+03 -0.23165933816E+03 -0.63550802934E+03  0.68523210081E+03  0.00000000000E+00 0.  1.
         13    1    5    5    0    0 -0.35027041527E+02 -0.58199786631E+02 -0.45126280253E+01  0.68076960961E+02  0.00000000000E+00 0. -1.
        -13    1    5    5    0    0 -0.12664282421E+03 -0.58005521867E+01 -0.31127034830E+02  0.13054096532E+03  0.00000000000E+00 0.  1.
          3    1    6    6  503    0 -0.77771297677E+02  0.20582085588E+03  0.54666944845E+03  0.58928608105E+03  0.00000000000E+00 0. -1.
         -3    1    6    6    0  503 -0.65948313992E+02  0.28247588105E+03  0.10366611076E+04  0.10764794728E+04  0.00000000000E+00 0.  1.
<mgrwt>
<rscale>  0 0.33259790E+04</rscale>
<asrwt>0</asrwt>
<pdfrwt beam="1">  1        1 0.24231530E+00 0.33259790E+04</pdfrwt>
<pdfrwt beam="2">  1       -2 0.27012915E+00 0.33259790E+04</pdfrwt>
<totfact> 0.20422881E-01</totfact>
</mgrwt>
</event>
<event>
12    5  0.5041746E-008  0.1440178E+04  0.7818608E-02  0.8925239E-01
         -2   -1    0    0    0  501 -0.00000000000E+00  0.00000000000E+00  0.58834134548E+03  0.58834134548E+03  0.00000000000E+00 0.  1.
          1   -1    0    0  501    0  0.00000000000E+00 -0.00000000000E+00 -0.88133868666E+03  0.88133868666E+03  0.00000000000E+00 0. -1.
        -24    2    1    2    0    0 -0.48183118336E+02 -0.26868431153E+03 -0.43691502942E+03  0.52165924969E+03  0.81980227470E+02 0.  0.
        254    2    1    2    0    0  0.48183118336E+02  0.26868431153E+03  0.14391768824E+03  0.94802078245E+03  0.89639178422E+03 0.  0.
         23    2    4    4    0    0  0.37892915436E+03  0.27494497221E+03  0.30769994479E+03  0.56775514840E+03  0.92111946783E+02 0.  0.
         23    2    4    4    0    0 -0.33074603602E+03 -0.62606606852E+01 -0.16378225656E+03  0.38026563405E+03  0.91352004161E+02 0.  0.
          1    1    3    3  502    0 -0.29806409710E+02 -0.26446701300E+03 -0.40647264035E+03  0.48585103723E+03  0.00000000000E+00 0. -1.
         -2    1    3    3    0  502 -0.18376708627E+02 -0.42172985232E+01 -0.30442389070E+02  0.35808212452E+02  0.00000000000E+00 0.  1.
         13    1    5    5    0    0  0.16660821295E+02  0.45180663035E+02  0.31598561184E+02  0.57596391792E+02  0.00000000000E+00 0.  1.
        -13    1    5    5    0    0  0.36226833306E+03  0.22976430918E+03  0.27610138361E+03  0.51015875661E+03  0.00000000000E+00 0. -1.
          3    1    6    6  503    0 -0.19734155346E+03  0.40109883839E+02 -0.10706591382E+03  0.22806929080E+03  0.00000000000E+00 0. -1.
         -3    1    6    6    0  503 -0.13340448256E+03 -0.46370544524E+02 -0.56716342735E+02  0.15219634326E+03  0.00000000000E+00 0.  1.
<mgrwt>
<rscale>  0 0.14401778E+04</rscale>
<asrwt>0</asrwt>
<pdfrwt beam="1">  1        1 0.13559057E+00 0.14401778E+04</pdfrwt>
<pdfrwt beam="2">  1       -2 0.90514053E-01 0.14401778E+04</pdfrwt>
<totfact> 0.16750838E+01</totfact>
</mgrwt>
</event>
<event>
12    5  0.5041746E-008  0.1172248E+04  0.7818608E-02  0.9137501E-01
          1   -1    0    0  501    0  0.00000000000E+00  0.00000000000E+00  0.11763369582E+03  0.11763369582E+03  0.00000000000E+00 0. -1.
         -2   -1    0    0    0  501 -0.00000000000E+00 -0.00000000000E+00 -0.29204340156E+04  0.29204340156E+04  0.00000000000E+00 0.  1.
        -24    2    1    2    0    0  0.53292788005E+02  0.23589199872E+03 -0.54117739323E+03  0.59830176138E+03  0.81282657550E+02 0.  0.
        254    2    1    2    0    0 -0.53292788005E+02 -0.23589199872E+03 -0.22616229266E+04  0.24397659500E+04  0.88262929522E+03 0.  0.
         23    2    4    4    0    0  0.17266733469E+03  0.60112088635E+02 -0.73235901635E+02  0.21797670440E+03  0.93396331312E+02 0.  0.
         23    2    4    4    0    0 -0.22596012270E+03 -0.29600408735E+03 -0.21883870249E+04  0.22217892456E+04  0.92915469389E+02 0.  0.
          1    1    3    3  502    0  0.42741386882E+02  0.17705152983E+03 -0.31025129407E+03  0.35976372224E+03  0.00000000000E+00 0. -1.
         -2    1    3    3    0  502  0.10551401123E+02  0.58840468886E+02 -0.23092609916E+03  0.23853803915E+03  0.00000000000E+00 0.  1.
         13    1    5    5    0    0  0.15528751257E+03  0.80948696031E+02 -0.49642010574E+02  0.18201986749E+03  0.00000000000E+00 0. -1.
        -13    1    5    5    0    0  0.17379822125E+02 -0.20836607396E+02 -0.23593891061E+02  0.35956836906E+02  0.00000000000E+00 0.  1.
          2    1    6    6  503    0 -0.18240959271E+03 -0.28305118922E+03 -0.19878536188E+04  0.20161729204E+04  0.00000000000E+00 0. -1.
         -2    1    6    6    0  503 -0.43550529993E+02 -0.12952898137E+02 -0.20053340616E+03  0.20561632527E+03  0.00000000000E+00 0.  1.
<mgrwt>
<rscale>  0 0.11722482E+04</rscale>
<asrwt>0</asrwt>
<pdfrwt beam="1">  1        1 0.18097492E-01 0.11722482E+04</pdfrwt>
<pdfrwt beam="2">  1       -2 0.44929753E+00 0.11722482E+04</pdfrwt>
<totfact> 0.92704945E-01</totfact>
</mgrwt>
</event>
<event>
12    5  0.5041746E-008  0.2299619E+04  0.7818608E-02  0.8478072E-01
          1   -1    0    0  501    0  0.00000000000E+00  0.00000000000E+00  0.18393705612E+04  0.18393705612E+04  0.00000000000E+00 0. -1.
         -2   -1    0    0    0  501 -0.00000000000E+00 -0.00000000000E+00 -0.71875748924E+03  0.71875748924E+03  0.00000000000E+00 0.  1.
        -24    2    1    2    0    0  0.14930780240E+03  0.14080143403E+03 -0.58211397086E+03  0.62233484547E+03  0.79536916798E+02 0.  0.
        254    2    1    2    0    0 -0.14930780240E+03 -0.14080143403E+03  0.17027270428E+04  0.19357932049E+04  0.89771826669E+03 0.  0.
         23    2    4    4    0    0 -0.37104280920E+03 -0.28931126388E+03  0.15304102891E+04  0.16037850145E+04  0.92719717636E+02 0.  0.
         23    2    4    4    0    0  0.22173500680E+03  0.14850982985E+03  0.17231675372E+03  0.33200819048E+03  0.96513170754E+02 0.  0.
          3    1    3    3  502    0  0.95317486785E+01  0.77963975241E+01 -0.41168618809E+01  0.12984090225E+02  0.00000000000E+00 0. -1.
         -4    1    3    3    0  502  0.13977605372E+03  0.13300503650E+03 -0.57799710898E+03  0.60935075525E+03  0.00000000000E+00 0.  1.
         13    1    5    5    0    0 -0.36139865633E+03 -0.28531171778E+03  0.15227316957E+04  0.15908248120E+04  0.00000000000E+00 0.  1.
        -13    1    5    5    0    0 -0.96441528680E+01 -0.39995461018E+01  0.76785933335E+01  0.12960202512E+02  0.00000000000E+00 0. -1.
          4    1    6    6  503    0  0.16317753686E+03  0.10639561179E+03  0.17201733835E+03  0.25987862443E+03  0.00000000000E+00 0. -1.
         -4    1    6    6    0  503  0.58557469942E+02  0.42114218062E+02  0.29941537331E+00  0.72129566049E+02  0.00000000000E+00 0.  1.
<mgrwt>
<rscale>  0 0.22996185E+04</rscale>
<asrwt>0</asrwt>
<pdfrwt beam="1">  1        1 0.28298008E+00 0.22996185E+04</pdfrwt>
<pdfrwt beam="2">  1       -2 0.11057808E+00 0.22996185E+04</pdfrwt>
<totfact> 0.19730093E+00</totfact>
</mgrwt>
</event>
<event>
12    5  0.5041746E-008  0.3075601E+04  0.7818608E-02  0.8222466E-01
         -2   -1    0    0    0  501 -0.00000000000E+00  0.00000000000E+00  0.19315053984E+04  0.19315053984E+04  0.00000000000E+00 0.  1.
          1   -1    0    0  501    0  0.00000000000E+00 -0.00000000000E+00 -0.12243460226E+04  0.12243460226E+04  0.00000000000E+00 0. -1.
        -24    2    1    2    0    0  0.38495522998E+03  0.18516813630E+03  0.16902694126E+04  0.17452602079E+04  0.80279127190E+02 0.  0.
        254    2    1    2    0    0 -0.38495522998E+03 -0.18516813630E+03 -0.98311003685E+03  0.14105912131E+04  0.91694299618E+03 0.  0.
         23    2    4    4    0    0 -0.29903453264E+03 -0.29343812634E+03 -0.15216563412E+02  0.42905238966E+03  0.91251430495E+02 0.  0.
         23    2    4    4    0    0 -0.85920697337E+02  0.10826999005E+03 -0.96789347344E+03  0.98153882349E+03  0.86579033853E+02 0.  0.
          3    1    3    3  502    0  0.19149784523E+02  0.12028232389E+02  0.38659608399E+02  0.44787921846E+02  0.00000000000E+00 0. -1.
         -4    1    3    3    0  502  0.36580544545E+03  0.17313990391E+03  0.16516098042E+04  0.17004722860E+04  0.00000000000E+00 0.  1.
         13    1    5    5    0    0 -0.35779151679E+02 -0.58810139827E+02 -0.32216893337E+02  0.76004660763E+02  0.00000000000E+00 0.  1.
        -13    1    5    5    0    0 -0.26325538096E+03 -0.23462798652E+03  0.17000329925E+02  0.35304772890E+03  0.00000000000E+00 0. -1.
          2    1    6    6  503    0 -0.48208120822E+02  0.77708154609E+02 -0.83617601255E+03  0.84116163974E+03  0.00000000000E+00 0. -1.
         -2    1    6    6    0  503 -0.37712576515E+02  0.30561835438E+02 -0.13171746090E+03  0.14037718375E+03  0.00000000000E+00 0.  1.
<mgrwt>
<rscale>  0 0.30756014E+04</rscale>
<asrwt>0</asrwt>
<pdfrwt beam="1">  1        1 0.18836093E+00 0.30756014E+04</pdfrwt>
<pdfrwt beam="2">  1       -2 0.29715468E+00 0.30756014E+04</pdfrwt>
<totfact> 0.25186796E-01</totfact>
</mgrwt>
</event>
<event>
12    5  0.5041746E-008  0.1456716E+04  0.7818608E-02  0.8913758E-01
          1   -1    0    0  501    0  0.00000000000E+00  0.00000000000E+00  0.12355299670E+04  0.12355299670E+04  0.00000000000E+00 0. -1.
         -4   -1    0    0    0  501 -0.00000000000E+00 -0.00000000000E+00 -0.42937459235E+03  0.42937459235E+03  0.00000000000E+00 0.  1.
        -24    2    1    2    0    0 -0.17677876338E+03  0.18045403999E+03 -0.16857453434E+03  0.31428786722E+03  0.80901780690E+02 0.  0.
        254    2    1    2    0    0  0.17677876338E+03 -0.18045403999E+03  0.97472990902E+03  0.13506166922E+04  0.90014035677E+03 0.  0.
         23    2    4    4    0    0  0.49671867966E+03 -0.15683008283E+03  0.32564425520E+03  0.62115416200E+03  0.91995600002E+02 0.  0.
         23    2    4    4    0    0 -0.31993991628E+03 -0.23623957161E+02  0.64908565382E+03  0.72946253016E+03  0.88790514887E+02 0.  0.
          3    1    3    3  502    0 -0.11886435789E+03  0.15240667399E+03 -0.91383255753E+02  0.21379295892E+03  0.00000000000E+00 0. -1.
         -4    1    3    3    0  502 -0.57914405490E+02  0.28047366009E+02 -0.77191278591E+02  0.10049490830E+03  0.00000000000E+00 0.  1.
         13    1    5    5    0    0  0.49422891140E+03 -0.15056643477E+03  0.33007114840E+03  0.61309006773E+03  0.00000000000E+00 0. -1.
        -13    1    5    5    0    0  0.24897682635E+01 -0.62636480587E+01 -0.44268932000E+01  0.80640942711E+01  0.00000000000E+00 0.  1.
          2    1    6    6  503    0 -0.20090226486E+03  0.28103110717E+02  0.40873712372E+03  0.45630860300E+03  0.00000000000E+00 0. -1.
         -2    1    6    6    0  503 -0.11903765142E+03 -0.51727067878E+02  0.24034853009E+03  0.27315392716E+03  0.00000000000E+00 0.  1.
<mgrwt>
<rscale>  0 0.14567157E+04</rscale>
<asrwt>0</asrwt>
<pdfrwt beam="1">  1        1 0.19008153E+00 0.14567157E+04</pdfrwt>
<pdfrwt beam="2">  1       -4 0.66057630E-01 0.14567157E+04</pdfrwt>
<totfact> 0.10166490E+01</totfact>
</mgrwt>
</event>
<event>
12    5  0.5041746E-008  0.1492519E+04  0.7818608E-02  0.8889443E-01
         -2   -1    0    0    0  501 -0.00000000000E+00  0.00000000000E+00  0.84643307331E+03  0.84643307331E+03  0.00000000000E+00 0.  1.
          1   -1    0    0  501    0  0.00000000000E+00 -0.00000000000E+00 -0.65794139899E+03  0.65794139899E+03  0.00000000000E+00 0. -1.
        -24    2    1    2    0    0  0.94659592533E+02 -0.34905294674E+03 -0.24253377638E+03  0.44258331064E+03  0.79113564492E+02 0.  0.
        254    2    1    2    0    0 -0.94659592533E+02  0.34905294674E+03  0.43102545070E+03  0.10617911617E+04  0.90045495931E+03 0.  0.
         23    2    4    4    0    0  0.21181164476E+03  0.16549109133E+03 -0.18907486365E+03  0.34043726697E+03  0.88863685000E+02 0.  0.
         23    2    4    4    0    0 -0.30647123730E+03  0.18356185541E+03  0.62010031434E+03  0.72135389469E+03  0.90595074258E+02 0.  0.
          3    1    3    3  502    0  0.48308556036E+02 -0.27095705518E+03 -0.20970450545E+03  0.34601650531E+03  0.00000000000E+00 0. -1.
         -4    1    3    3    0  502  0.46351036497E+02 -0.78095891559E+02 -0.32829270931E+02  0.96566805335E+02  0.00000000000E+00 0.  1.
         13    1    5    5    0    0  0.68326088227E+02  0.82686390309E+01 -0.61371539836E+02  0.92213288769E+02  0.00000000000E+00 0. -1.
        -13    1    5    5    0    0  0.14348555654E+03  0.15722245230E+03 -0.12770332381E+03  0.24822397820E+03  0.00000000000E+00 0.  1.
          2    1    6    6  503    0 -0.11092673126E+03  0.34915591120E+02  0.13944090575E+03  0.18156983342E+03  0.00000000000E+00 0. -1.
         -2    1    6    6    0  503 -0.19554450603E+03  0.14864626429E+03  0.48065940860E+03  0.53978406127E+03  0.00000000000E+00 0.  1.
<mgrwt>
<rscale>  0 0.14925192E+04</rscale>
<asrwt>0</asrwt>
<pdfrwt beam="1">  1        1 0.10122175E+00 0.14925192E+04</pdfrwt>
<pdfrwt beam="2">  1       -2 0.13022047E+00 0.14925192E+04</pdfrwt>
<totfact> 0.10955898E+01</totfact>
</mgrwt>
</event>
<event>
12    5  0.5041746E-008  0.1237021E+04  0.7818608E-02  0.9081055E-01
          1   -1    0    0  501    0  0.00000000000E+00  0.00000000000E+00  0.78797445683E+03  0.78797445683E+03  0.00000000000E+00 0. -1.
         -2   -1    0    0    0  501 -0.00000000000E+00 -0.00000000000E+00 -0.48549199060E+03  0.48549199060E+03  0.00000000000E+00 0.  1.
        -24    2    1    2    0    0 -0.12529920818E+02  0.58513644859E+02 -0.18226668327E+03  0.20775752001E+03  0.79757117183E+02 0.  0.
        254    2    1    2    0    0  0.12529920818E+02 -0.58513644859E+02  0.48474914950E+03  0.10657089274E+04  0.94719213176E+03 0.  0.
         23    2    4    4    0    0  0.63474583925E+02  0.36198441567E+03  0.50573482183E+03  0.63225498112E+03  0.94429397647E+02 0.  0.
         23    2    4    4    0    0 -0.50944663108E+02 -0.42049806053E+03 -0.20985672334E+02  0.43345394629E+03  0.89598814190E+02 0.  0.
          1    1    3    3  502    0 -0.20839626235E+02 -0.14862649879E+02 -0.53811698603E+02  0.59589321942E+02  0.00000000000E+00 0. -1.
         -2    1    3    3    0  502  0.83097054168E+01  0.73376294738E+02 -0.12845498467E+03  0.14816819807E+03  0.00000000000E+00 0.  1.
         13    1    5    5    0    0 -0.20040888985E+02  0.15424494213E+03  0.20895488793E+03  0.26049046930E+03  0.00000000000E+00 0. -1.
        -13    1    5    5    0    0  0.83515472911E+02  0.20773947354E+03  0.29677993390E+03  0.37176451182E+03  0.00000000000E+00 0.  1.
          2    1    6    6  503    0 -0.24133700611E+02 -0.19883562752E+02  0.15811861828E+01  0.31309610707E+02  0.00000000000E+00 0. -1.
         -2    1    6    6    0  503 -0.26810962497E+02 -0.40061449778E+03 -0.22566858517E+02  0.40214433558E+03  0.00000000000E+00 0.  1.
<mgrwt>
<rscale>  0 0.12370211E+04</rscale>
<asrwt>0</asrwt>
<pdfrwt beam="1">  1        1 0.12122684E+00 0.12370211E+04</pdfrwt>
<pdfrwt beam="2">  1       -2 0.74691075E-01 0.12370211E+04</pdfrwt>
<totfact> 0.31575569E+01</totfact>
</mgrwt>
</event>
<event>
12    5  0.5041746E-008  0.1642615E+04  0.7818608E-02  0.8794788E-01
          1   -1    0    0  501    0  0.00000000000E+00  0.00000000000E+00  0.15471885232E+04  0.15471885232E+04  0.00000000000E+00 0. -1.
         -2   -1    0    0    0  501 -0.00000000000E+00 -0.00000000000E+00 -0.43598157069E+03  0.43598157069E+03  0.00000000000E+00 0.  1.
        -24    2    1    2    0    0 -0.43601545188E+03 -0.21065857346E+03  0.22929188862E+02  0.49147934570E+03  0.80868354119E+02 0.  0.
        254    2    1    2    0    0  0.43601545188E+03  0.21065857346E+03  0.10882777637E+04  0.14916907482E+04  0.89794559333E+03 0.  0.
         23    2    4    4    0    0  0.59276160986E+03  0.12145984527E+03  0.11309437342E+04  0.12857426763E+04  0.89340247183E+02 0.  0.
         23    2    4    4    0    0 -0.15674615798E+03  0.89198728184E+02 -0.42665970498E+02  0.20594807188E+03  0.89824563025E+02 0.  0.
          1    1    3    3  502    0 -0.21998479505E+02 -0.26465456066E+02 -0.13292965171E+02  0.36892497725E+02  0.00000000000E+00 0. -1.
         -2    1    3    3    0  502 -0.41401697237E+03 -0.18419311739E+03  0.36222154033E+02  0.45458684797E+03  0.00000000000E+00 0.  1.
         13    1    5    5    0    0  0.25689566966E+03  0.75472035462E+02  0.41959009205E+03  0.49774216074E+03  0.00000000000E+00 0. -1.
        -13    1    5    5    0    0  0.33586594020E+03  0.45987809813E+02  0.71135364210E+03  0.78800051559E+03  0.00000000000E+00 0.  1.
          3    1    6    6  503    0 -0.15876499805E+03  0.93324957022E+02 -0.22812565348E+02  0.18557016287E+03  0.00000000000E+00 0. -1.
         -3    1    6    6    0  503  0.20188400734E+01 -0.41262288376E+01 -0.19853405150E+02  0.20377909012E+02  0.00000000000E+00 0.  1.
<mgrwt>
<rscale>  0 0.16426146E+04</rscale>
<asrwt>0</asrwt>
<pdfrwt beam="1">  1        1 0.23802900E+00 0.16426146E+04</pdfrwt>
<pdfrwt beam="2">  1       -2 0.67074089E-01 0.16426146E+04</pdfrwt>
<totfact> 0.10386063E+01</totfact>
</mgrwt>
</event>
<event>
12    5  0.5041746E-008  0.2198074E+04  0.7818608E-02  0.8519230E-01
         -2   -1    0    0    0  501 -0.00000000000E+00  0.00000000000E+00  0.35564056482E+03  0.35564056482E+03  0.00000000000E+00 0.  1.
          1   -1    0    0  501    0  0.00000000000E+00 -0.00000000000E+00 -0.33963583981E+04  0.33963583981E+04  0.00000000000E+00 0. -1.
        -24    2    1    2    0    0 -0.59009163593E+03  0.13773664131E+03 -0.24366613730E+04  0.25121578414E+04  0.80242458965E+02 0.  0.
        254    2    1    2    0    0  0.59009163593E+03 -0.13773664131E+03 -0.60405646031E+03  0.12398411216E+04  0.89729720735E+03 0.  0.
         23    2    4    4    0    0  0.57105157587E+03 -0.46282706220E+03 -0.35621350736E+03  0.82134335592E+03  0.86070051077E+02 0.  0.
         23    2    4    4    0    0  0.19040060060E+02  0.32509042089E+03 -0.24784295295E+03  0.41849776563E+03  0.87566802311E+02 0.  0.
          3    1    3    3  502    0 -0.32755513540E+03  0.10252380584E+03 -0.14995933826E+04  0.15383705050E+04  0.00000000000E+00 0. -1.
         -4    1    3    3    0  502 -0.26253650052E+03  0.35212835467E+02 -0.93706799037E+03  0.97378733637E+03  0.00000000000E+00 0.  1.
         13    1    5    5    0    0  0.29658830931E+03 -0.26729553168E+03 -0.15146696863E+03  0.42702900260E+03  0.00000000000E+00 0.  1.
        -13    1    5    5    0    0  0.27446326655E+03 -0.19553153052E+03 -0.20474653873E+03  0.39431435332E+03  0.00000000000E+00 0. -1.
          3    1    6    6  503    0  0.28488442028E+02  0.32488618579E+03 -0.23266871323E+03  0.40062121157E+03  0.00000000000E+00 0. -1.
         -3    1    6    6    0  503 -0.94483819676E+01  0.20423510185E+00 -0.15174239726E+02  0.17876554059E+02  0.00000000000E+00 0.  1.
<mgrwt>
<rscale>  0 0.21980744E+04</rscale>
<asrwt>0</asrwt>
<pdfrwt beam="1">  1        1 0.52251668E+00 0.21980744E+04</pdfrwt>
<pdfrwt beam="2">  1       -2 0.54713933E-01 0.21980744E+04</pdfrwt>
<totfact> 0.76022947E-01</totfact>
</mgrwt>
</event>
<event>
12    5  0.5041746E-008  0.1675007E+04  0.7818608E-02  0.8775748E-01
         -2   -1    0    0    0  501 -0.00000000000E+00  0.00000000000E+00  0.75847406264E+03  0.75847406264E+03  0.00000000000E+00 0.  1.
          1   -1    0    0  501    0  0.00000000000E+00 -0.00000000000E+00 -0.92476767336E+03  0.92476767336E+03  0.00000000000E+00 0. -1.
        -24    2    1    2    0    0 -0.47851248104E+03 -0.72591627370E+02 -0.44029238465E+03  0.65802515253E+03  0.69971269108E+02 0.  0.
        254    2    1    2    0    0  0.47851248104E+03  0.72591627370E+02  0.27399877394E+03  0.10252165835E+04  0.86124907898E+03 0.  0.
         23    2    4    4    0    0  0.71706510745E+03 -0.50263814254E+01  0.20915274260E+03  0.75235325902E+03  0.89905082096E+02 0.  0.
         23    2    4    4    0    0 -0.23855262642E+03  0.77618008795E+02  0.64846031335E+02  0.27286332445E+03  0.85542242145E+02 0.  0.
          1    1    3    3  502    0 -0.75470180326E+02 -0.27861806789E+02 -0.10214625313E+03  0.13002263428E+03  0.00000000000E+00 0. -1.
         -2    1    3    3    0  502 -0.40304230071E+03 -0.44729820581E+02 -0.33814613152E+03  0.52800251825E+03  0.00000000000E+00 0.  1.
         13    1    5    5    0    0  0.55925736858E+03  0.18599489282E+02  0.19324734299E+03  0.59199601425E+03  0.00000000000E+00 0.  1.
        -13    1    5    5    0    0  0.15780773887E+03 -0.23625870707E+02  0.15905399611E+02  0.16035724477E+03  0.00000000000E+00 0. -1.
          3    1    6    6  503    0 -0.15485557856E+02  0.29768241250E+02  0.23600255459E+02  0.41023441433E+02  0.00000000000E+00 0. -1.
         -3    1    6    6    0  503 -0.22306706856E+03  0.47849767545E+02  0.41245775875E+02  0.23183988302E+03  0.00000000000E+00 0.  1.
<mgrwt>
<rscale>  0 0.16750072E+04</rscale>
<asrwt>0</asrwt>
<pdfrwt beam="1">  1        1 0.14227195E+00 0.16750072E+04</pdfrwt>
<pdfrwt beam="2">  1       -2 0.11668832E+00 0.16750072E+04</pdfrwt>
<totfact> 0.82590303E+00</totfact>
</mgrwt>
</event>
<event>
12    5  0.5041746E-008  0.1907357E+04  0.7818608E-02  0.8651203E-01
         -2   -1    0    0    0  501 -0.00000000000E+00  0.00000000000E+00  0.42680181979E+03  0.42680181979E+03  0.00000000000E+00 0.  1.
          1   -1    0    0  501    0  0.00000000000E+00 -0.00000000000E+00 -0.21309714941E+04  0.21309714941E+04  0.00000000000E+00 0. -1.
        -24    2    1    2    0    0 -0.12736557428E+03 -0.69423886886E+03 -0.40330069036E+03  0.81683080306E+03  0.79821785475E+02 0.  0.
        254    2    1    2    0    0  0.12736557428E+03  0.69423886886E+03 -0.13008689839E+04  0.17409425108E+04  0.91675030190E+03 0.  0.
         23    2    4    4    0    0  0.28738201188E+03  0.85653050517E+03 -0.10676302724E+04  0.14019690392E+04  0.97210396912E+02 0.  0.
         23    2    4    4    0    0 -0.16001643760E+03 -0.16229163630E+03 -0.23323871154E+03  0.33897347162E+03  0.92514228033E+02 0.  0.
          3    1    3    3  502    0 -0.45885916656E+02 -0.20565403344E+03 -0.16236037158E+03  0.26600749816E+03  0.00000000000E+00 0. -1.
         -4    1    3    3    0  502 -0.81479657623E+02 -0.48858483542E+03 -0.24094031878E+03  0.55082330490E+03  0.00000000000E+00 0.  1.
         13    1    5    5    0    0  0.35853326920E+01  0.39760635251E+02 -0.79326431074E+02  0.88805660817E+02  0.00000000000E+00 0. -1.
        -13    1    5    5    0    0  0.28379667918E+03  0.81676986992E+03 -0.98830384130E+03  0.13131633784E+04  0.00000000000E+00 0.  1.
          1    1    6    6  503    0  0.52429819398E+01 -0.16393998738E+02 -0.48132536302E+02  0.51117444235E+02  0.00000000000E+00 0. -1.
         -1    1    6    6    0  503 -0.16525941954E+03 -0.14589763757E+03 -0.18510617524E+03  0.28785602739E+03  0.00000000000E+00 0.  1.
<mgrwt>
<rscale>  0 0.19073568E+04</rscale>
<asrwt>0</asrwt>
<pdfrwt beam="1">  1        1 0.32784177E+00 0.19073568E+04</pdfrwt>
<pdfrwt beam="2">  1       -2 0.65661817E-01 0.19073568E+04</pdfrwt>
<totfact> 0.42589141E+00</totfact>
</mgrwt>
</event>
<event>
12    5  0.5041746E-008  0.1641464E+04  0.7818608E-02  0.8795473E-01
         -2   -1    0    0    0  501 -0.00000000000E+00  0.00000000000E+00  0.36872000945E+03  0.36872000945E+03  0.00000000000E+00 0.  1.
          1   -1    0    0  501    0  0.00000000000E+00 -0.00000000000E+00 -0.18268621062E+04  0.18268621062E+04  0.00000000000E+00 0. -1.
        -24    2    1    2    0    0 -0.29544489987E+03 -0.13408821195E+03  0.11062014407E+03  0.35844379699E+03  0.10477500599E+03 0.  0.
        254    2    1    2    0    0  0.29544489987E+03  0.13408821195E+03 -0.15687622408E+04  0.18371383186E+04  0.89933024871E+03 0.  0.
         23    2    4    4    0    0 -0.17036260052E+03  0.19357777013E+03 -0.12049696412E+04  0.12355732754E+04  0.90519135895E+02 0.  0.
         23    2    4    4    0    0  0.46580750040E+03 -0.59489558173E+02 -0.36379259960E+03  0.60156504323E+03  0.94972684286E+02 0.  0.
          1    1    3    3  502    0 -0.29646066353E+02 -0.35912982494E+01 -0.18802951052E+02  0.35289341756E+02  0.00000000000E+00 0. -1.
         -2    1    3    3    0  502 -0.26579883352E+03 -0.13049691370E+03  0.12942309512E+03  0.32315445523E+03  0.00000000000E+00 0.  1.
         13    1    5    5    0    0 -0.15752453579E+03  0.17777682751E+03 -0.93008618659E+03  0.95993692202E+03  0.00000000000E+00 0.  1.
        -13    1    5    5    0    0 -0.12838064731E+02  0.15800942616E+02 -0.27488345460E+03  0.27563635339E+03  0.00000000000E+00 0. -1.
          2    1    6    6  503    0  0.37477710268E+03 -0.12999044893E+02 -0.26316690218E+03  0.45813062576E+03  0.00000000000E+00 0. -1.
         -2    1    6    6    0  503  0.91030397721E+02 -0.46490513280E+02 -0.10062569742E+03  0.14343441747E+03  0.00000000000E+00 0.  1.
<mgrwt>
<rscale>  0 0.16414635E+04</rscale>
<asrwt>0</asrwt>
<pdfrwt beam="1">  1        1 0.28105570E+00 0.16414635E+04</pdfrwt>
<pdfrwt beam="2">  1       -2 0.56726156E-01 0.16414635E+04</pdfrwt>
<totfact> 0.95587083E+00</totfact>
</mgrwt>
</event>
<event>
12    5  0.5041746E-008  0.1700889E+04  0.7818608E-02  0.8760858E-01
          3   -1    0    0  501    0  0.00000000000E+00  0.00000000000E+00  0.15892993907E+04  0.15892993907E+04  0.00000000000E+00 0. -1.
         -4   -1    0    0    0  501 -0.00000000000E+00 -0.00000000000E+00 -0.45507821848E+03  0.45507821848E+03  0.00000000000E+00 0.  1.
        -24    2    1    2    0    0 -0.91991369899E+02 -0.49778217236E+03  0.31768611580E-01  0.51257920580E+03  0.80547737130E+02 0.  0.
        254    2    1    2    0    0  0.91991369899E+02  0.49778217236E+03  0.11341894037E+04  0.15317984034E+04  0.89653290073E+03 0.  0.
         23    2    4    4    0    0  0.36913187229E+03 -0.14063099818E+02  0.71169303194E+03  0.80687633694E+03  0.89924087374E+02 0.  0.
         23    2    4    4    0    0 -0.27714050239E+03  0.51184527218E+03  0.42249637171E+03  0.72492206648E+03  0.90644236642E+02 0.  0.
          3    1    3    3  502    0 -0.43962597337E+02 -0.32751738745E+03  0.34812664351E+02  0.33228341915E+03  0.00000000000E+00 0. -1.
         -4    1    3    3    0  502 -0.48028772562E+02 -0.17026478491E+03 -0.34780895739E+02  0.18029578665E+03  0.00000000000E+00 0.  1.
         13    1    5    5    0    0  0.26054557188E+03  0.21778038972E+02  0.54828291299E+03  0.60743100899E+03  0.00000000000E+00 0. -1.
        -13    1    5    5    0    0  0.10858630041E+03 -0.35841138790E+02  0.16341011895E+03  0.19944532795E+03  0.00000000000E+00 0.  1.
          3    1    6    6  503    0 -0.38320846018E+02  0.39342733309E+02  0.15298258158E+02  0.57012056676E+02  0.00000000000E+00 0. -1.
         -3    1    6    6    0  503 -0.23881965637E+03  0.47250253887E+03  0.40719811356E+03  0.66791000980E+03  0.00000000000E+00 0.  1.
<mgrwt>
<rscale>  0 0.17008886E+04</rscale>
<asrwt>0</asrwt>
<pdfrwt beam="1">  1        3 0.24450760E+00 0.17008886E+04</pdfrwt>
<pdfrwt beam="2">  1       -4 0.70012034E-01 0.17008886E+04</pdfrwt>
<totfact> 0.32477438E-01</totfact>
</mgrwt>
</event>
<event>
12    5  0.5041746E-008  0.2402504E+04  0.7818608E-02  0.8438567E-01
         -2   -1    0    0    0  501 -0.00000000000E+00  0.00000000000E+00  0.90206475018E+03  0.90206475018E+03  0.00000000000E+00 0.  1.
          1   -1    0    0  501    0  0.00000000000E+00 -0.00000000000E+00 -0.15996700792E+04  0.15996700792E+04  0.00000000000E+00 0. -1.
        -24    2    1    2    0    0  0.10544232773E+03  0.62060877224E+03  0.54804318999E+03  0.83858002949E+03  0.81189870638E+02 0.  0.
        254    2    1    2    0    0 -0.10544232773E+03 -0.62060877224E+03 -0.12456485191E+04  0.16631547999E+04  0.90452767943E+03 0.  0.
         23    2    4    4    0    0 -0.49399335069E+03 -0.42557278625E+03 -0.73023396715E+03  0.98321206125E+03  0.91228743724E+02 0.  0.
         23    2    4    4    0    0  0.38855102296E+03 -0.19503598599E+03 -0.51541455191E+03  0.67994273869E+03  0.87515908866E+02 0.  0.
          1    1    3    3  502    0  0.69225236581E+02  0.18399372240E+03  0.17255411267E+03  0.26157359397E+03  0.00000000000E+00 0. -1.
         -2    1    3    3    0  502  0.36217091151E+02  0.43661504984E+03  0.37548907732E+03  0.57700643552E+03  0.00000000000E+00 0.  1.
         13    1    5    5    0    0 -0.36172676937E+03 -0.34340337972E+03 -0.59982786498E+03  0.78010614950E+03  0.00000000000E+00 0. -1.
        -13    1    5    5    0    0 -0.13226658132E+03 -0.82169406536E+02 -0.13040610217E+03  0.20310591175E+03  0.00000000000E+00 0.  1.
          1    1    6    6  503    0  0.26316244962E+03 -0.93969499913E+02 -0.28806096470E+03  0.40132762325E+03  0.00000000000E+00 0. -1.
         -1    1    6    6    0  503  0.12538857334E+03 -0.10106648608E+03 -0.22735358722E+03  0.27861511544E+03  0.00000000000E+00 0.  1.
<mgrwt>
<rscale>  0 0.24025037E+04</rscale>
<asrwt>0</asrwt>
<pdfrwt beam="1">  1        1 0.24610309E+00 0.24025037E+04</pdfrwt>
<pdfrwt beam="2">  1       -2 0.13877919E+00 0.24025037E+04</pdfrwt>
<totfact> 0.16140408E+00</totfact>
</mgrwt>
</event>
<event>
12    5  0.5041746E-008  0.1493786E+04  0.7818608E-02  0.8888596E-01
          1   -1    0    0  501    0  0.00000000000E+00  0.00000000000E+00  0.17875891791E+04  0.17875891791E+04  0.00000000000E+00 0. -1.
         -2   -1    0    0    0  501 -0.00000000000E+00 -0.00000000000E+00 -0.31206795406E+03  0.31206795406E+03  0.00000000000E+00 0.  1.
        -24    2    1    2    0    0 -0.31561456097E+03  0.27927024844E+03  0.66597359698E+03  0.79227327785E+03  0.81065974162E+02 0.  0.
        254    2    1    2    0    0  0.31561456097E+03 -0.27927024844E+03  0.80954762811E+03  0.13073838554E+04  0.93609869155E+03 0.  0.
         23    2    4    4    0    0 -0.44270147105E+02 -0.50396991243E+03  0.18539435699E+03  0.54713588371E+03  0.95084641646E+02 0.  0.
         23    2    4    4    0    0  0.35988470808E+03  0.22469966399E+03  0.62415327111E+03  0.76024797165E+03  0.91666408495E+02 0.  0.
          1    1    3    3  502    0 -0.63543701269E+02  0.91502246990E+02  0.22088444654E+03  0.24738714982E+03  0.00000000000E+00 0. -1.
         -2    1    3    3    0  502 -0.25207085970E+03  0.18776800145E+03  0.44508915044E+03  0.54488612803E+03  0.00000000000E+00 0.  1.
         13    1    5    5    0    0 -0.16284676383E+02 -0.38054542271E+03  0.97885435540E+02  0.39327034966E+03  0.00000000000E+00 0.  1.
        -13    1    5    5    0    0 -0.27985470722E+02 -0.12342448972E+03  0.87508921453E+02  0.15386553405E+03  0.00000000000E+00 0. -1.
          4    1    6    6  503    0  0.56225767722E+02  0.76350453802E+02  0.11358664652E+03  0.14796166740E+03  0.00000000000E+00 0. -1.
         -4    1    6    6    0  503  0.30365894036E+03  0.14834921019E+03  0.51056662460E+03  0.61228630425E+03  0.00000000000E+00 0.  1.
<mgrwt>
<rscale>  0 0.14937862E+04</rscale>
<asrwt>0</asrwt>
<pdfrwt beam="1">  1        1 0.27501371E+00 0.14937862E+04</pdfrwt>
<pdfrwt beam="2">  1       -2 0.48010456E-01 0.14937862E+04</pdfrwt>
<totfact> 0.14507719E+01</totfact>
</mgrwt>
</event>
<event>
12    5  0.5041746E-008  0.1333752E+04  0.7818608E-02  0.9003220E-01
          1   -1    0    0  501    0  0.00000000000E+00  0.00000000000E+00  0.12556881625E+04  0.12556881625E+04  0.00000000000E+00 0. -1.
         -2   -1    0    0    0  501 -0.00000000000E+00 -0.00000000000E+00 -0.35416725455E+03  0.35416725455E+03  0.00000000000E+00 0.  1.
        -24    2    1    2    0    0  0.64278241893E+02  0.21202338291E+03  0.55339648298E+03  0.60163503684E+03  0.81433671790E+02 0.  0.
        254    2    1    2    0    0 -0.64278241893E+02 -0.21202338291E+03  0.34812442498E+03  0.10082203802E+04  0.91990875230E+03 0.  0.
         23    2    4    4    0    0 -0.38713880333E+03  0.81398577918E+02  0.38704915165E+03  0.56088241937E+03  0.90993741707E+02 0.  0.
         23    2    4    4    0    0  0.32286056144E+03 -0.29342196083E+03 -0.38924726670E+02  0.44733796086E+03  0.90888545220E+02 0.  0.
          1    1    3    3  502    0  0.82928065280E+02  0.15200804594E+03  0.41093205740E+03  0.44592450689E+03  0.00000000000E+00 0. -1.
         -2    1    3    3    0  502 -0.18649823387E+02  0.60015336972E+02  0.14246442558E+03  0.15571052996E+03  0.00000000000E+00 0.  1.
         13    1    5    5    0    0 -0.38785053867E+03  0.80720945766E+02  0.36457068409E+03  0.53838248033E+03  0.00000000000E+00 0. -1.
        -13    1    5    5    0    0  0.71173534008E+00  0.67763215135E+00  0.22478467566E+02  0.22499939037E+02  0.00000000000E+00 0.  1.
          3    1    6    6  503    0  0.25070192375E+03 -0.21230852989E+03 -0.66817374439E+02  0.33524756220E+03  0.00000000000E+00 0. -1.
         -3    1    6    6    0  503  0.72158637686E+02 -0.81113430943E+02  0.27892647769E+02  0.11209039866E+03  0.00000000000E+00 0.  1.
<mgrwt>
<rscale>  0 0.13337520E+04</rscale>
<asrwt>0</asrwt>
<pdfrwt beam="1">  1        1 0.19318279E+00 0.13337520E+04</pdfrwt>
<pdfrwt beam="2">  1       -2 0.54487270E-01 0.13337520E+04</pdfrwt>
<totfact> 0.26525110E+01</totfact>
</mgrwt>
</event>
<event>
12    5  0.5041746E-008  0.1380976E+04  0.7818608E-02  0.8967706E-01
         -2   -1    0    0    0  501 -0.00000000000E+00  0.00000000000E+00  0.35208797799E+03  0.35208797799E+03  0.00000000000E+00 0.  1.
          1   -1    0    0  501    0  0.00000000000E+00 -0.00000000000E+00 -0.13541316657E+04  0.13541316657E+04  0.00000000000E+00 0. -1.
        -24    2    1    2    0    0  0.22553518171E+03 -0.32840863468E+03 -0.25826185296E+03  0.48149806112E+03  0.80142676797E+02 0.  0.
        254    2    1    2    0    0 -0.22553518171E+03  0.32840863468E+03 -0.74378183479E+03  0.12247215826E+04  0.88770106884E+03 0.  0.
         23    2    4    4    0    0 -0.19884970833E+03  0.32846548234E+03 -0.93300302290E+03  0.10128209680E+04  0.88774393408E+02 0.  0.
         23    2    4    4    0    0 -0.26685473374E+02 -0.56847656472E-01  0.18922118810E+03  0.21190061459E+03  0.91570162802E+02 0.  0.
          1    1    3    3  502    0  0.19148147446E+03 -0.23479638617E+03 -0.16476484578E+03  0.34487962019E+03  0.00000000000E+00 0. -1.
         -2    1    3    3    0  502  0.34053707247E+02 -0.93612248512E+02 -0.93497007181E+02  0.13661844092E+03  0.00000000000E+00 0.  1.
         13    1    5    5    0    0 -0.13200913536E+03  0.19691193937E+03 -0.46244825642E+03  0.51967212120E+03  0.00000000000E+00 0. -1.
        -13    1    5    5    0    0 -0.66840572968E+02  0.13155354297E+03 -0.47055476647E+03  0.49314884681E+03  0.00000000000E+00 0.  1.
          4    1    6    6  503    0 -0.28747792690E+02  0.55192916892E+01  0.19862748719E+03  0.20077294846E+03  0.00000000000E+00 0. -1.
         -4    1    6    6    0  503  0.20623193162E+01 -0.55761393457E+01 -0.94062990882E+01  0.11127666130E+02  0.00000000000E+00 0.  1.
<mgrwt>
<rscale>  0 0.13809757E+04</rscale>
<asrwt>0</asrwt>
<pdfrwt beam="1">  1        1 0.20832795E+00 0.13809757E+04</pdfrwt>
<pdfrwt beam="2">  1       -2 0.54167381E-01 0.13809757E+04</pdfrwt>
<totfact> 0.22754440E+01</totfact>
</mgrwt>
</event>
<event>
12    5  0.5041746E-008  0.1271752E+04  0.7818608E-02  0.9052271E-01
          1   -1    0    0  501    0  0.00000000000E+00  0.00000000000E+00  0.57252174256E+03  0.57252174256E+03  0.00000000000E+00 0. -1.
         -2   -1    0    0    0  501 -0.00000000000E+00 -0.00000000000E+00 -0.70624122520E+03  0.70624122520E+03  0.00000000000E+00 0.  1.
        -24    2    1    2    0    0 -0.31266509217E+03 -0.52963137543E+02 -0.71354060279E+01  0.32672417529E+03  0.78314870233E+02 0.  0.
        254    2    1    2    0    0  0.31266509217E+03  0.52963137543E+02 -0.12658407662E+03  0.95203879248E+03  0.88870117595E+03 0.  0.
         23    2    4    4    0    0  0.21571079402E+03  0.35846054748E+02  0.36786179734E+03  0.43762484302E+03  0.91526580753E+02 0.  0.
         23    2    4    4    0    0  0.96954298148E+02  0.17117082795E+02 -0.49444587396E+03  0.51441394946E+03  0.10223433217E+03 0.  0.
          1    1    3    3  502    0 -0.29079569143E+03 -0.69308030107E+02 -0.20270459791E+01  0.29894789864E+03  0.00000000000E+00 0. -1.
         -2    1    3    3    0  502 -0.21869400741E+02  0.16344892563E+02 -0.51083600488E+01  0.27776276641E+02  0.00000000000E+00 0.  1.
         13    1    5    5    0    0  0.19717958215E+03  0.60451767594E+02  0.31873206541E+03  0.37963710743E+03  0.00000000000E+00 0.  1.
        -13    1    5    5    0    0  0.18531211869E+02 -0.24605712846E+02  0.49129731935E+02  0.57987735583E+02  0.00000000000E+00 0. -1.
          3    1    6    6  503    0  0.16422945865E+02  0.51009180018E+02 -0.21797497705E+03  0.22446545439E+03  0.00000000000E+00 0. -1.
         -3    1    6    6    0  503  0.80531352283E+02 -0.33892097222E+02 -0.27647089691E+03  0.28994849507E+03  0.00000000000E+00 0.  1.
<mgrwt>
<rscale>  0 0.12717523E+04</rscale>
<asrwt>0</asrwt>
<pdfrwt beam="1">  1        1 0.88080268E-01 0.12717523E+04</pdfrwt>
<pdfrwt beam="2">  1       -2 0.10865250E+00 0.12717523E+04</pdfrwt>
<totfact> 0.21364786E+01</totfact>
</mgrwt>
</event>
<event>
12    5  0.5041746E-008  0.1552698E+04  0.7818608E-02  0.8850146E-01
         -2   -1    0    0    0  501 -0.00000000000E+00  0.00000000000E+00  0.82274214976E+03  0.82274214976E+03  0.00000000000E+00 0.  1.
          1   -1    0    0  501    0  0.00000000000E+00 -0.00000000000E+00 -0.73257186176E+03  0.73257186176E+03  0.00000000000E+00 0. -1.
        -24    2    1    2    0    0  0.78527753436E+02 -0.47388117071E+03 -0.11325227228E+03  0.49995361419E+03  0.79984793220E+02 0.  0.
        254    2    1    2    0    0 -0.78527753436E+02  0.47388117071E+03  0.20342256028E+03  0.10553603973E+04  0.91742839405E+03 0.  0.
         23    2    4    4    0    0  0.32684310818E+03  0.57478560905E+01  0.25969152330E+03  0.42717687001E+03  0.90448525610E+02 0.  0.
         23    2    4    4    0    0 -0.40537086162E+03  0.46813331462E+03 -0.56268963016E+02  0.62818352732E+03  0.89297324121E+02 0.  0.
          1    1    3    3  502    0  0.80579930450E+02 -0.39499410064E+03 -0.12037791545E+03  0.42071879832E+03  0.00000000000E+00 0. -1.
         -4    1    3    3    0  502 -0.20521770131E+01 -0.78887070069E+02  0.71256431670E+01  0.79234815865E+02  0.00000000000E+00 0.  1.
         13    1    5    5    0    0  0.99981366621E+02 -0.37999130509E+02  0.99046707230E+02  0.14577536762E+03  0.00000000000E+00 0. -1.
        -13    1    5    5    0    0  0.22686174156E+03  0.43746986600E+02  0.16064481607E+03  0.28140150239E+03  0.00000000000E+00 0.  1.
          4    1    6    6  503    0 -0.16946482973E+03  0.25930922679E+03 -0.11718314196E+02  0.30999503625E+03  0.00000000000E+00 0. -1.
         -4    1    6    6    0  503 -0.23590603189E+03  0.20882408783E+03 -0.44550648821E+02  0.31818849107E+03  0.00000000000E+00 0.  1.
<mgrwt>
<rscale>  0 0.15526980E+04</rscale>
<asrwt>0</asrwt>
<pdfrwt beam="1">  1        1 0.11270336E+00 0.15526980E+04</pdfrwt>
<pdfrwt beam="2">  1       -2 0.12657572E+00 0.15526980E+04</pdfrwt>
<totfact> 0.99541856E+00</totfact>
</mgrwt>
</event>
<event>
12    5  0.5041746E-008  0.1690281E+04  0.7818608E-02  0.8766927E-01
          1   -1    0    0  501    0  0.00000000000E+00  0.00000000000E+00  0.66136339244E+03  0.66136339244E+03  0.00000000000E+00 0. -1.
         -2   -1    0    0    0  501 -0.00000000000E+00 -0.00000000000E+00 -0.10799849969E+04  0.10799849969E+04  0.00000000000E+00 0.  1.
        -24    2    1    2    0    0  0.20436034900E+03  0.10572101540E+03 -0.72435956708E+03  0.76393708345E+03  0.77220461722E+02 0.  0.
        254    2    1    2    0    0 -0.20436034900E+03 -0.10572101540E+03  0.30573796265E+03  0.97741130587E+03  0.89939817306E+03 0.  0.
         23    2    4    4    0    0  0.13380182061E+03  0.28070020529E+03  0.31740284964E+03  0.45598574238E+03  0.10238601390E+03 0.  0.
         23    2    4    4    0    0 -0.33816216960E+03 -0.38642122070E+03 -0.11664886991E+02  0.52142556349E+03  0.89852857056E+02 0.  0.
          1    1    3    3  502    0  0.21496984013E+02  0.87313827313E+00 -0.22599135137E+02  0.31202621702E+02  0.00000000000E+00 0. -1.
         -2    1    3    3    0  502  0.18286336498E+03  0.10484787713E+03 -0.70176043194E+03  0.73273446175E+03  0.00000000000E+00 0.  1.
         13    1    5    5    0    0  0.14253508024E+02  0.18560574265E+02  0.77855665865E+02  0.81296753412E+02  0.00000000000E+00 0. -1.
        -13    1    5    5    0    0  0.11954831258E+03  0.26213963103E+03  0.23954718377E+03  0.37468898896E+03  0.00000000000E+00 0.  1.
          3    1    6    6  503    0  0.39344040174E+01 -0.62504010952E+01  0.62608567335E+01  0.96822195730E+01  0.00000000000E+00 0. -1.
         -3    1    6    6    0  503 -0.34209657362E+03 -0.38017081960E+03 -0.17925743724E+02  0.51174334392E+03  0.00000000000E+00 0.  1.
<mgrwt>
<rscale>  0 0.16902811E+04</rscale>
<asrwt>0</asrwt>
<pdfrwt beam="1">  1        1 0.10174821E+00 0.16902811E+04</pdfrwt>
<pdfrwt beam="2">  1       -2 0.16615154E+00 0.16902811E+04</pdfrwt>
<totfact> 0.56166780E+00</totfact>
</mgrwt>
</event>
<event>
12    5  0.5041746E-008  0.1764279E+04  0.7818608E-02  0.8725529E-01
          1   -1    0    0  501    0  0.00000000000E+00  0.00000000000E+00  0.11234073657E+04  0.11234073657E+04  0.00000000000E+00 0. -1.
         -2   -1    0    0    0  501 -0.00000000000E+00 -0.00000000000E+00 -0.69268753022E+03  0.69268753022E+03  0.00000000000E+00 0.  1.
        -24    2    1    2    0    0 -0.55812592624E+03 -0.26558581339E+03 -0.40480896691E+02  0.62392241869E+03  0.74833867549E+02 0.  0.
        254    2    1    2    0    0  0.55812592624E+03  0.26558581339E+03  0.47120073217E+03  0.11921724772E+04  0.90399375642E+03 0.  0.
         23    2    4    4    0    0  0.47230196228E+03  0.15348387620E+03 -0.16792999437E+03  0.53155016828E+03  0.87855873837E+02 0.  0.
         23    2    4    4    0    0  0.85823963961E+02  0.11210193720E+03  0.63913072654E+03  0.66062230895E+03  0.89449160708E+02 0.  0.
          3    1    3    3  502    0 -0.40210988877E+03 -0.19946274579E+03 -0.61951142687E+02  0.45311774814E+03  0.00000000000E+00 0. -1.
         -4    1    3    3    0  502 -0.15601603747E+03 -0.66123067603E+02  0.21470245996E+02  0.17080467055E+03  0.00000000000E+00 0.  1.
         13    1    5    5    0    0  0.12982058706E+02  0.22758871679E+02 -0.14513360853E+02  0.29952257537E+02  0.00000000000E+00 0. -1.
        -13    1    5    5    0    0  0.45931990357E+03  0.13072500452E+03 -0.15341663352E+03  0.50159791075E+03  0.00000000000E+00 0.  1.
          3    1    6    6  503    0  0.72576089798E+02  0.36457839172E+02  0.43514377277E+03  0.44265852057E+03  0.00000000000E+00 0. -1.
         -3    1    6    6    0  503  0.13247874163E+02  0.75644098025E+02  0.20398695377E+03  0.21796378838E+03  0.00000000000E+00 0.  1.
<mgrwt>
<rscale>  0 0.17642792E+04</rscale>
<asrwt>0</asrwt>
<pdfrwt beam="1">  1        1 0.17283190E+00 0.17642792E+04</pdfrwt>
<pdfrwt beam="2">  1       -2 0.10656731E+00 0.17642792E+04</pdfrwt>
<totfact> 0.71686815E+00</totfact>
</mgrwt>
</event>
<event>
12    5  0.5041746E-008  0.3291886E+04  0.7818608E-02  0.8164963E-01
         -2   -1    0    0    0  501 -0.00000000000E+00  0.00000000000E+00  0.15816203963E+04  0.15816203963E+04  0.00000000000E+00 0.  1.
          1   -1    0    0  501    0  0.00000000000E+00 -0.00000000000E+00 -0.17128820220E+04  0.17128820220E+04  0.00000000000E+00 0. -1.
        -24    2    1    2    0    0 -0.13060569178E+04  0.75248851771E+03 -0.27274509791E+03  0.15339800106E+04  0.81738256593E+02 0.  0.
        254    2    1    2    0    0  0.13060569178E+04 -0.75248851771E+03  0.14148347219E+03  0.17605224078E+04  0.89855324481E+03 0.  0.
         23    2    4    4    0    0  0.50263378044E+03 -0.78050416144E+03 -0.31361953881E+02  0.93329873375E+03  0.90749606026E+02 0.  0.
         23    2    4    4    0    0  0.80342313734E+03  0.28015643731E+02  0.17284542607E+03  0.82722367408E+03  0.90276529209E+02 0.  0.
          1    1    3    3  502    0 -0.28666800523E+03  0.19000052323E+03 -0.89466764869E+02  0.35536325930E+03  0.00000000000E+00 0. -1.
         -2    1    3    3    0  502 -0.10193889126E+04  0.56248799449E+03 -0.18327833304E+03  0.11786167513E+04  0.00000000000E+00 0.  1.
         13    1    5    5    0    0  0.31463801821E+02 -0.25398006103E+02 -0.14913926795E+02  0.43098198936E+02  0.00000000000E+00 0. -1.
        -13    1    5    5    0    0  0.47116997862E+03 -0.75510615534E+03 -0.16448027086E+02  0.89020053481E+03  0.00000000000E+00 0.  1.
          3    1    6    6  503    0  0.10644420065E+03  0.34316514508E+02  0.28793061903E+02  0.11548606597E+03  0.00000000000E+00 0. -1.
         -3    1    6    6    0  503  0.69697893670E+03 -0.63008707772E+01  0.14405236417E+03  0.71173760811E+03  0.00000000000E+00 0.  1.
<mgrwt>
<rscale>  0 0.32918865E+04</rscale>
<asrwt>0</asrwt>
<pdfrwt beam="1">  1        1 0.26352031E+00 0.32918865E+04</pdfrwt>
<pdfrwt beam="2">  1       -2 0.24332622E+00 0.32918865E+04</pdfrwt>
<totfact> 0.24071105E-01</totfact>
</mgrwt>
</event>
<event>
12    5  0.5041746E-008  0.1689523E+04  0.7818608E-02  0.8767362E-01
         -2   -1    0    0    0  501 -0.00000000000E+00  0.00000000000E+00  0.13751878063E+04  0.13751878063E+04  0.00000000000E+00 0.  1.
          1   -1    0    0  501    0  0.00000000000E+00 -0.00000000000E+00 -0.51892696139E+03  0.51892696139E+03  0.00000000000E+00 0. -1.
        -24    2    1    2    0    0  0.44138651067E+03  0.20375357667E+03 -0.94870634464E+02  0.50076262522E+03  0.73655941555E+02 0.  0.
        254    2    1    2    0    0 -0.44138651067E+03 -0.20375357667E+03  0.95113147937E+03  0.13933521425E+04  0.89467397974E+03 0.  0.
         23    2    4    4    0    0 -0.36177763287E+03 -0.44819017668E+03  0.23800077220E+03  0.62981466340E+03  0.90910134468E+02 0.  0.
         23    2    4    4    0    0 -0.79608877798E+02  0.24443660001E+03  0.71313070717E+03  0.76353747905E+03  0.91363294422E+02 0.  0.
          1    1    3    3  502    0  0.31579237173E+03  0.13054197147E+03 -0.34843346256E+02  0.34348229523E+03  0.00000000000E+00 0. -1.
         -2    1    3    3    0  502  0.12559413894E+03  0.73211605207E+02 -0.60027288208E+02  0.15728032999E+03  0.00000000000E+00 0.  1.
         13    1    5    5    0    0 -0.36218551968E+03 -0.41944727175E+03  0.22967464814E+03  0.59988732979E+03  0.00000000000E+00 0. -1.
        -13    1    5    5    0    0  0.40788680413E+00 -0.28742904927E+02  0.83261240665E+01  0.29927333614E+02  0.00000000000E+00 0.  1.
          2    1    6    6  503    0 -0.14170632861E+02  0.98734532696E+02  0.39712356041E+03  0.40945871222E+03  0.00000000000E+00 0. -1.
         -2    1    6    6    0  503 -0.65438244937E+02  0.14570206731E+03  0.31600714676E+03  0.35407876683E+03  0.00000000000E+00 0.  1.
<mgrwt>
<rscale>  0 0.16895230E+04</rscale>
<asrwt>0</asrwt>
<pdfrwt beam="1">  1        1 0.79834918E-01 0.16895230E+04</pdfrwt>
<pdfrwt beam="2">  1       -2 0.21156735E+00 0.16895230E+04</pdfrwt>
<totfact> 0.39214113E+00</totfact>
</mgrwt>
</event>
<event>
12    5  0.5041746E-008  0.1907472E+04  0.7818608E-02  0.8651146E-01
         -2   -1    0    0    0  501 -0.00000000000E+00  0.00000000000E+00  0.48850364616E+04  0.48850364616E+04  0.00000000000E+00 0.  1.
          1   -1    0    0  501    0  0.00000000000E+00 -0.00000000000E+00 -0.18620387431E+03  0.18620387431E+03  0.00000000000E+00 0. -1.
        -24    2    1    2    0    0 -0.46973782331E+03 -0.30096082021E+02  0.32501244482E+03  0.57772203097E+03  0.81057134064E+02 0.  0.
        254    2    1    2    0    0  0.46973782331E+03  0.30096082021E+02  0.43738201425E+04  0.44935183049E+04  0.91643042364E+03 0.  0.
         23    2    4    4    0    0  0.65161205049E+03 -0.18808519315E+03  0.23413760044E+04  0.24393287888E+04  0.91153943577E+02 0.  0.
         23    2    4    4    0    0 -0.18187422718E+03  0.21818127517E+03  0.20324441380E+04  0.20541895162E+04  0.90465964390E+02 0.  0.
          3    1    3    3  502    0 -0.32422895963E+03 -0.48046082891E+02  0.25483980559E+03  0.41518209362E+03  0.00000000000E+00 0. -1.
         -4    1    3    3    0  502 -0.14550886367E+03  0.17950000870E+02  0.70172639231E+02  0.16253993736E+03  0.00000000000E+00 0.  1.
         13    1    5    5    0    0 -0.22335098973E+01  0.22261762966E+01  0.15242356417E+02  0.15565148779E+02  0.00000000000E+00 0. -1.
        -13    1    5    5    0    0  0.65384556038E+03 -0.19031136944E+03  0.23261336480E+04  0.24237636400E+04  0.00000000000E+00 0.  1.
          3    1    6    6  503    0 -0.85445089616E+02  0.15609740956E+03  0.10366611201E+04  0.10518239124E+04  0.00000000000E+00 0. -1.
         -3    1    6    6    0  503 -0.96429137562E+02  0.62083865604E+02  0.99578301788E+03  0.10023656038E+04  0.00000000000E+00 0.  1.
<mgrwt>
<rscale>  0 0.19074724E+04</rscale>
<asrwt>0</asrwt>
<pdfrwt beam="1">  1        1 0.28646754E-01 0.19074724E+04</pdfrwt>
<pdfrwt beam="2">  1       -2 0.75154397E+00 0.19074724E+04</pdfrwt>
<totfact> 0.18978971E-02</totfact>
</mgrwt>
</event>
<event>
12    5  0.5041746E-008  0.2810169E+04  0.7818608E-02  0.8300118E-01
         -2   -1    0    0    0  501 -0.00000000000E+00  0.00000000000E+00  0.76817944545E+03  0.76817944545E+03  0.00000000000E+00 0.  1.
          1   -1    0    0  501    0  0.00000000000E+00 -0.00000000000E+00 -0.25700535667E+04  0.25700535667E+04  0.00000000000E+00 0. -1.
        -24    2    1    2    0    0 -0.84098686350E+03 -0.25798419007E+03  0.26127013816E+03  0.92043517046E+03  0.71582616642E+02 0.  0.
        254    2    1    2    0    0  0.84098686350E+03  0.25798419007E+03 -0.20631442594E+04  0.24177978417E+04  0.90297697712E+03 0.  0.
         23    2    4    4    0    0  0.86998967310E+03 -0.16873108445E+02 -0.18809244628E+04  0.20744367140E+04  0.90797095706E+02 0.  0.
         23    2    4    4    0    0 -0.29002809599E+02  0.27485729852E+03 -0.18221979660E+03  0.34336112767E+03  0.91132388346E+02 0.  0.
          1    1    3    3  502    0 -0.19705048292E+03 -0.78016180781E+02  0.36498779104E+02  0.21505250094E+03  0.00000000000E+00 0. -1.
         -2    1    3    3    0  502 -0.64393638058E+03 -0.17996800929E+03  0.22477135906E+03  0.70538266952E+03  0.00000000000E+00 0.  1.
         13    1    5    5    0    0  0.19763315372E+02  0.11538829379E+02 -0.33675135832E+02  0.40715451505E+02  0.00000000000E+00 0.  1.
        -13    1    5    5    0    0  0.85022635773E+03 -0.28411937825E+02 -0.18472493270E+04  0.20337212625E+04  0.00000000000E+00 0. -1.
          3    1    6    6  503    0  0.76355980520E+01  0.22772305056E+03 -0.12155202426E+03  0.25824597716E+03  0.00000000000E+00 0. -1.
         -3    1    6    6    0  503 -0.36638407651E+02  0.47134247952E+02 -0.60667772342E+02  0.85115150509E+02  0.00000000000E+00 0.  1.
<mgrwt>
<rscale>  0 0.28101689E+04</rscale>
<asrwt>0</asrwt>
<pdfrwt beam="1">  1        1 0.39539286E+00 0.28101689E+04</pdfrwt>
<pdfrwt beam="2">  1       -2 0.11818145E+00 0.28101689E+04</pdfrwt>
<totfact> 0.50788004E-01</totfact>
</mgrwt>
</event>
<event>
12    5  0.5041746E-008  0.1646787E+04  0.7818608E-02  0.8792309E-01
         -2   -1    0    0    0  501 -0.00000000000E+00  0.00000000000E+00  0.11549007288E+04  0.11549007288E+04  0.00000000000E+00 0.  1.
          1   -1    0    0  501    0  0.00000000000E+00 -0.00000000000E+00 -0.58704362581E+03  0.58704362581E+03  0.00000000000E+00 0. -1.
        -24    2    1    2    0    0 -0.51065801655E+03  0.26320376958E+02  0.44653700514E+03  0.68341759671E+03  0.78739713138E+02 0.  0.
        254    2    1    2    0    0  0.51065801655E+03 -0.26320376958E+02  0.12132009787E+03  0.10585267579E+04  0.91885578791E+03 0.  0.
         23    2    4    4    0    0  0.70333054525E+03 -0.21738763351E+03  0.18777878916E+03  0.76512722967E+03  0.90705925085E+02 0.  0.
         23    2    4    4    0    0 -0.19267252870E+03  0.19106725655E+03 -0.66458691291E+02  0.29339952825E+03  0.89650017781E+02 0.  0.
          3    1    3    3  502    0 -0.47923454374E+02  0.26215780604E+02  0.47860044869E+02  0.72625811711E+02  0.00000000000E+00 0. -1.
         -4    1    3    3    0  502 -0.46273456218E+03  0.10459635353E+00  0.39867696027E+03  0.61079178500E+03  0.00000000000E+00 0.  1.
         13    1    5    5    0    0  0.69656741123E+03 -0.22013901643E+03  0.19365193963E+03  0.75575685155E+03  0.00000000000E+00 0.  1.
        -13    1    5    5    0    0  0.67631340159E+01  0.27513829178E+01 -0.58731504704E+01  0.93703781207E+01  0.00000000000E+00 0. -1.
          2    1    6    6  503    0 -0.19200493695E+02  0.74109133353E+02 -0.17547583136E+02  0.78541328474E+02  0.00000000000E+00 0. -1.
         -2    1    6    6    0  503 -0.17347203500E+03  0.11695812320E+03 -0.48911108156E+02  0.21485819978E+03  0.00000000000E+00 0.  1.
<mgrwt>
<rscale>  0 0.16467873E+04</rscale>
<asrwt>0</asrwt>
<pdfrwt beam="1">  1        1 0.90314404E-01 0.16467873E+04</pdfrwt>
<pdfrwt beam="2">  1       -2 0.17767703E+00 0.16467873E+04</pdfrwt>
<totfact> 0.55592283E+00</totfact>
</mgrwt>
</event>
<event>
12    5  0.5041746E-008  0.1575736E+04  0.7818608E-02  0.8835594E-01
          1   -1    0    0  501    0  0.00000000000E+00  0.00000000000E+00  0.32791520004E+04  0.32791520004E+04  0.00000000000E+00 0. -1.
         -2   -1    0    0    0  501 -0.00000000000E+00 -0.00000000000E+00 -0.18929775882E+03  0.18929775882E+03  0.00000000000E+00 0.  1.
        -24    2    1    2    0    0 -0.21317061258E+03 -0.19879818834E+03  0.83400416927E+02  0.31349624317E+03  0.79761113241E+02 0.  0.
        254    2    1    2    0    0  0.21317061258E+03  0.19879818834E+03  0.30064538247E+04  0.31549535161E+04  0.91104591481E+03 0.  0.
         23    2    4    4    0    0 -0.64331155891E+02 -0.32844469664E+03  0.93117761937E+03  0.99382317027E+03  0.92619212836E+02 0.  0.
         23    2    4    4    0    0  0.27750176847E+03  0.52724288498E+03  0.20752762053E+04  0.21611303458E+04  0.93384966344E+02 0.  0.
          3    1    3    3  502    0 -0.12710589730E+03 -0.10301410328E+03  0.85721771134E+02  0.18470526968E+03  0.00000000000E+00 0. -1.
         -4    1    3    3    0  502 -0.86064715282E+02 -0.95784085056E+02 -0.23213542070E+01  0.12879097349E+03  0.00000000000E+00 0.  1.
         13    1    5    5    0    0 -0.52812856523E+02 -0.95903589181E+02  0.38076605348E+03  0.39619374518E+03  0.00000000000E+00 0. -1.
        -13    1    5    5    0    0 -0.11518299369E+02 -0.23254110746E+03  0.55041156588E+03  0.59762942509E+03  0.00000000000E+00 0.  1.
          1    1    6    6  503    0  0.26224332974E+03  0.45165008825E+03  0.17181397511E+04  0.17957626710E+04  0.00000000000E+00 0. -1.
         -1    1    6    6    0  503  0.15258438733E+02  0.75592796730E+02  0.35713645421E+03  0.36536767481E+03  0.00000000000E+00 0.  1.
<mgrwt>
<rscale>  0 0.15757362E+04</rscale>
<asrwt>0</asrwt>
<pdfrwt beam="1">  1        1 0.50448488E+00 0.15757362E+04</pdfrwt>
<pdfrwt beam="2">  1       -2 0.29122734E-01 0.15757362E+04</pdfrwt>
<totfact> 0.34159505E+00</totfact>
</mgrwt>
</event>
<event>
12    5  0.5041746E-008  0.1486053E+04  0.7818608E-02  0.8893781E-01
          3   -1    0    0  501    0  0.00000000000E+00  0.00000000000E+00  0.23958229920E+03  0.23958229920E+03  0.00000000000E+00 0. -1.
         -4   -1    0    0    0  501 -0.00000000000E+00 -0.00000000000E+00 -0.23043795235E+04  0.23043795235E+04  0.00000000000E+00 0.  1.
        -24    2    1    2    0    0 -0.11164801280E+03  0.34667079159E+03 -0.11650292494E+04  0.12232398983E+04  0.79854745239E+02 0.  0.
        254    2    1    2    0    0  0.11164801280E+03 -0.34667079159E+03 -0.89976797488E+03  0.13207219244E+04  0.89558811762E+03 0.  0.
         23    2    4    4    0    0 -0.22413151453E+03 -0.33953700981E+03 -0.70222696968E+02  0.42138613688E+03  0.84348872798E+02 0.  0.
         23    2    4    4    0    0  0.33577952734E+03 -0.71337817749E+01 -0.82954527792E+03  0.89933578751E+03  0.88660638173E+02 0.  0.
          3    1    3    3  502    0  0.51658307279E+01  0.61670180733E+02 -0.25882527792E+03  0.26612106547E+03  0.00000000000E+00 0. -1.
         -4    1    3    3    0  502 -0.11681384353E+03  0.28500061085E+03 -0.90620397152E+03  0.95711883286E+03  0.00000000000E+00 0.  1.
         13    1    5    5    0    0 -0.12536745048E+03 -0.12958846686E+03 -0.56545907282E+02  0.18896456814E+03  0.00000000000E+00 0.  1.
        -13    1    5    5    0    0 -0.98764064055E+02 -0.20994854295E+03 -0.13676789685E+02  0.23242156874E+03  0.00000000000E+00 0. -1.
          4    1    6    6  503    0  0.89598546114E+02  0.37280206703E+02 -0.21976272829E+03  0.24023607145E+03  0.00000000000E+00 0. -1.
         -4    1    6    6    0  503  0.24618098122E+03 -0.44413988478E+02 -0.60978254962E+03  0.65909971606E+03  0.00000000000E+00 0.  1.
<mgrwt>
<rscale>  0 0.14860532E+04</rscale>
<asrwt>0</asrwt>
<pdfrwt beam="1">  1        3 0.36858816E-01 0.14860532E+04</pdfrwt>
<pdfrwt beam="2">  1       -4 0.35451992E+00 0.14860532E+04</pdfrwt>
<totfact> 0.22606716E-01</totfact>
</mgrwt>
</event>
<event>
12    5  0.5041746E-008  0.1211649E+04  0.7818608E-02  0.9102721E-01
         -2   -1    0    0    0  501 -0.00000000000E+00  0.00000000000E+00  0.21504535546E+03  0.21504535546E+03  0.00000000000E+00 0.  1.
          1   -1    0    0  501    0  0.00000000000E+00 -0.00000000000E+00 -0.17067248265E+04  0.17067248265E+04  0.00000000000E+00 0. -1.
        -24    2    1    2    0    0  0.86276763929E+01 -0.35627389663E+02 -0.74958475667E+03  0.75544382632E+03  0.86454147408E+02 0.  0.
        254    2    1    2    0    0 -0.86276763929E+01  0.35627389663E+02 -0.74209471432E+03  0.11663263556E+04  0.89903773838E+03 0.  0.
         23    2    4    4    0    0  0.23191118647E+03 -0.26010727649E+03 -0.68028968002E+03  0.76960817948E+03  0.89800375795E+02 0.  0.
         23    2    4    4    0    0 -0.24053886286E+03  0.29573466616E+03 -0.61805034304E+02  0.39671817611E+03  0.90815811823E+02 0.  0.
          3    1    3    3  502    0 -0.27086968868E+02 -0.40825408811E+02 -0.57975573603E+03  0.58182225065E+03  0.00000000000E+00 0. -1.
         -4    1    3    3    0  502  0.35714645261E+02  0.51980191478E+01 -0.16982902063E+03  0.17362157567E+03  0.00000000000E+00 0.  1.
         13    1    5    5    0    0  0.23659960637E+03 -0.26329339890E+03 -0.67251621224E+03  0.75998739685E+03  0.00000000000E+00 0. -1.
        -13    1    5    5    0    0 -0.46884199068E+01  0.31861224064E+01 -0.77734677773E+01  0.96207826343E+01  0.00000000000E+00 0.  1.
          1    1    6    6  503    0 -0.23327869875E+03  0.28012480805E+03 -0.36844507751E+02  0.36639647532E+03  0.00000000000E+00 0. -1.
         -1    1    6    6    0  503 -0.72601641149E+01  0.15609858105E+02 -0.24960526553E+02  0.30321700790E+02  0.00000000000E+00 0.  1.
<mgrwt>
<rscale>  0 0.12116489E+04</rscale>
<asrwt>0</asrwt>
<pdfrwt beam="1">  1        1 0.26257304E+00 0.12116489E+04</pdfrwt>
<pdfrwt beam="2">  1       -2 0.33083902E-01 0.12116489E+04</pdfrwt>
<totfact> 0.34923295E+01</totfact>
</mgrwt>
</event>
<event>
12    5  0.5041746E-008  0.2183402E+04  0.7818608E-02  0.8525369E-01
          1   -1    0    0  501    0  0.00000000000E+00  0.00000000000E+00  0.13684390422E+04  0.13684390422E+04  0.00000000000E+00 0. -1.
         -2   -1    0    0    0  501 -0.00000000000E+00 -0.00000000000E+00 -0.87092703315E+03  0.87092703315E+03  0.00000000000E+00 0.  1.
        -24    2    1    2    0    0  0.46781362368E+03  0.32932596522E+03 -0.51865029175E+03  0.77642116358E+03  0.80786881736E+02 0.  0.
        254    2    1    2    0    0 -0.46781362368E+03 -0.32932596522E+03  0.10161623008E+04  0.14629449118E+04  0.88335542984E+03 0.  0.
         23    2    4    4    0    0 -0.48858783064E+03  0.15728593281E+03  0.70099563517E+03  0.87364513459E+03  0.91673375344E+02 0.  0.
         23    2    4    4    0    0  0.20774206964E+02 -0.48661189803E+03  0.31516666563E+03  0.58929977718E+03  0.10354464389E+03 0.  0.
          1    1    3    3  502    0  0.32657780382E+02  0.49357188381E+02 -0.39088314854E+02  0.70926433877E+02  0.00000000000E+00 0. -1.
         -2    1    3    3    0  502  0.43515584330E+03  0.27996877684E+03 -0.47956197689E+03  0.70549472971E+03  0.00000000000E+00 0.  1.
         13    1    5    5    0    0 -0.42200565052E+03  0.15489276200E+03  0.64725222668E+03  0.78804567236E+03  0.00000000000E+00 0. -1.
        -13    1    5    5    0    0 -0.66582180127E+02  0.23931708095E+01  0.53743408494E+02  0.85599462227E+02  0.00000000000E+00 0.  1.
          1    1    6    6  503    0  0.18882064834E+02 -0.36498060782E+02  0.57420745872E+02  0.70610076262E+02  0.00000000000E+00 0.  1.
         -1    1    6    6    0  503  0.18921421297E+01 -0.45011383725E+03  0.25774591976E+03  0.51868970092E+03  0.00000000000E+00 0. -1.
<mgrwt>
<rscale>  0 0.21834015E+04</rscale>
<asrwt>0</asrwt>
<pdfrwt beam="1">  1        1 0.21052908E+00 0.21834015E+04</pdfrwt>
<pdfrwt beam="2">  1       -2 0.13398878E+00 0.21834015E+04</pdfrwt>
<totfact> 0.26061740E+00</totfact>
</mgrwt>
</event>
<event>
12    5  0.5041746E-008  0.2300642E+04  0.7818608E-02  0.8477668E-01
          1   -1    0    0  501    0  0.00000000000E+00  0.00000000000E+00  0.83247580299E+03  0.83247580299E+03  0.00000000000E+00 0. -1.
         -2   -1    0    0    0  501 -0.00000000000E+00 -0.00000000000E+00 -0.15895223525E+04  0.15895223525E+04  0.00000000000E+00 0.  1.
        -24    2    1    2    0    0  0.86262453137E+03 -0.38954373558E+03 -0.56471713029E+03  0.11050210590E+04  0.79376945577E+02 0.  0.
        254    2    1    2    0    0 -0.86262453137E+03  0.38954373558E+03 -0.19232941921E+03  0.13169770965E+04  0.89530590479E+03 0.  0.
         23    2    4    4    0    0  0.16424636744E+03 -0.30054095086E+02 -0.38332796090E+02  0.19404059061E+03  0.91116572019E+02 0.  0.
         23    2    4    4    0    0 -0.10268708988E+04  0.41959783067E+03 -0.15399662312E+03  0.11229365059E+04  0.82129495339E+02 0.  0.
          3    1    3    3  502    0  0.45922633408E+03 -0.19390752979E+03 -0.25337915738E+03  0.55918686806E+03  0.00000000000E+00 0. -1.
         -4    1    3    3    0  502  0.40339819729E+03 -0.19563620579E+03 -0.31133797291E+03  0.54583419091E+03  0.00000000000E+00 0.  1.
         13    1    5    5    0    0  0.16159550091E+03 -0.40003883315E+02 -0.13336841331E+02  0.16700684996E+03  0.00000000000E+00 0.  1.
        -13    1    5    5    0    0  0.26508665311E+01  0.99497882294E+01 -0.24995954759E+02  0.27033740650E+02  0.00000000000E+00 0. -1.
          1    1    6    6  503    0 -0.36602428455E+03  0.17264162617E+03 -0.22636882069E+02  0.40532867700E+03  0.00000000000E+00 0. -1.
         -1    1    6    6    0  503 -0.66084661426E+03  0.24695620450E+03 -0.13135974105E+03  0.71760782889E+03  0.00000000000E+00 0.  1.
<mgrwt>
<rscale>  0 0.23006424E+04</rscale>
<asrwt>0</asrwt>
<pdfrwt beam="1">  1        1 0.12807320E+00 0.23006424E+04</pdfrwt>
<pdfrwt beam="2">  1       -2 0.24454190E+00 0.23006424E+04</pdfrwt>
<totfact> 0.11400521E+00</totfact>
</mgrwt>
</event>
<event>
12    5  0.5041746E-008  0.1227138E+04  0.7818608E-02  0.9089429E-01
          1   -1    0    0  501    0  0.00000000000E+00  0.00000000000E+00  0.36346334653E+03  0.36346334653E+03  0.00000000000E+00 0. -1.
         -4   -1    0    0    0  501 -0.00000000000E+00 -0.00000000000E+00 -0.10357765705E+04  0.10357765705E+04  0.00000000000E+00 0.  1.
        -24    2    1    2    0    0  0.85023919747E+02  0.24317295347E+02  0.12516933087E+03  0.17328030235E+03  0.80859779932E+02 0.  0.
        254    2    1    2    0    0 -0.85023919747E+02 -0.24317295347E+02 -0.79748255483E+03  0.12259596147E+04  0.92691863383E+03 0.  0.
         23    2    4    4    0    0  0.20512801489E+01  0.72882195018E+02 -0.97888380150E+03  0.98566823112E+03  0.89511691407E+02 0.  0.
         23    2    4    4    0    0 -0.87075199896E+02 -0.97199490364E+02  0.18140124667E+03  0.24029138354E+03  0.88338583560E+02 0.  0.
          1    1    3    3  502    0  0.86381666886E+02 -0.60797723586E+01  0.74771288078E+02  0.11440935944E+03  0.00000000000E+00 0. -1.
         -2    1    3    3    0  502 -0.13577471395E+01  0.30397067705E+02  0.50398042794E+02  0.58870942916E+02  0.00000000000E+00 0.  1.
         13    1    5    5    0    0 -0.72013762575E+01 -0.13642344251E+02 -0.41850129183E+02  0.44602765489E+02  0.00000000000E+00 0. -1.
        -13    1    5    5    0    0  0.92526564064E+01  0.86524539269E+02 -0.93703367232E+03  0.94106546563E+03  0.00000000000E+00 0.  1.
          3    1    6    6  503    0 -0.11815042580E+02 -0.67315390449E+01 -0.91080141706E+01  0.16366574816E+02  0.00000000000E+00 0. -1.
         -3    1    6    6    0  503 -0.75260157316E+02 -0.90467951320E+02  0.19050926084E+03  0.22392480872E+03  0.00000000000E+00 0.  1.
<mgrwt>
<rscale>  0 0.12271378E+04</rscale>
<asrwt>0</asrwt>
<pdfrwt beam="1">  1        1 0.55917438E-01 0.12271378E+04</pdfrwt>
<pdfrwt beam="2">  1       -4 0.15935024E+00 0.12271378E+04</pdfrwt>
<totfact> 0.81100993E+00</totfact>
</mgrwt>
</event>
<event>
12    5  0.5041746E-008  0.1772569E+04  0.7818608E-02  0.8721025E-01
         -2   -1    0    0    0  501 -0.00000000000E+00  0.00000000000E+00  0.62851331674E+03  0.62851331674E+03  0.00000000000E+00 0.  1.
          1   -1    0    0  501    0  0.00000000000E+00 -0.00000000000E+00 -0.12497746329E+04  0.12497746329E+04  0.00000000000E+00 0. -1.
        -24    2    1    2    0    0  0.28597564412E+02  0.64926791510E+03 -0.29570284569E+03  0.71832603765E+03  0.78647804406E+02 0.  0.
        254    2    1    2    0    0 -0.28597564412E+02 -0.64926791510E+03 -0.32555847046E+03  0.11599619120E+04  0.90396718596E+03 0.  0.
         23    2    4    4    0    0  0.11551706772E+03 -0.26406401678E+03  0.28626355677E+03  0.41670535625E+03  0.92857590422E+02 0.  0.
         23    2    4    4    0    0 -0.14411463213E+03 -0.38520389832E+03 -0.61182202723E+03  0.74325655573E+03  0.94620527194E+02 0.  0.
          1    1    3    3  502    0  0.13965385469E+00  0.77949787321E+01  0.50383403402E+01  0.92825680723E+01  0.00000000000E+00 0. -1.
         -2    1    3    3    0  502  0.28457910557E+02  0.64147293637E+03 -0.30074118603E+03  0.70904346957E+03  0.00000000000E+00 0.  1.
         13    1    5    5    0    0  0.36368852162E+02 -0.12225060697E+03  0.18703666755E+03  0.22638599630E+03  0.00000000000E+00 0.  1.
        -13    1    5    5    0    0  0.79148215555E+02 -0.14181340981E+03  0.99226889220E+02  0.19031935995E+03  0.00000000000E+00 0. -1.
          4    1    6    6  503    0 -0.12889568894E+03 -0.23499158147E+03 -0.43279229178E+03  0.50906218659E+03  0.00000000000E+00 0. -1.
         -4    1    6    6    0  503 -0.15218943186E+02 -0.15021231685E+03 -0.17902973545E+03  0.23419436915E+03  0.00000000000E+00 0.  1.
<mgrwt>
<rscale>  0 0.17725688E+04</rscale>
<asrwt>0</asrwt>
<pdfrwt beam="1">  1        1 0.19227302E+00 0.17725688E+04</pdfrwt>
<pdfrwt beam="2">  1       -2 0.96694358E-01 0.17725688E+04</pdfrwt>
<totfact> 0.72931768E+00</totfact>
</mgrwt>
</event>
<event>
12    5  0.5041746E-008  0.1038623E+04  0.7818608E-02  0.9267170E-01
         -2   -1    0    0    0  501 -0.00000000000E+00  0.00000000000E+00  0.10200826423E+03  0.10200826423E+03  0.00000000000E+00 0.  1.
          1   -1    0    0  501    0  0.00000000000E+00 -0.00000000000E+00 -0.26437483269E+04  0.26437483269E+04  0.00000000000E+00 0. -1.
        -24    2    1    2    0    0  0.17716217105E+02 -0.93011960657E+02 -0.53825081361E+03  0.55220048620E+03  0.79033849939E+02 0.  0.
        254    2    1    2    0    0 -0.17716217105E+02  0.93011960657E+02 -0.20034892491E+04  0.21935561049E+04  0.88811830585E+03 0.  0.
         23    2    4    4    0    0 -0.28494182513E+03  0.37098203401E+03 -0.85984352326E+03  0.98321245984E+03  0.92500504985E+02 0.  0.
         23    2    4    4    0    0  0.26722560802E+03 -0.27797007336E+03 -0.11436457258E+04  0.12103436451E+04  0.91265030553E+02 0.  0.
          1    1    3    3  502    0  0.24225423821E+02 -0.29469667948E+02 -0.37441549833E+03  0.37635395292E+03  0.00000000000E+00 0. -1.
         -2    1    3    3    0  502 -0.65092067155E+01 -0.63542292709E+02 -0.16383531528E+03  0.17584653329E+03  0.00000000000E+00 0.  1.
         13    1    5    5    0    0 -0.48504010667E+02  0.42380620899E+02 -0.18913805767E+03  0.19980480709E+03  0.00000000000E+00 0. -1.
        -13    1    5    5    0    0 -0.23643781446E+03  0.32860141311E+03 -0.67070546559E+03  0.78340765275E+03  0.00000000000E+00 0.  1.
          2    1    6    6  503    0  0.25322927108E+03 -0.27522676358E+03 -0.11311709369E+04  0.11913952005E+04  0.00000000000E+00 0.  1.
         -2    1    6    6    0  503  0.13996336943E+02 -0.27433097805E+01 -0.12474788852E+02  0.18948444613E+02  0.00000000000E+00 0. -1.
<mgrwt>
<rscale>  0 0.10386225E+04</rscale>
<asrwt>0</asrwt>
<pdfrwt beam="1">  1        1 0.40673046E+00 0.10386225E+04</pdfrwt>
<pdfrwt beam="2">  1       -2 0.15693581E-01 0.10386225E+04</pdfrwt>
<totfact> 0.31121286E+01</totfact>
</mgrwt>
</event>
<event>
12    5  0.5041746E-008  0.1692364E+04  0.7818608E-02  0.8765731E-01
         -2   -1    0    0    0  501 -0.00000000000E+00  0.00000000000E+00  0.34024195558E+03  0.34024195558E+03  0.00000000000E+00 0.  1.
          1   -1    0    0  501    0  0.00000000000E+00 -0.00000000000E+00 -0.21044561878E+04  0.21044561878E+04  0.00000000000E+00 0. -1.
        -24    2    1    2    0    0  0.13422552985E+03  0.35363271747E+02 -0.14826242247E+04  0.14913024753E+04  0.80879091043E+02 0.  0.
        254    2    1    2    0    0 -0.13422552985E+03 -0.35363271747E+02 -0.28159000750E+03  0.95339566805E+03  0.90022403527E+03 0.  0.
         23    2    4    4    0    0  0.33570676170E+03  0.74666064604E+02 -0.29445482727E+03  0.46226979513E+03  0.93357737404E+02 0.  0.
         23    2    4    4    0    0 -0.46993229155E+03 -0.11002933635E+03  0.12864819768E+02  0.49112587292E+03  0.89979475230E+02 0.  0.
          3    1    3    3  502    0  0.83211179719E+02  0.20781455741E+02 -0.12391307932E+04  0.12420954440E+04  0.00000000000E+00 0. -1.
         -2    1    3    3    0  502  0.51014350135E+02  0.14581816006E+02 -0.24349343150E+03  0.24920703132E+03  0.00000000000E+00 0.  1.
         13    1    5    5    0    0  0.10610072484E+03  0.11300905851E+02 -0.40595199215E+02  0.11416236019E+03  0.00000000000E+00 0. -1.
        -13    1    5    5    0    0  0.22960603686E+03  0.63365158753E+02 -0.25385962805E+03  0.34810743494E+03  0.00000000000E+00 0.  1.
          2    1    6    6  503    0 -0.44631909120E+03 -0.91857112877E+02 -0.62661875230E+01  0.45571671624E+03  0.00000000000E+00 0. -1.
         -2    1    6    6    0  503 -0.23613200357E+02 -0.18172223474E+02  0.19131007291E+02  0.35409156684E+02  0.00000000000E+00 0.  1.
<mgrwt>
<rscale>  0 0.16923644E+04</rscale>
<asrwt>0</asrwt>
<pdfrwt beam="1">  1        1 0.32376250E+00 0.16923644E+04</pdfrwt>
<pdfrwt beam="2">  1       -2 0.52344915E-01 0.16923644E+04</pdfrwt>
<totfact> 0.72917237E+00</totfact>
</mgrwt>
</event>
<event>
12    5  0.5041746E-008  0.1754047E+04  0.7818608E-02  0.8731126E-01
          1   -1    0    0  501    0  0.00000000000E+00  0.00000000000E+00  0.17824814321E+04  0.17824814321E+04  0.00000000000E+00 0. -1.
         -2   -1    0    0    0  501 -0.00000000000E+00 -0.00000000000E+00 -0.43151672250E+03  0.43151672250E+03  0.00000000000E+00 0.  1.
        -24    2    1    2    0    0 -0.60129536067E+02  0.18891888665E+03  0.12773303687E+04  0.12951579729E+04  0.80965406967E+02 0.  0.
        254    2    1    2    0    0  0.60129536067E+02 -0.18891888665E+03  0.73634340828E+02  0.91884018163E+03  0.89416964631E+03 0.  0.
         23    2    4    4    0    0  0.10155023698E+02  0.29084817950E+03 -0.19311797180E+03  0.35979782006E+03  0.86395209724E+02 0.  0.
         23    2    4    4    0    0  0.49974512368E+02 -0.47976706615E+03  0.26675231263E+03  0.55904236157E+03  0.93261332228E+02 0.  0.
          1    1    3    3  502    0 -0.58759551320E+02  0.87088843304E+02  0.48082262658E+03  0.49216618101E+03  0.00000000000E+00 0. -1.
         -4    1    3    3    0  502 -0.13699847462E+01  0.10183004335E+03  0.79650774215E+03  0.80299179192E+03  0.00000000000E+00 0.  1.
         13    1    5    5    0    0 -0.28170523605E+02  0.15372227584E+03 -0.13311683886E+03  0.20529054844E+03  0.00000000000E+00 0.  1.
        -13    1    5    5    0    0  0.38325547304E+02  0.13712590365E+03 -0.60001132941E+02  0.15450727162E+03  0.00000000000E+00 0. -1.
          3    1    6    6  503    0  0.10929079042E+02 -0.28441415578E+03  0.20398163505E+03  0.35017047879E+03  0.00000000000E+00 0.  1.
         -3    1    6    6    0  503  0.39045433326E+02 -0.19535291037E+03  0.62770677578E+02  0.20887188278E+03  0.00000000000E+00 0. -1.
<mgrwt>
<rscale>  0 0.17540474E+04</rscale>
<asrwt>0</asrwt>
<pdfrwt beam="1">  1        1 0.27422791E+00 0.17540474E+04</pdfrwt>
<pdfrwt beam="2">  1       -2 0.66387189E-01 0.17540474E+04</pdfrwt>
<totfact> 0.72636406E+00</totfact>
</mgrwt>
</event>
<event>
12    5  0.5041746E-008  0.1437997E+04  0.7818608E-02  0.8926765E-01
          1   -1    0    0  501    0  0.00000000000E+00  0.00000000000E+00  0.28680611552E+04  0.28680611552E+04  0.00000000000E+00 0. -1.
         -4   -1    0    0    0  501 -0.00000000000E+00 -0.00000000000E+00 -0.18024673029E+03  0.18024673029E+03  0.00000000000E+00 0.  1.
        -24    2    1    2    0    0 -0.42113187631E+03 -0.87240224467E+02  0.87702522707E+03  0.98050333093E+03  0.85150566869E+02 0.  0.
        254    2    1    2    0    0  0.42113187631E+03  0.87240224467E+02  0.18107891978E+04  0.20678045546E+04  0.90105229752E+03 0.  0.
         23    2    4    4    0    0  0.48454697876E+03 -0.14284116244E+03  0.17223208829E+04  0.17973327264E+04  0.93948568147E+02 0.  0.
         23    2    4    4    0    0 -0.63415102450E+02  0.23008138691E+03  0.88468314987E+02  0.27047182820E+03  0.91484683268E+02 0.  0.
          3    1    3    3  502    0 -0.21576346488E+03 -0.80623665215E+01  0.38307199805E+03  0.43973063371E+03  0.00000000000E+00 0. -1.
         -4    1    3    3    0  502 -0.20536841143E+03 -0.79177857945E+02  0.49395322902E+03  0.54077269722E+03  0.00000000000E+00 0.  1.
         13    1    5    5    0    0  0.33052980677E+02 -0.23068289597E+02  0.23353860763E+03  0.23699140654E+03  0.00000000000E+00 0.  1.
        -13    1    5    5    0    0  0.45149399808E+03 -0.11977287284E+03  0.14887822752E+04  0.15603413198E+04  0.00000000000E+00 0. -1.
          4    1    6    6  503    0  0.71166912239E+01  0.94491579536E+02  0.18108373731E+01  0.94776500406E+02  0.00000000000E+00 0.  1.
         -4    1    6    6    0  503 -0.70531793673E+02  0.13558980737E+03  0.86657477614E+02  0.17569532779E+03  0.00000000000E+00 0. -1.
<mgrwt>
<rscale>  0 0.14379967E+04</rscale>
<asrwt>0</asrwt>
<pdfrwt beam="1">  1        1 0.44124014E+00 0.14379967E+04</pdfrwt>
<pdfrwt beam="2">  1       -4 0.27730268E-01 0.14379967E+04</pdfrwt>
<totfact> 0.45592777E+00</totfact>
</mgrwt>
</event>
<event>
12    5  0.5041746E-008  0.1348329E+04  0.7818608E-02  0.8992094E-01
         -2   -1    0    0    0  501 -0.00000000000E+00  0.00000000000E+00  0.29888171737E+03  0.29888171737E+03  0.00000000000E+00 0.  1.
          1   -1    0    0  501    0  0.00000000000E+00 -0.00000000000E+00 -0.15206609035E+04  0.15206609035E+04  0.00000000000E+00 0. -1.
        -24    2    1    2    0    0 -0.24532039302E+02  0.38809218362E+02  0.15147201479E+03  0.17709201195E+03  0.79434457567E+02 0.  0.
        254    2    1    2    0    0  0.24532039302E+02 -0.38809218362E+02 -0.13732512010E+04  0.16424506090E+04  0.89984285603E+03 0.  0.
         23    2    4    4    0    0 -0.36616322774E+03 -0.22843655457E+03 -0.84261115740E+03  0.95102551459E+03  0.90538378653E+02 0.  0.
         23    2    4    4    0    0  0.39069526705E+03  0.18962733621E+03 -0.53064004357E+03  0.69142509437E+03  0.88817154680E+02 0.  0.
          3    1    3    3  502    0  0.27107268879E+02  0.25073988665E+02  0.77408374070E+02  0.85764592402E+02  0.00000000000E+00 0. -1.
         -4    1    3    3    0  502 -0.51639308181E+02  0.13735229697E+02  0.74063640718E+02  0.91327419544E+02  0.00000000000E+00 0.  1.
         13    1    5    5    0    0 -0.27118604331E+03 -0.19456710425E+03 -0.57223709504E+03  0.66246020339E+03  0.00000000000E+00 0.  1.
        -13    1    5    5    0    0 -0.94977184438E+02 -0.33869450320E+02 -0.27037406235E+03  0.28856531119E+03  0.00000000000E+00 0. -1.
          3    1    6    6  503    0  0.32874202708E+03  0.17546857773E+03 -0.40325376489E+03  0.54906660892E+03  0.00000000000E+00 0. -1.
         -3    1    6    6    0  503  0.61953239968E+02  0.14158758472E+02 -0.12738627868E+03  0.14235848545E+03  0.00000000000E+00 0.  1.
<mgrwt>
<rscale>  0 0.13483290E+04</rscale>
<asrwt>0</asrwt>
<pdfrwt beam="1">  1        1 0.23394783E+00 0.13483290E+04</pdfrwt>
<pdfrwt beam="2">  1       -2 0.45981804E-01 0.13483290E+04</pdfrwt>
<totfact> 0.24382716E+01</totfact>
</mgrwt>
</event>
<event>
12    5  0.5041746E-008  0.1549538E+04  0.7818608E-02  0.8852163E-01
          1   -1    0    0  501    0  0.00000000000E+00  0.00000000000E+00  0.22386030248E+04  0.22386030248E+04  0.00000000000E+00 0. -1.
         -2   -1    0    0    0  501 -0.00000000000E+00 -0.00000000000E+00 -0.26814372298E+03  0.26814372298E+03  0.00000000000E+00 0.  1.
        -24    2    1    2    0    0 -0.11519137713E+03  0.47154065397E+03  0.38944950247E+03  0.62715814113E+03  0.77696700703E+02 0.  0.
        254    2    1    2    0    0  0.11519137713E+03 -0.47154065397E+03  0.15810097993E+04  0.18795886066E+04  0.89310788985E+03 0.  0.
         23    2    4    4    0    0 -0.30936679772E+03 -0.70419315864E+02  0.22232814770E+03  0.39789638420E+03  0.90691960619E+02 0.  0.
         23    2    4    4    0    0  0.42455817485E+03 -0.40112133810E+03  0.13586816516E+04  0.14816922224E+04  0.90818719703E+02 0.  0.
          1    1    3    3  502    0  0.85194446325E+01  0.51406518547E+02  0.57557947601E+02  0.77641022778E+02  0.00000000000E+00 0. -1.
         -2    1    3    3    0  502 -0.12371082176E+03  0.42013413542E+03  0.33189155487E+03  0.54951711835E+03  0.00000000000E+00 0.  1.
         13    1    5    5    0    0 -0.18717152707E+03 -0.66265322379E+02  0.18145395851E+03  0.26897920469E+03  0.00000000000E+00 0. -1.
        -13    1    5    5    0    0 -0.12219527065E+03 -0.41539934851E+01  0.40874189191E+02  0.12891717951E+03  0.00000000000E+00 0.  1.
          1    1    6    6  503    0  0.28303092323E+03 -0.22263763078E+03  0.75545417171E+03  0.83689009057E+03  0.00000000000E+00 0. -1.
         -1    1    6    6    0  503  0.14152725162E+03 -0.17848370732E+03  0.60322747989E+03  0.64480213184E+03  0.00000000000E+00 0.  1.
<mgrwt>
<rscale>  0 0.15495384E+04</rscale>
<asrwt>0</asrwt>
<pdfrwt beam="1">  1        1 0.34440045E+00 0.15495384E+04</pdfrwt>
<pdfrwt beam="2">  1       -2 0.41252882E-01 0.15495384E+04</pdfrwt>
<totfact> 0.96659349E+00</totfact>
</mgrwt>
</event>
<event>
12    5  0.5041746E-008  0.1346952E+04  0.7818608E-02  0.8993139E-01
         -2   -1    0    0    0  501 -0.00000000000E+00  0.00000000000E+00  0.48328560093E+03  0.48328560093E+03  0.00000000000E+00 0.  1.
          1   -1    0    0  501    0  0.00000000000E+00 -0.00000000000E+00 -0.93851257048E+03  0.93851257048E+03  0.00000000000E+00 0. -1.
        -24    2    1    2    0    0 -0.24269877479E+03 -0.22662636475E+03  0.66899470272E+02  0.34807899643E+03  0.80132665936E+02 0.  0.
        254    2    1    2    0    0  0.24269877479E+03  0.22662636475E+03 -0.52212643983E+03  0.10737191750E+04  0.87749338634E+03 0.  0.
         23    2    4    4    0    0 -0.16541562922E+03  0.42120129991E+03 -0.16518356470E+03  0.49088396969E+03  0.94385360171E+02 0.  0.
         23    2    4    4    0    0  0.40811440401E+03 -0.19457493516E+03 -0.35694287513E+03  0.58283520529E+03  0.88723662422E+02 0.  0.
          1    1    3    3  502    0 -0.35827430215E+02 -0.45261145557E+02 -0.17479854006E+02  0.60313525424E+02  0.00000000000E+00 0. -1.
         -2    1    3    3    0  502 -0.20687134457E+03 -0.18136521919E+03  0.84379324277E+02  0.28776547101E+03  0.00000000000E+00 0.  1.
         13    1    5    5    0    0 -0.51096661717E+02  0.17932169787E+03 -0.11384939338E+03  0.21846927597E+03  0.00000000000E+00 0. -1.
        -13    1    5    5    0    0 -0.11431896750E+03  0.24187960204E+03 -0.51334171319E+02  0.27241469372E+03  0.00000000000E+00 0.  1.
          3    1    6    6  503    0  0.10566586425E+03 -0.80713274837E+02 -0.14298959609E+03  0.19525862898E+03  0.00000000000E+00 0. -1.
         -3    1    6    6    0  503  0.30244853976E+03 -0.11386166032E+03 -0.21395327904E+03  0.38757657631E+03  0.00000000000E+00 0.  1.
<mgrwt>
<rscale>  0 0.13469515E+04</rscale>
<asrwt>0</asrwt>
<pdfrwt beam="1">  1        1 0.14438655E+00 0.13469515E+04</pdfrwt>
<pdfrwt beam="2">  1       -2 0.74351631E-01 0.13469515E+04</pdfrwt>
<totfact> 0.23653743E+01</totfact>
</mgrwt>
</event>
<event>
12    5  0.5041746E-008  0.1115288E+04  0.7818608E-02  0.9190418E-01
          1   -1    0    0  501    0  0.00000000000E+00  0.00000000000E+00  0.20800505906E+04  0.20800505906E+04  0.00000000000E+00 0. -1.
         -2   -1    0    0    0  501 -0.00000000000E+00 -0.00000000000E+00 -0.14949951612E+03  0.14949951612E+03  0.00000000000E+00 0.  1.
        -24    2    1    2    0    0  0.18468536410E+03  0.11783402890E+00  0.44950877349E+03  0.49242186758E+03  0.79450995155E+02 0.  0.
        254    2    1    2    0    0 -0.18468536410E+03 -0.11783402890E+00  0.14810423010E+04  0.17371282391E+04  0.88883042492E+03 0.  0.
         23    2    4    4    0    0  0.17184444422E+03  0.32041924875E+03  0.38621503890E+03  0.53815371632E+03  0.90820472024E+02 0.  0.
         23    2    4    4    0    0 -0.35652980832E+03 -0.32053708278E+03  0.10948272621E+04  0.11989745228E+04  0.95056019660E+02 0.  0.
          3    1    3    3  502    0  0.45683181192E+02 -0.45486778470E+01  0.43470580162E+02  0.63224479861E+02  0.00000000000E+00 0. -1.
         -4    1    3    3    0  502  0.13900218291E+03  0.46665118759E+01  0.40603819333E+03  0.42919738772E+03  0.00000000000E+00 0.  1.
         13    1    5    5    0    0  0.14162120751E+02 -0.25675869664E+01  0.23237688235E+02  0.27334014002E+02  0.00000000000E+00 0. -1.
        -13    1    5    5    0    0  0.15768232347E+03  0.32298683572E+03  0.36297735066E+03  0.51081970231E+03  0.00000000000E+00 0.  1.
          3    1    6    6  503    0 -0.18163360444E+03 -0.19094676872E+03  0.70252294199E+03  0.75032654143E+03  0.00000000000E+00 0. -1.
         -3    1    6    6    0  503 -0.17489620388E+03 -0.12959031406E+03  0.39230432007E+03  0.44864798136E+03  0.00000000000E+00 0.  1.
<mgrwt>
<rscale>  0 0.11152875E+04</rscale>
<asrwt>0</asrwt>
<pdfrwt beam="1">  1        1 0.32000776E+00 0.11152875E+04</pdfrwt>
<pdfrwt beam="2">  1       -2 0.22999927E-01 0.11152875E+04</pdfrwt>
<totfact> 0.38450143E+01</totfact>
</mgrwt>
</event>
<event>
12    5  0.5041746E-008  0.1227028E+04  0.7818608E-02  0.9089522E-01
          1   -1    0    0  501    0  0.00000000000E+00  0.00000000000E+00  0.14917240332E+04  0.14917240332E+04  0.00000000000E+00 0. -1.
         -2   -1    0    0    0  501 -0.00000000000E+00 -0.00000000000E+00 -0.25232514267E+03  0.25232514267E+03  0.00000000000E+00 0.  1.
        -24    2    1    2    0    0 -0.15896765630E+03 -0.18513176382E+03  0.11603027972E+03  0.28191973732E+03  0.80443935461E+02 0.  0.
        254    2    1    2    0    0  0.15896765630E+03  0.18513176382E+03  0.11233686109E+04  0.14621294386E+04  0.90350482768E+03 0.  0.
         23    2    4    4    0    0  0.51549276740E+03  0.16166324565E+03  0.52251213821E+03  0.75693093297E+03  0.89764717266E+02 0.  0.
         23    2    4    4    0    0 -0.35652511110E+03  0.23468518167E+02  0.60085647264E+03  0.70519850563E+03  0.92819747060E+02 0.  0.
          1    1    3    3  502    0 -0.34649228958E+02 -0.99922567543E+02  0.56168873621E+02  0.11974986821E+03  0.00000000000E+00 0. -1.
         -2    1    3    3    0  502 -0.12431842734E+03 -0.85209196278E+02  0.59861406102E+02  0.16216986911E+03  0.00000000000E+00 0.  1.
         13    1    5    5    0    0  0.46782575230E+03  0.12303793258E+03  0.43850560709E+03  0.65290614549E+03  0.00000000000E+00 0. -1.
        -13    1    5    5    0    0  0.47667015102E+02  0.38625313072E+02  0.84006531124E+02  0.10402478748E+03  0.00000000000E+00 0.  1.
          4    1    6    6  503    0 -0.47758649776E+02 -0.14395568030E+02  0.40365697264E+02  0.64167830905E+02  0.00000000000E+00 0.  1.
         -4    1    6    6    0  503 -0.30876646132E+03  0.37864086198E+02  0.56049077538E+03  0.64103067473E+03  0.00000000000E+00 0. -1.
<mgrwt>
<rscale>  0 0.12270281E+04</rscale>
<asrwt>0</asrwt>
<pdfrwt beam="1">  1        1 0.22949600E+00 0.12270281E+04</pdfrwt>
<pdfrwt beam="2">  1       -2 0.38819253E-01 0.12270281E+04</pdfrwt>
<totfact> 0.36026884E+01</totfact>
</mgrwt>
</event>
<event>
12    5  0.5041746E-008  0.1787389E+04  0.7818608E-02  0.8713035E-01
         -2   -1    0    0    0  501 -0.00000000000E+00  0.00000000000E+00  0.37575740885E+03  0.37575740885E+03  0.00000000000E+00 0.  1.
          1   -1    0    0  501    0  0.00000000000E+00 -0.00000000000E+00 -0.21255456981E+04  0.21255456981E+04  0.00000000000E+00 0. -1.
        -24    2    1    2    0    0 -0.60024663616E+03 -0.16385488473E+03 -0.97217609203E+03  0.11568787521E+04  0.78087423811E+02 0.  0.
        254    2    1    2    0    0  0.60024663616E+03  0.16385488473E+03 -0.77761219726E+03  0.13444243549E+04  0.90313435829E+03 0.  0.
         23    2    4    4    0    0  0.38991223050E+01  0.34042778212E+03 -0.59142073028E+03  0.68859847717E+03  0.92103770601E+02 0.  0.
         23    2    4    4    0    0  0.59634751386E+03 -0.17657289739E+03 -0.18619146698E+03  0.65582587769E+03  0.92908417769E+02 0.  0.
          3    1    3    3  502    0 -0.35896608509E+03 -0.10374260318E+03 -0.65208068893E+03  0.75155066551E+03  0.00000000000E+00 0. -1.
         -4    1    3    3    0  502 -0.24128055108E+03 -0.60112281548E+02 -0.32009540310E+03  0.40532808662E+03  0.00000000000E+00 0.  1.
         13    1    5    5    0    0  0.46679356308E+02  0.14065272531E+03 -0.25979576898E+03  0.29909194743E+03  0.00000000000E+00 0.  1.
        -13    1    5    5    0    0 -0.42780234003E+02  0.19977505681E+03 -0.33162496131E+03  0.38950652974E+03  0.00000000000E+00 0. -1.
          3    1    6    6  503    0  0.47186100522E+03 -0.11286636719E+03 -0.17410043859E+03  0.51546346894E+03  0.00000000000E+00 0. -1.
         -3    1    6    6    0  503  0.12448650863E+03 -0.63706530207E+02 -0.12091028391E+02  0.14036240875E+03  0.00000000000E+00 0.  1.
<mgrwt>
<rscale>  0 0.17873886E+04</rscale>
<asrwt>0</asrwt>
<pdfrwt beam="1">  1        1 0.32700703E+00 0.17873886E+04</pdfrwt>
<pdfrwt beam="2">  1       -2 0.57808831E-01 0.17873886E+04</pdfrwt>
<totfact> 0.56913186E+00</totfact>
</mgrwt>
</event>
<event>
12    5  0.5041746E-008  0.3552489E+04  0.7818608E-02  0.8101462E-01
          3   -1    0    0  501    0  0.00000000000E+00  0.00000000000E+00  0.21988449655E+04  0.21988449655E+04  0.00000000000E+00 0. -1.
         -4   -1    0    0    0  501 -0.00000000000E+00 -0.00000000000E+00 -0.14348640803E+04  0.14348640803E+04  0.00000000000E+00 0.  1.
        -24    2    1    2    0    0  0.21161848099E+03  0.10142930400E+04 -0.96797553458E+03  0.14202508638E+04  0.81013135097E+02 0.  0.
        254    2    1    2    0    0 -0.21161848099E+03 -0.10142930400E+04  0.17319564198E+04  0.22134581821E+04  0.90892867227E+03 0.  0.
         23    2    4    4    0    0  0.34605698061E+03 -0.39126773992E+03  0.58362597865E+03  0.78995065108E+03  0.10274663039E+03 0.  0.
         23    2    4    4    0    0 -0.55767546160E+03 -0.62302530006E+03  0.11483304411E+04  0.14235075310E+04  0.92457794422E+02 0.  0.
          3    1    3    3  502    0  0.10481370718E+03  0.41293909441E+03 -0.34975159622E+03  0.55120847959E+03  0.00000000000E+00 0. -1.
         -4    1    3    3    0  502  0.10680477380E+03  0.60135394557E+03 -0.61822393835E+03  0.86904238419E+03  0.00000000000E+00 0.  1.
         13    1    5    5    0    0  0.31929213237E+03 -0.36639927597E+03  0.49317518073E+03  0.69239992354E+03  0.00000000000E+00 0. -1.
        -13    1    5    5    0    0  0.26764848244E+02 -0.24868463953E+02  0.90450797913E+02  0.97550727542E+02  0.00000000000E+00 0.  1.
          4    1    6    6  503    0 -0.32448829608E+03 -0.36267971870E+03  0.74437773124E+03  0.88934101413E+03  0.00000000000E+00 0. -1.
         -4    1    6    6    0  503 -0.23318716552E+03 -0.26034558136E+03  0.40395270990E+03  0.53416651686E+03  0.00000000000E+00 0.  1.
<mgrwt>
<rscale>  0 0.35524885E+04</rscale>
<asrwt>0</asrwt>
<pdfrwt beam="1">  1        3 0.33828384E+00 0.35524885E+04</pdfrwt>
<pdfrwt beam="2">  1       -4 0.22074832E+00 0.35524885E+04</pdfrwt>
<totfact> 0.42642780E-03</totfact>
</mgrwt>
</event>
<event>
12    5  0.5041746E-008  0.1500649E+04  0.7818608E-02  0.8884022E-01
         -2   -1    0    0    0  501 -0.00000000000E+00  0.00000000000E+00  0.33136256828E+03  0.33136256828E+03  0.00000000000E+00 0.  1.
          1   -1    0    0  501    0  0.00000000000E+00 -0.00000000000E+00 -0.16990053254E+04  0.16990053254E+04  0.00000000000E+00 0. -1.
        -24    2    1    2    0    0  0.98408231901E+02 -0.97247244342E+02 -0.10564955709E+04  0.10681725755E+04  0.75289794133E+02 0.  0.
        254    2    1    2    0    0 -0.98408231901E+02  0.97247244342E+02 -0.31114718627E+03  0.96219531822E+03  0.89992558150E+03 0.  0.
         23    2    4    4    0    0  0.29837387630E+03  0.75974691283E+02  0.14443657780E+03  0.35084310637E+03  0.86196499364E+02 0.  0.
         23    2    4    4    0    0 -0.39678210821E+03  0.21272553058E+02 -0.45558376406E+03  0.61135221185E+03  0.91139442339E+02 0.  0.
          1    1    3    3  502    0  0.75918364262E+02 -0.60194474169E+02 -0.91685104966E+03  0.92195597509E+03  0.00000000000E+00 0. -1.
         -2    1    3    3    0  502  0.22489867639E+02 -0.37052770172E+02 -0.13964452123E+03  0.14621660040E+03  0.00000000000E+00 0.  1.
         13    1    5    5    0    0  0.48139473566E+02  0.38450280243E+02  0.54641734438E+02  0.82350179771E+02  0.00000000000E+00 0. -1.
        -13    1    5    5    0    0  0.25023440274E+03  0.37524411041E+02  0.89794843359E+02  0.26849292660E+03  0.00000000000E+00 0.  1.
          1    1    6    6  503    0 -0.52550735907E+02 -0.10350061415E+02 -0.11107349834E+03  0.12331271488E+03  0.00000000000E+00 0. -1.
         -1    1    6    6    0  503 -0.34423137230E+03  0.31622614474E+02 -0.34451026572E+03  0.48803949697E+03  0.00000000000E+00 0.  1.
<mgrwt>
<rscale>  0 0.15006489E+04</rscale>
<asrwt>0</asrwt>
<pdfrwt beam="1">  1        1 0.26138544E+00 0.15006489E+04</pdfrwt>
<pdfrwt beam="2">  1       -2 0.50978857E-01 0.15006489E+04</pdfrwt>
<totfact> 0.14740494E+01</totfact>
</mgrwt>
</event>
<event>
12    5  0.5041746E-008  0.1741266E+04  0.7818608E-02  0.8738173E-01
          1   -1    0    0  501    0  0.00000000000E+00  0.00000000000E+00  0.10100778173E+04  0.10100778173E+04  0.00000000000E+00 0. -1.
         -2   -1    0    0    0  501 -0.00000000000E+00 -0.00000000000E+00 -0.75043871261E+03  0.75043871261E+03  0.00000000000E+00 0.  1.
        -24    2    1    2    0    0  0.56518773851E+03  0.48454327056E+02  0.38080516867E+03  0.68784442697E+03  0.79576238016E+02 0.  0.
        254    2    1    2    0    0 -0.56518773851E+03 -0.48454327056E+02 -0.12116606395E+03  0.10726721030E+04  0.90230772125E+03 0.  0.
         23    2    4    4    0    0 -0.36962717257E+03  0.19047898172E+03 -0.44527981520E+03  0.61586924466E+03  0.90079539974E+02 0.  0.
         23    2    4    4    0    0 -0.19556056594E+03 -0.23893330878E+03  0.32411375124E+03  0.45680285829E+03  0.91027834230E+02 0.  0.
          1    1    3    3  502    0  0.24619394095E+03  0.26437830179E+01  0.12342708663E+03  0.27541367407E+03  0.00000000000E+00 0. -1.
         -2    1    3    3    0  502  0.31899379756E+03  0.45810544038E+02  0.25737808204E+03  0.41243075290E+03  0.00000000000E+00 0.  1.
         13    1    5    5    0    0 -0.98284910969E+02  0.20263771602E+02 -0.14832427624E+03  0.17908276043E+03  0.00000000000E+00 0. -1.
        -13    1    5    5    0    0 -0.27134226160E+03  0.17021521012E+03 -0.29695553896E+03  0.43678648423E+03  0.00000000000E+00 0.  1.
          1    1    6    6  503    0 -0.64980385707E+02 -0.12748338199E+03  0.10035004700E+03  0.17477012085E+03  0.00000000000E+00 0. -1.
         -1    1    6    6    0  503 -0.13058018024E+03 -0.11144992679E+03  0.22376370425E+03  0.28203273745E+03  0.00000000000E+00 0.  1.
<mgrwt>
<rscale>  0 0.17412656E+04</rscale>
<asrwt>0</asrwt>
<pdfrwt beam="1">  1        1 0.15539659E+00 0.17412656E+04</pdfrwt>
<pdfrwt beam="2">  1       -2 0.11545211E+00 0.17412656E+04</pdfrwt>
<totfact> 0.72143859E+00</totfact>
</mgrwt>
</event>
<event>
12    5  0.5041746E-008  0.2120091E+04  0.7818608E-02  0.8552444E-01
         -2   -1    0    0    0  501 -0.00000000000E+00  0.00000000000E+00  0.37351652446E+03  0.37351652446E+03  0.00000000000E+00 0.  1.
          1   -1    0    0  501    0  0.00000000000E+00 -0.00000000000E+00 -0.30084251536E+04  0.30084251536E+04  0.00000000000E+00 0. -1.
        -24    2    1    2    0    0  0.41173742430E+03  0.34710762031E+03 -0.21755225415E+04  0.22431233442E+04  0.93234123695E+02 0.  0.
        254    2    1    2    0    0 -0.41173742430E+03 -0.34710762031E+03 -0.45938608762E+03  0.11388183339E+04  0.89210997836E+03 0.  0.
         23    2    4    4    0    0 -0.60921667919E+03 -0.43379771181E+03 -0.18348898131E+03  0.77524406433E+03  0.89497128646E+02 0.  0.
         23    2    4    4    0    0  0.19747925489E+03  0.86690091497E+02 -0.27589710631E+03  0.36357426958E+03  0.97743583682E+02 0.  0.
          1    1    3    3  502    0  0.38181820502E+03  0.33874228435E+03 -0.19599404802E+04  0.20253143368E+04  0.00000000000E+00 0. -1.
         -2    1    3    3    0  502  0.29919219277E+02  0.83653359558E+01 -0.21558206136E+03  0.21780900741E+03  0.00000000000E+00 0.  1.
         13    1    5    5    0    0 -0.10141741079E+03 -0.11587581200E+03 -0.43020672774E+02  0.15988581333E+03  0.00000000000E+00 0.  1.
        -13    1    5    5    0    0 -0.50779926840E+03 -0.31792189981E+03 -0.14046830854E+03  0.61535825100E+03  0.00000000000E+00 0. -1.
          4    1    6    6  503    0  0.17142705795E+03  0.29647605700E+02 -0.20746752781E+03  0.27075633292E+03  0.00000000000E+00 0. -1.
         -4    1    6    6    0  503  0.26052196945E+02  0.57042485797E+02 -0.68429578502E+02  0.92817936658E+02  0.00000000000E+00 0.  1.
<mgrwt>
<rscale>  0 0.21200910E+04</rscale>
<asrwt>0</asrwt>
<pdfrwt beam="1">  1        1 0.46283464E+00 0.21200910E+04</pdfrwt>
<pdfrwt beam="2">  1       -2 0.57464081E-01 0.21200910E+04</pdfrwt>
<totfact> 0.13504666E+00</totfact>
</mgrwt>
</event>
<event>
12    5  0.5041746E-008  0.1436887E+04  0.7818608E-02  0.8927542E-01
          1   -1    0    0  501    0  0.00000000000E+00  0.00000000000E+00  0.14613971216E+04  0.14613971216E+04  0.00000000000E+00 0. -1.
         -2   -1    0    0    0  501 -0.00000000000E+00 -0.00000000000E+00 -0.35319707001E+03  0.35319707001E+03  0.00000000000E+00 0.  1.
        -24    2    1    2    0    0  0.15037191633E+03  0.27537357953E+03  0.70513086590E+03  0.77579429578E+03  0.78771376681E+02 0.  0.
        254    2    1    2    0    0 -0.15037191633E+03 -0.27537357953E+03  0.40306918571E+03  0.10387998958E+04  0.90454305239E+03 0.  0.
         23    2    4    4    0    0 -0.77331405849E+02  0.27882018318E+03  0.35977888482E+03  0.47061337080E+03  0.91188036140E+02 0.  0.
         23    2    4    4    0    0 -0.73040510480E+02 -0.55419376271E+03  0.43290300882E+02  0.56818652504E+03  0.92175019908E+02 0.  0.
          1    1    3    3  502    0  0.50217724140E+02  0.13997698437E+03  0.40795134258E+03  0.43421155429E+03  0.00000000000E+00 0. -1.
         -4    1    3    3    0  502  0.10015419219E+03  0.13539659516E+03  0.29717952333E+03  0.34158274148E+03  0.00000000000E+00 0.  1.
         13    1    5    5    0    0 -0.74799938361E+02  0.25418223455E+03  0.35853437726E+03  0.44581446681E+03  0.00000000000E+00 0. -1.
        -13    1    5    5    0    0 -0.25314674881E+01  0.24637948631E+02  0.12445075674E+01  0.24798903998E+02  0.00000000000E+00 0.  1.
          3    1    6    6  503    0 -0.83672803225E+01 -0.26410984650E+03 -0.17523184781E+02  0.26482274148E+03  0.00000000000E+00 0. -1.
         -3    1    6    6    0  503 -0.64673230158E+02 -0.29008391621E+03  0.60813485663E+02  0.30336378356E+03  0.00000000000E+00 0.  1.
<mgrwt>
<rscale>  0 0.14368872E+04</rscale>
<asrwt>0</asrwt>
<pdfrwt beam="1">  1        1 0.22483032E+00 0.14368872E+04</pdfrwt>
<pdfrwt beam="2">  1       -2 0.54338011E-01 0.14368872E+04</pdfrwt>
<totfact> 0.18925798E+01</totfact>
</mgrwt>
</event>
<event>
12    5  0.5041746E-008  0.1357895E+04  0.7818608E-02  0.8984873E-01
         -2   -1    0    0    0  501 -0.00000000000E+00  0.00000000000E+00  0.20372638844E+03  0.20372638844E+03  0.00000000000E+00 0.  1.
          1   -1    0    0  501    0  0.00000000000E+00 -0.00000000000E+00 -0.22626915925E+04  0.22626915925E+04  0.00000000000E+00 0. -1.
        -24    2    1    2    0    0 -0.54915925988E+02 -0.10289033198E+03 -0.12102057776E+04  0.12185753504E+04  0.82010249524E+02 0.  0.
        254    2    1    2    0    0  0.54915925988E+02  0.10289033198E+03 -0.84875942645E+03  0.12478426306E+04  0.90725767416E+03 0.  0.
         23    2    4    4    0    0  0.28583728991E+03 -0.30784049990E+03 -0.46521813827E+03  0.63360469431E+03  0.92510879301E+02 0.  0.
         23    2    4    4    0    0 -0.23092136392E+03  0.41073083188E+03 -0.38354128817E+03  0.61423793625E+03  0.90331777489E+02 0.  0.
          3    1    3    3  502    0 -0.58913115656E+02 -0.86554498086E+02 -0.67206888899E+03  0.68017573309E+03  0.00000000000E+00 0. -1.
         -4    1    3    3    0  502  0.39971896681E+01 -0.16335833889E+02 -0.53813688862E+03  0.53839961728E+03  0.00000000000E+00 0.  1.
         13    1    5    5    0    0  0.27157785969E+03 -0.29072714180E+03 -0.46412704574E+03  0.61130247786E+03  0.00000000000E+00 0.  1.
        -13    1    5    5    0    0  0.14259430218E+02 -0.17113358098E+02 -0.10910925374E+01  0.22302216447E+02  0.00000000000E+00 0. -1.
          4    1    6    6  503    0 -0.19329116789E+03  0.26672835111E+03 -0.28645976889E+03  0.43653715542E+03  0.00000000000E+00 0.  1.
         -4    1    6    6    0  503 -0.37630196028E+02  0.14400248077E+03 -0.97081519279E+02  0.17770078082E+03  0.00000000000E+00 0. -1.
<mgrwt>
<rscale>  0 0.13578954E+04</rscale>
<asrwt>0</asrwt>
<pdfrwt beam="1">  1        1 0.34810642E+00 0.13578954E+04</pdfrwt>
<pdfrwt beam="2">  1       -2 0.31342519E-01 0.13578954E+04</pdfrwt>
<totfact> 0.16052639E+01</totfact>
</mgrwt>
</event>
<event>
12    5  0.5041746E-008  0.2336370E+04  0.7818608E-02  0.8463718E-01
          1   -1    0    0  501    0  0.00000000000E+00  0.00000000000E+00  0.37744446729E+04  0.37744446729E+04  0.00000000000E+00 0. -1.
         -2   -1    0    0    0  501 -0.00000000000E+00 -0.00000000000E+00 -0.36155136944E+03  0.36155136944E+03  0.00000000000E+00 0.  1.
        -24    2    1    2    0    0 -0.64544545426E+03  0.26431789093E+03  0.20783443200E+03  0.73217094006E+03  0.80095895316E+02 0.  0.
        254    2    1    2    0    0  0.64544545426E+03 -0.26431789093E+03  0.32050588715E+04  0.34038251023E+04  0.90948291651E+03 0.  0.
         23    2    4    4    0    0  0.72105503706E+03  0.10483141086E+03  0.17455716763E+04  0.18936687240E+04  0.89726072858E+02 0.  0.
         23    2    4    4    0    0 -0.75609582798E+02 -0.36914930179E+03  0.14594871952E+04  0.15101563783E+04  0.92094504863E+02 0.  0.
          1    1    3    3  502    0 -0.10524016417E+03  0.73050198546E+02  0.23976112068E+02  0.13033294906E+03  0.00000000000E+00 0. -1.
         -2    1    3    3    0  502 -0.54020529009E+03  0.19126769239E+03  0.18385831993E+03  0.60183799099E+03  0.00000000000E+00 0.  1.
         13    1    5    5    0    0  0.56614183038E+03  0.10927962125E+03  0.14370738527E+04  0.15484314211E+04  0.00000000000E+00 0. -1.
        -13    1    5    5    0    0  0.15491320668E+03 -0.44482103889E+01  0.30849782356E+03  0.34523730291E+03  0.00000000000E+00 0.  1.
          3    1    6    6  503    0  0.25224844628E+01 -0.21520067369E+03  0.79805209538E+03  0.82656206048E+03  0.00000000000E+00 0. -1.
         -3    1    6    6    0  503 -0.78132067261E+02 -0.15394862810E+03  0.66143509985E+03  0.68359431781E+03  0.00000000000E+00 0.  1.
<mgrwt>
<rscale>  0 0.23363695E+04</rscale>
<asrwt>0</asrwt>
<pdfrwt beam="1">  1        1 0.58068377E+00 0.23363695E+04</pdfrwt>
<pdfrwt beam="2">  1       -2 0.55623290E-01 0.23363695E+04</pdfrwt>
<totfact> 0.36119535E-01</totfact>
</mgrwt>
</event>
<event>
12    5  0.5041746E-008  0.1875110E+04  0.7818608E-02  0.8667346E-01
          1   -1    0    0  501    0  0.00000000000E+00  0.00000000000E+00  0.80270747189E+03  0.80270747189E+03  0.00000000000E+00 0. -1.
         -2   -1    0    0    0  501 -0.00000000000E+00 -0.00000000000E+00 -0.10950552003E+04  0.10950552003E+04  0.00000000000E+00 0.  1.
        -24    2    1    2    0    0 -0.27942814907E+03 -0.67005534565E+03 -0.77716327733E+02  0.73457300932E+03  0.80643795197E+02 0.  0.
        254    2    1    2    0    0  0.27942814907E+03  0.67005534565E+03 -0.21463140066E+03  0.11631896629E+04  0.88311341112E+03 0.  0.
         23    2    4    4    0    0 -0.21825712017E+03  0.37441173845E+03  0.15667416717E+03  0.46942464367E+03  0.89400117647E+02 0.  0.
         23    2    4    4    0    0  0.49768526924E+03  0.29564360720E+03 -0.37130556783E+03  0.69376501919E+03  0.91358127424E+02 0.  0.
          1    1    3    3  502    0 -0.27840754364E+03 -0.65513588316E+03 -0.64744670956E+02  0.71477664915E+03  0.00000000000E+00 0. -1.
         -2    1    3    3    0  502 -0.10206054322E+01 -0.14919462489E+02 -0.12971656777E+02  0.19796360169E+02  0.00000000000E+00 0.  1.
         13    1    5    5    0    0 -0.92924207981E+02  0.10584292914E+03  0.84999352444E+02  0.16450691169E+03  0.00000000000E+00 0. -1.
        -13    1    5    5    0    0 -0.12533291219E+03  0.26856880930E+03  0.71674814721E+02  0.30491773198E+03  0.00000000000E+00 0.  1.
          4    1    6    6  503    0  0.12716697975E+03  0.87671262908E+02 -0.14730488264E+03  0.21343949852E+03  0.00000000000E+00 0. -1.
         -4    1    6    6    0  503  0.37051828949E+03  0.20797234429E+03 -0.22400068519E+03  0.48032552066E+03  0.00000000000E+00 0.  1.
<mgrwt>
<rscale>  0 0.18751096E+04</rscale>
<asrwt>0</asrwt>
<pdfrwt beam="1">  1        1 0.12349346E+00 0.18751096E+04</pdfrwt>
<pdfrwt beam="2">  1       -2 0.16847003E+00 0.18751096E+04</pdfrwt>
<totfact> 0.39460404E+00</totfact>
</mgrwt>
</event>
<event>
12    5  0.5041746E-008  0.1247408E+04  0.7818608E-02  0.9072344E-01
          1   -1    0    0  501    0  0.00000000000E+00  0.00000000000E+00  0.56880509576E+03  0.56880509576E+03  0.00000000000E+00 0. -1.
         -2   -1    0    0    0  501 -0.00000000000E+00 -0.00000000000E+00 -0.68390102890E+03  0.68390102890E+03  0.00000000000E+00 0.  1.
        -24    2    1    2    0    0 -0.23578108449E+03 -0.74890698492E+01  0.14041395642E+03  0.28574738761E+03  0.79288614569E+02 0.  0.
        254    2    1    2    0    0  0.23578108449E+03  0.74890698492E+01 -0.25550988957E+03  0.96695873705E+03  0.90226109830E+03 0.  0.
         23    2    4    4    0    0  0.34113354094E+03 -0.86058916272E+02 -0.53157583486E+03  0.64340839741E+03  0.87311327013E+02 0.  0.
         23    2    4    4    0    0 -0.10535245645E+03  0.93547986121E+02  0.27606594529E+03  0.32355033964E+03  0.92854996328E+02 0.  0.
          1    1    3    3  502    0 -0.20826871880E+03  0.17766778443E+02  0.13276631867E+03  0.24762555002E+03  0.00000000000E+00 0. -1.
         -2    1    3    3    0  502 -0.27512365687E+02 -0.25255848292E+02  0.76476377510E+01  0.38121837597E+02  0.00000000000E+00 0.  1.
         13    1    5    5    0    0  0.27977393284E+03 -0.90972006077E+02 -0.48055931562E+03  0.56345950628E+03  0.00000000000E+00 0.  1.
        -13    1    5    5    0    0  0.61359608095E+02  0.49130898046E+01 -0.51016519234E+02  0.79948891123E+02  0.00000000000E+00 0. -1.
          1    1    6    6  503    0 -0.20941889474E+02  0.14688739256E+01  0.50589112270E+00  0.20999434544E+02  0.00000000000E+00 0. -1.
         -1    1    6    6    0  503 -0.84410566977E+02  0.92079112196E+02  0.27556005417E+03  0.30255090509E+03  0.00000000000E+00 0.  1.
<mgrwt>
<rscale>  0 0.12474075E+04</rscale>
<asrwt>0</asrwt>
<pdfrwt beam="1">  1        1 0.87508476E-01 0.12474075E+04</pdfrwt>
<pdfrwt beam="2">  1       -2 0.10521554E+00 0.12474075E+04</pdfrwt>
<totfact> 0.23345053E+01</totfact>
</mgrwt>
</event>
<event>
12    5  0.5041746E-008  0.1057734E+04  0.7818608E-02  0.9247395E-01
         -2   -1    0    0    0  501 -0.00000000000E+00  0.00000000000E+00  0.17225105158E+03  0.17225105158E+03  0.00000000000E+00 0.  1.
          1   -1    0    0  501    0  0.00000000000E+00 -0.00000000000E+00 -0.16237955138E+04  0.16237955138E+04  0.00000000000E+00 0. -1.
        -24    2    1    2    0    0  0.57626547408E+02 -0.11730359188E+03 -0.20543601822E+03  0.25628479675E+03  0.79981171725E+02 0.  0.
        254    2    1    2    0    0 -0.57626547408E+02  0.11730359188E+03 -0.12461084440E+04  0.15397617686E+04  0.89498552966E+03 0.  0.
         23    2    4    4    0    0  0.30000515841E+03  0.16623819244E+03 -0.15580224218E+03  0.38790753309E+03  0.92518559551E+02 0.  0.
         23    2    4    4    0    0 -0.35763170582E+03 -0.48934600562E+02 -0.10903062018E+04  0.11518542356E+04  0.87781171389E+02 0.  0.
          1    1    3    3  502    0  0.27158000071E+02 -0.10028688087E+03 -0.19308669873E+03  0.21926579457E+03  0.00000000000E+00 0. -1.
         -2    1    3    3    0  502  0.30468547337E+02 -0.17016711013E+02 -0.12349319484E+02  0.37019002178E+02  0.00000000000E+00 0.  1.
         13    1    5    5    0    0  0.11897041017E+03  0.22497200350E+02 -0.77898063114E+02  0.14397288202E+03  0.00000000000E+00 0. -1.
        -13    1    5    5    0    0  0.18103474824E+03  0.14374099209E+03 -0.77904179063E+02  0.24393465107E+03  0.00000000000E+00 0.  1.
          1    1    6    6  503    0 -0.11937466210E+03  0.25083673007E+02 -0.36256501843E+03  0.38253482611E+03  0.00000000000E+00 0. -1.
         -1    1    6    6    0  503 -0.23825704372E+03 -0.74018273569E+02 -0.72774118341E+03  0.76931940944E+03  0.00000000000E+00 0.  1.
<mgrwt>
<rscale>  0 0.10577343E+04</rscale>
<asrwt>0</asrwt>
<pdfrwt beam="1">  1        1 0.24981469E+00 0.10577343E+04</pdfrwt>
<pdfrwt beam="2">  1       -2 0.26500163E-01 0.10577343E+04</pdfrwt>
<totfact> 0.60820445E+01</totfact>
</mgrwt>
</event>
<event>
12    5  0.5041746E-008  0.1633142E+04  0.7818608E-02  0.8800442E-01
          1   -1    0    0  501    0  0.00000000000E+00  0.00000000000E+00  0.19515603002E+04  0.19515603002E+04  0.00000000000E+00 0. -1.
         -2   -1    0    0    0  501 -0.00000000000E+00 -0.00000000000E+00 -0.34166929867E+03  0.34166929867E+03  0.00000000000E+00 0.  1.
        -24    2    1    2    0    0 -0.20509465077E+03 -0.45600425943E+03  0.21418931473E+03  0.54972203439E+03  0.79457864013E+02 0.  0.
        254    2    1    2    0    0  0.20509465077E+03  0.45600425943E+03  0.13957016868E+04  0.17435075645E+04  0.91751388462E+03 0.  0.
         23    2    4    4    0    0 -0.26738513188E+03  0.33435602250E+03  0.27245289509E+03  0.51555443281E+03  0.90978209564E+02 0.  0.
         23    2    4    4    0    0  0.47247978265E+03  0.12164823693E+03  0.11232487917E+04  0.12279531317E+04  0.90253016303E+02 0.  0.
          3    1    3    3  502    0 -0.14017391291E+03 -0.21501493585E+03  0.11136877868E+03  0.27979126749E+03  0.00000000000E+00 0. -1.
         -4    1    3    3    0  502 -0.64920737860E+02 -0.24098932358E+03  0.10282053605E+03  0.26993076690E+03  0.00000000000E+00 0.  1.
         13    1    5    5    0    0 -0.29820953819E+02  0.32402398680E+01  0.15202103476E+02  0.33628743527E+02  0.00000000000E+00 0.  1.
        -13    1    5    5    0    0 -0.23756417806E+03  0.33111578263E+03  0.25725079161E+03  0.48192568928E+03  0.00000000000E+00 0. -1.
          4    1    6    6  503    0  0.44704095887E+03  0.12547524681E+03  0.10969169953E+04  0.11911408612E+04  0.00000000000E+00 0. -1.
         -4    1    6    6    0  503  0.25438823775E+02 -0.38270098796E+01  0.26331796351E+02  0.36812270492E+02  0.00000000000E+00 0.  1.
<mgrwt>
<rscale>  0 0.16331421E+04</rscale>
<asrwt>0</asrwt>
<pdfrwt beam="1">  1        1 0.30024004E+00 0.16331421E+04</pdfrwt>
<pdfrwt beam="2">  1       -2 0.52564509E-01 0.16331421E+04</pdfrwt>
<totfact> 0.92243264E+00</totfact>
</mgrwt>
</event>
<event>
12    5  0.5041746E-008  0.1138230E+04  0.7818608E-02  0.9168711E-01
          1   -1    0    0  501    0  0.00000000000E+00  0.00000000000E+00  0.24320100836E+04  0.24320100836E+04  0.00000000000E+00 0. -1.
         -2   -1    0    0    0  501 -0.00000000000E+00 -0.00000000000E+00 -0.13317870450E+03  0.13317870450E+03  0.00000000000E+00 0.  1.
        -24    2    1    2    0    0  0.39308180540E+02  0.90931733411E+02  0.86498029024E+03  0.87375526431E+03  0.73781069409E+02 0.  0.
        254    2    1    2    0    0 -0.39308180540E+02 -0.90931733411E+02  0.14338510889E+04  0.16914335238E+04  0.89174251172E+03 0.  0.
         23    2    4    4    0    0  0.21843028195E+03 -0.23395015713E+03  0.13779549155E+03  0.35918702460E+03  0.87081898542E+02 0.  0.
         23    2    4    4    0    0 -0.25773846249E+03  0.14301842372E+03  0.12960555973E+04  0.13322464992E+04  0.90759235068E+02 0.  0.
          1    1    3    3  502    0 -0.13536538715E+02  0.52955410763E+02  0.50410810110E+03  0.50706261054E+03  0.00000000000E+00 0. -1.
         -2    1    3    3    0  502  0.52844719255E+02  0.37976322648E+02  0.36087218915E+03  0.36669265378E+03  0.00000000000E+00 0.  1.
         13    1    5    5    0    0  0.39650771542E+02 -0.82477261976E+02  0.70121505414E+02  0.11528966974E+03  0.00000000000E+00 0.  1.
        -13    1    5    5    0    0  0.17877951040E+03 -0.15147289515E+03  0.67673986141E+02  0.24389735486E+03  0.00000000000E+00 0. -1.
          1    1    6    6  503    0 -0.23764440380E+03  0.15406516977E+03  0.11476182659E+04  0.11820484861E+04  0.00000000000E+00 0. -1.
         -1    1    6    6    0  503 -0.20094058690E+02 -0.11046746051E+02  0.14843733141E+03  0.15019801313E+03  0.00000000000E+00 0.  1.
<mgrwt>
<rscale>  0 0.11382301E+04</rscale>
<asrwt>0</asrwt>
<pdfrwt beam="1">  1        1 0.37415536E+00 0.11382301E+04</pdfrwt>
<pdfrwt beam="2">  1       -2 0.20489033E-01 0.11382301E+04</pdfrwt>
<totfact> 0.27176900E+01</totfact>
</mgrwt>
</event>
<event>
12    5  0.5041746E-008  0.1506945E+04  0.7818608E-02  0.8879848E-01
          1   -1    0    0  501    0  0.00000000000E+00  0.00000000000E+00  0.16830491893E+03  0.16830491893E+03  0.00000000000E+00 0. -1.
         -2   -1    0    0    0  501 -0.00000000000E+00 -0.00000000000E+00 -0.33731667510E+04  0.33731667510E+04  0.00000000000E+00 0.  1.
        -24    2    1    2    0    0 -0.18822964279E+03 -0.30472247474E+03 -0.17823564333E+04  0.18204624741E+04  0.94884029385E+02 0.  0.
        254    2    1    2    0    0  0.18822964279E+03  0.30472247474E+03 -0.14225053987E+04  0.17210091958E+04  0.90003603137E+03 0.  0.
         23    2    4    4    0    0  0.88669173938E+02  0.97588341637E+01 -0.13886437066E+04  0.13942947588E+04  0.88142346242E+02 0.  0.
         23    2    4    4    0    0  0.99560468854E+02  0.29496364057E+03 -0.33861692100E+02  0.32671443706E+03  0.93165835854E+02 0.  0.
          3    1    3    3  502    0 -0.73154373807E+02 -0.11379082286E+03 -0.46121286795E+03  0.48064251095E+03  0.00000000000E+00 0. -1.
         -4    1    3    3    0  502 -0.11507526899E+03 -0.19093165188E+03 -0.13211435654E+04  0.13398199631E+04  0.00000000000E+00 0.  1.
         13    1    5    5    0    0  0.21783392503E+02 -0.36636182026E+01 -0.60605414147E+02  0.64505461096E+02  0.00000000000E+00 0. -1.
        -13    1    5    5    0    0  0.66885781436E+02  0.13422452366E+02 -0.13280382925E+04  0.13297892977E+04  0.00000000000E+00 0.  1.
          2    1    6    6  503    0  0.32086007602E+02  0.79588981369E+02  0.32029621996E+02  0.91595930719E+02  0.00000000000E+00 0.  1.
         -2    1    6    6    0  503  0.67474461252E+02  0.21537465921E+03 -0.65891314096E+02  0.23511850634E+03  0.00000000000E+00 0. -1.
<mgrwt>
<rscale>  0 0.15069447E+04</rscale>
<asrwt>0</asrwt>
<pdfrwt beam="1">  1        1 0.25893067E-01 0.15069447E+04</pdfrwt>
<pdfrwt beam="2">  1       -2 0.51894869E+00 0.15069447E+04</pdfrwt>
<totfact> 0.19894529E-01</totfact>
</mgrwt>
</event>
<event>
12    5  0.5041746E-008  0.2056878E+04  0.7818608E-02  0.8580481E-01
          1   -1    0    0  501    0  0.00000000000E+00  0.00000000000E+00  0.95245527800E+03  0.95245527800E+03  0.00000000000E+00 0. -1.
         -2   -1    0    0    0  501 -0.00000000000E+00 -0.00000000000E+00 -0.11104842670E+04  0.11104842670E+04  0.00000000000E+00 0.  1.
        -24    2    1    2    0    0  0.75138052614E+03  0.29638836378E+03  0.92614543664E+02  0.81688480019E+03  0.79401296160E+02 0.  0.
        254    2    1    2    0    0 -0.75138052614E+03 -0.29638836378E+03 -0.25064353268E+03  0.12460547448E+04  0.91510190109E+03 0.  0.
         23    2    4    4    0    0 -0.52303386285E+03  0.22664042444E+03  0.76845578755E+02  0.58216334717E+03  0.89881122268E+02 0.  0.
         23    2    4    4    0    0 -0.22834666330E+03 -0.52302878822E+03 -0.32748911143E+03  0.66389139765E+03  0.88325295487E+02 0.  0.
          3    1    3    3  502    0  0.52988204921E+03  0.16956562969E+03  0.66717995524E+02  0.56033809417E+03  0.00000000000E+00 0. -1.
         -4    1    3    3    0  502  0.22149847693E+03  0.12682273409E+03  0.25896548139E+02  0.25654670602E+03  0.00000000000E+00 0.  1.
         13    1    5    5    0    0 -0.35005007560E+03  0.13207941850E+03  0.89229643975E+02  0.38463223680E+03  0.00000000000E+00 0.  1.
        -13    1    5    5    0    0 -0.17298378724E+03  0.94561005936E+02 -0.12384065220E+02  0.19753111037E+03  0.00000000000E+00 0. -1.
          4    1    6    6  503    0 -0.31688282240E+01 -0.25163334012E+02  0.26203253203E+01  0.25497077396E+02  0.00000000000E+00 0. -1.
         -4    1    6    6    0  503 -0.22517783507E+03 -0.49786545421E+03 -0.33010943675E+03  0.63839432026E+03  0.00000000000E+00 0.  1.
<mgrwt>
<rscale>  0 0.20568778E+04</rscale>
<asrwt>0</asrwt>
<pdfrwt beam="1">  1        1 0.14653158E+00 0.20568778E+04</pdfrwt>
<pdfrwt beam="2">  1       -2 0.17084373E+00 0.20568778E+04</pdfrwt>
<totfact> 0.28060196E+00</totfact>
</mgrwt>
</event>
<event>
12    5  0.5041746E-008  0.1599564E+04  0.7818608E-02  0.8820816E-01
          1   -1    0    0  501    0  0.00000000000E+00  0.00000000000E+00  0.25774007562E+04  0.25774007562E+04  0.00000000000E+00 0. -1.
         -2   -1    0    0    0  501 -0.00000000000E+00 -0.00000000000E+00 -0.24817694353E+03  0.24817694353E+03  0.00000000000E+00 0.  1.
        -24    2    1    2    0    0  0.32067481400E+03 -0.42014527400E+03  0.99643044547E+03  0.11307803628E+04  0.80225984331E+02 0.  0.
        254    2    1    2    0    0 -0.32067481400E+03  0.42014527400E+03  0.13327933672E+04  0.16947973369E+04  0.90368438413E+03 0.  0.
         23    2    4    4    0    0 -0.22427889106E+03 -0.79734293826E+02 -0.10660181260E+02  0.25518012448E+03  0.91349208416E+02 0.  0.
         23    2    4    4    0    0 -0.96395922941E+02  0.49987956782E+03  0.13434535484E+04  0.14396172125E+04  0.91970241508E+02 0.  0.
          3    1    3    3  502    0  0.51679656935E+02 -0.36590360595E+02  0.16025610457E+03  0.17231268230E+03  0.00000000000E+00 0. -1.
         -4    1    3    3    0  502  0.26899515706E+03 -0.38355491340E+03  0.83617434090E+03  0.95846768047E+03  0.00000000000E+00 0.  1.
         13    1    5    5    0    0 -0.29094012974E+02  0.17881348786E+02  0.10991397468E+02  0.35874991897E+02  0.00000000000E+00 0. -1.
        -13    1    5    5    0    0 -0.19518487808E+03 -0.97615642612E+02 -0.21651578728E+02  0.21930513258E+03  0.00000000000E+00 0.  1.
          4    1    6    6  503    0 -0.40195782529E+02  0.32530901595E+03  0.75068964103E+03  0.81913160966E+03  0.00000000000E+00 0. -1.
         -4    1    6    6    0  503 -0.56200140411E+02  0.17457055188E+03  0.59276390740E+03  0.62048560280E+03  0.00000000000E+00 0.  1.
<mgrwt>
<rscale>  0 0.15995642E+04</rscale>
<asrwt>0</asrwt>
<pdfrwt beam="1">  1        1 0.39652318E+00 0.15995642E+04</pdfrwt>
<pdfrwt beam="2">  1       -2 0.38181070E-01 0.15995642E+04</pdfrwt>
<totfact> 0.65462241E+00</totfact>
</mgrwt>
</event>
<event>
12    5  0.5041746E-008  0.2286447E+04  0.7818608E-02  0.8483284E-01
          1   -1    0    0  501    0  0.00000000000E+00  0.00000000000E+00  0.16137645371E+04  0.16137645371E+04  0.00000000000E+00 0. -1.
         -2   -1    0    0    0  501 -0.00000000000E+00 -0.00000000000E+00 -0.80988291614E+03  0.80988291614E+03  0.00000000000E+00 0.  1.
        -24    2    1    2    0    0  0.78319446055E+03  0.10157712518E+03 -0.24994521254E+03  0.83221790931E+03  0.80016022808E+02 0.  0.
        254    2    1    2    0    0 -0.78319446055E+03 -0.10157712518E+03  0.10538268335E+04  0.15914295440E+04  0.89352421508E+03 0.  0.
         23    2    4    4    0    0 -0.57511009749E+03  0.13342861655E+03  0.11084460494E+04  0.12591736826E+04  0.91164130277E+02 0.  0.
         23    2    4    4    0    0 -0.20808436306E+03 -0.23500574173E+03 -0.54619215844E+02  0.33225586135E+03  0.94254431556E+02 0.  0.
          1    1    3    3  502    0  0.23880802295E+03  0.60339610053E+02 -0.53915578100E+02  0.25214485902E+03  0.00000000000E+00 0. -1.
         -2    1    3    3    0  502  0.54438643760E+03  0.41237515130E+02 -0.19602963444E+03  0.58007305029E+03  0.00000000000E+00 0.  1.
         13    1    5    5    0    0 -0.27119587143E+03  0.20314898001E+02  0.54458396148E+03  0.60871305791E+03  0.00000000000E+00 0.  1.
        -13    1    5    5    0    0 -0.30391422606E+03  0.11311371855E+03  0.56386208790E+03  0.65046062471E+03  0.00000000000E+00 0. -1.
          1    1    6    6  503    0 -0.20901006076E+03 -0.23995336490E+03 -0.61119481512E+02  0.32403458742E+03  0.00000000000E+00 0. -1.
         -1    1    6    6    0  503  0.92569770062E+00  0.49476231701E+01  0.65002656688E+01  0.82212739299E+01  0.00000000000E+00 0.  1.
<mgrwt>
<rscale>  0 0.22864473E+04</rscale>
<asrwt>0</asrwt>
<pdfrwt beam="1">  1        1 0.24827147E+00 0.22864473E+04</pdfrwt>
<pdfrwt beam="2">  1       -2 0.12459737E+00 0.22864473E+04</pdfrwt>
<totfact> 0.20973150E+00</totfact>
</mgrwt>
</event>
<event>
12    5  0.5041746E-008  0.1203579E+04  0.7818608E-02  0.9109730E-01
         -2   -1    0    0    0  501 -0.00000000000E+00  0.00000000000E+00  0.53666953591E+03  0.53666953591E+03  0.00000000000E+00 0.  1.
          1   -1    0    0  501    0  0.00000000000E+00 -0.00000000000E+00 -0.67481065087E+03  0.67481065087E+03  0.00000000000E+00 0. -1.
        -24    2    1    2    0    0  0.25305714556E+03 -0.41917567543E+02  0.11392827334E+02  0.27067658895E+03  0.85679740309E+02 0.  0.
        254    2    1    2    0    0 -0.25305714556E+03  0.41917567543E+02 -0.14953394229E+03  0.94080359783E+03  0.89272392619E+03 0.  0.
         23    2    4    4    0    0  0.66633957136E+02  0.84643375646E+02  0.32815028278E+03  0.35733720125E+03  0.91666144399E+02 0.  0.
         23    2    4    4    0    0 -0.31969110270E+03 -0.42725808103E+02 -0.47768422507E+03  0.58346639658E+03  0.90680324390E+02 0.  0.
          1    1    3    3  502    0  0.10900013042E+02  0.99228283427E+01 -0.15723780106E+02  0.21552495620E+02  0.00000000000E+00 0. -1.
         -2    1    3    3    0  502  0.24215713252E+03 -0.51840395886E+02  0.27116607440E+02  0.24912409333E+03  0.00000000000E+00 0.  1.
         13    1    5    5    0    0  0.60587122465E+02  0.98660864668E+02  0.31940966973E+03  0.33974593852E+03  0.00000000000E+00 0. -1.
        -13    1    5    5    0    0  0.60468346706E+01 -0.14017489023E+02  0.87406130477E+01  0.17591262732E+02  0.00000000000E+00 0.  1.
          4    1    6    6  503    0 -0.31445414854E+03 -0.56532907490E+02 -0.44732523710E+03  0.54970651161E+03  0.00000000000E+00 0. -1.
         -4    1    6    6    0  503 -0.52369541617E+01  0.13807099387E+02 -0.30358987967E+02  0.33759884964E+02  0.00000000000E+00 0.  1.
<mgrwt>
<rscale>  0 0.12035785E+04</rscale>
<asrwt>0</asrwt>
<pdfrwt beam="1">  1        1 0.10381702E+00 0.12035785E+04</pdfrwt>
<pdfrwt beam="2">  1       -2 0.82564544E-01 0.12035785E+04</pdfrwt>
<totfact> 0.32124298E+01</totfact>
</mgrwt>
</event>
<event>
12    5  0.5041746E-008  0.1433568E+04  0.7818608E-02  0.8929872E-01
          1   -1    0    0  501    0  0.00000000000E+00  0.00000000000E+00  0.11095560191E+04  0.11095560191E+04  0.00000000000E+00 0. -1.
         -2   -1    0    0    0  501 -0.00000000000E+00 -0.00000000000E+00 -0.46304950644E+03  0.46304950644E+03  0.00000000000E+00 0.  1.
        -24    2    1    2    0    0  0.32586525955E+03 -0.35230810973E+03  0.16745278215E+03  0.51461023660E+03  0.80461728777E+02 0.  0.
        254    2    1    2    0    0 -0.32586525955E+03  0.35230810973E+03  0.47905373055E+03  0.10579952890E+04  0.81212830464E+03 0.  0.
         23    2    4    4    0    0  0.14833584302E+03  0.10337169188E+03 -0.13138815308E+03  0.24090505854E+03  0.89906459470E+02 0.  0.
         23    2    4    4    0    0 -0.47420110257E+03  0.24893641785E+03  0.61044188363E+03  0.81709023044E+03  0.90338948309E+02 0.  0.
          1    1    3    3  502    0  0.31383499615E+02 -0.48440208687E+02 -0.44213989127E+01  0.57887188860E+02  0.00000000000E+00 0. -1.
         -2    1    3    3    0  502  0.29448175994E+03 -0.30386790105E+03  0.17187418107E+03  0.45672304774E+03  0.00000000000E+00 0.  1.
         13    1    5    5    0    0  0.30393426786E+02 -0.44992777757E+01  0.45779514201E+01  0.31063829955E+02  0.00000000000E+00 0. -1.
        -13    1    5    5    0    0  0.11794241623E+03  0.10787096966E+03 -0.13596610450E+03  0.20984122859E+03  0.00000000000E+00 0.  1.
          2    1    6    6  503    0 -0.47398198257E+03  0.24818616724E+03  0.58934610450E+03  0.79597997732E+03  0.00000000000E+00 0.  1.
         -2    1    6    6    0  503 -0.21912000034E+00  0.75025060774E+00  0.21095779132E+02  0.21110253118E+02  0.00000000000E+00 0. -1.
<mgrwt>
<rscale>  0 0.14335681E+04</rscale>
<asrwt>0</asrwt>
<pdfrwt beam="1">  1        1 0.17070093E+00 0.14335681E+04</pdfrwt>
<pdfrwt beam="2">  1       -2 0.71238386E-01 0.14335681E+04</pdfrwt>
<totfact> 0.19024147E+01</totfact>
</mgrwt>
</event>
<event>
12    5  0.5041746E-008  0.1321258E+04  0.7818608E-02  0.9012876E-01
         -2   -1    0    0    0  501 -0.00000000000E+00  0.00000000000E+00  0.19820555771E+03  0.19820555771E+03  0.00000000000E+00 0.  1.
          1   -1    0    0  501    0  0.00000000000E+00 -0.00000000000E+00 -0.22019079763E+04  0.22019079763E+04  0.00000000000E+00 0. -1.
        -24    2    1    2    0    0 -0.28252563771E+03 -0.30569597948E+00 -0.89668121636E+03  0.94355798736E+03  0.80272301029E+02 0.  0.
        254    2    1    2    0    0  0.28252563771E+03  0.30569597948E+00 -0.11070212022E+04  0.14565555466E+04  0.90345851530E+03 0.  0.
         23    2    4    4    0    0  0.36947756560E+03 -0.24236329572E+03 -0.10937570889E+04  0.11830437509E+04  0.89634304617E+02 0.  0.
         23    2    4    4    0    0 -0.86951927884E+02  0.24266899170E+03 -0.13264113311E+02  0.27351179568E+03  0.90464846117E+02 0.  0.
          1    1    3    3  502    0 -0.16233161143E+03  0.36385250062E+02 -0.55998899567E+03  0.58417729651E+03  0.00000000000E+00 0. -1.
         -2    1    3    3    0  502 -0.12019402628E+03 -0.36690946042E+02 -0.33669222069E+03  0.35938069084E+03  0.00000000000E+00 0.  1.
         13    1    5    5    0    0  0.34434035226E+03 -0.19137632959E+03 -0.96307311037E+03  0.10405311113E+04  0.00000000000E+00 0.  1.
        -13    1    5    5    0    0  0.25137213331E+02 -0.50986966122E+02 -0.13068397851E+03  0.14251263961E+03  0.00000000000E+00 0. -1.
          4    1    6    6  503    0 -0.72925312578E+02  0.16635977583E+03 -0.48933948444E+02  0.18811753650E+03  0.00000000000E+00 0. -1.
         -4    1    6    6    0  503 -0.14026615306E+02  0.76309215863E+02  0.35669835133E+02  0.85394259181E+02  0.00000000000E+00 0.  1.
<mgrwt>
<rscale>  0 0.13212576E+04</rscale>
<asrwt>0</asrwt>
<pdfrwt beam="1">  1        1 0.33875507E+00 0.13212576E+04</pdfrwt>
<pdfrwt beam="2">  1       -2 0.30493163E-01 0.13212576E+04</pdfrwt>
<totfact> 0.18647706E+01</totfact>
</mgrwt>
</event>
<event>
12    5  0.5041746E-008  0.1856237E+04  0.7818608E-02  0.8676952E-01
         -2   -1    0    0    0  501 -0.00000000000E+00  0.00000000000E+00  0.11365915901E+04  0.11365915901E+04  0.00000000000E+00 0.  1.
          1   -1    0    0  501    0  0.00000000000E+00 -0.00000000000E+00 -0.75788325056E+03  0.75788325056E+03  0.00000000000E+00 0. -1.
        -24    2    1    2    0    0 -0.32582424770E+03 -0.36456436488E+03 -0.38149099977E+03  0.62535299073E+03  0.80388827456E+02 0.  0.
        254    2    1    2    0    0  0.32582424770E+03  0.36456436488E+03  0.76019933926E+03  0.12691218499E+04  0.89089764728E+03 0.  0.
         23    2    4    4    0    0  0.10116388501E+03  0.57475473249E+03  0.74095449799E+03  0.94763137457E+03  0.91730691847E+02 0.  0.
         23    2    4    4    0    0  0.22466036269E+03 -0.21019036761E+03  0.19244841269E+02  0.32149047531E+03  0.91287965261E+02 0.  0.
          3    1    3    3  502    0 -0.20574260024E+03 -0.17411695827E+03 -0.18971805145E+03  0.32960532726E+03  0.00000000000E+00 0. -1.
         -4    1    3    3    0  502 -0.12008164746E+03 -0.19044740661E+03 -0.19177294832E+03  0.29574766347E+03  0.00000000000E+00 0.  1.
         13    1    5    5    0    0  0.10520196841E+03  0.42928365831E+03  0.59824963747E+03  0.74381082420E+03  0.00000000000E+00 0.  1.
        -13    1    5    5    0    0 -0.40380834015E+01  0.14547107418E+03  0.14270486052E+03  0.20382055038E+03  0.00000000000E+00 0. -1.
          1    1    6    6  503    0  0.76363635900E+01 -0.37114226202E+01  0.20224310916E+02  0.21934253094E+02  0.00000000000E+00 0. -1.
         -1    1    6    6    0  503  0.21702399910E+03 -0.20647894499E+03 -0.97946964695E+00  0.29955622222E+03  0.00000000000E+00 0.  1.
<mgrwt>
<rscale>  0 0.18562368E+04</rscale>
<asrwt>0</asrwt>
<pdfrwt beam="1">  1        1 0.11659742E+00 0.18562368E+04</pdfrwt>
<pdfrwt beam="2">  1       -2 0.17486025E+00 0.18562368E+04</pdfrwt>
<totfact> 0.39009302E+00</totfact>
</mgrwt>
</event>
<event>
12    5  0.5041746E-008  0.2157996E+04  0.7818608E-02  0.8536117E-01
         -2   -1    0    0    0  501 -0.00000000000E+00  0.00000000000E+00  0.41102371386E+03  0.41102371386E+03  0.00000000000E+00 0.  1.
          1   -1    0    0  501    0  0.00000000000E+00 -0.00000000000E+00 -0.28325285036E+04  0.28325285036E+04  0.00000000000E+00 0. -1.
        -24    2    1    2    0    0  0.51510089163E+02 -0.86092438406E+03 -0.65248010743E+03  0.10844635052E+04  0.80540170847E+02 0.  0.
        254    2    1    2    0    0 -0.51510089163E+02  0.86092438406E+03 -0.17690246823E+04  0.21590887123E+04  0.88790295446E+03 0.  0.
         23    2    4    4    0    0  0.34397314690E+03  0.92492612368E+02 -0.48140350966E+03  0.60574528200E+03  0.91135055968E+02 0.  0.
         23    2    4    4    0    0 -0.39548323606E+03  0.76843177169E+03 -0.12876211727E+04  0.15533434303E+04  0.89516201854E+02 0.  0.
          1    1    3    3  502    0  0.43572886980E+02 -0.42994089648E+03 -0.28143472684E+03  0.51570657977E+03  0.00000000000E+00 0. -1.
         -2    1    3    3    0  502  0.79372021827E+01 -0.43098348758E+03 -0.37104538059E+03  0.56875692541E+03  0.00000000000E+00 0.  1.
         13    1    5    5    0    0  0.14993203016E+03  0.51685186511E+02 -0.14306822081E+03  0.21358719058E+03  0.00000000000E+00 0. -1.
        -13    1    5    5    0    0  0.19404111673E+03  0.40807425857E+02 -0.33833528884E+03  0.39215809142E+03  0.00000000000E+00 0.  1.
          2    1    6    6  503    0 -0.95681131656E+02  0.19474307307E+03 -0.39576167644E+03  0.45133917180E+03  0.00000000000E+00 0. -1.
         -2    1    6    6    0  503 -0.29980210441E+03  0.57368869862E+03 -0.89185949624E+03  0.11020042585E+04  0.00000000000E+00 0.  1.
<mgrwt>
<rscale>  0 0.21579957E+04</rscale>
<asrwt>0</asrwt>
<pdfrwt beam="1">  1        1 0.43577363E+00 0.21579957E+04</pdfrwt>
<pdfrwt beam="2">  1       -2 0.63234415E-01 0.21579957E+04</pdfrwt>
<totfact> 0.14722001E+00</totfact>
</mgrwt>
</event>
<event>
12    5  0.5041746E-008  0.1398889E+04  0.7818608E-02  0.8954623E-01
         -2   -1    0    0    0  501 -0.00000000000E+00  0.00000000000E+00  0.49186918148E+03  0.49186918148E+03  0.00000000000E+00 0.  1.
          1   -1    0    0  501    0  0.00000000000E+00 -0.00000000000E+00 -0.99461929840E+03  0.99461929840E+03  0.00000000000E+00 0. -1.
        -24    2    1    2    0    0 -0.10567250804E+03 -0.37515697551E+03 -0.36001658300E+02  0.39942898628E+03  0.79611308576E+02 0.  0.
        254    2    1    2    0    0  0.10567250804E+03  0.37515697551E+03 -0.46674845862E+03  0.10870594936E+04  0.90107423876E+03 0.  0.
         23    2    4    4    0    0 -0.26343298017E+03 -0.14542569461E+03 -0.26402160942E+03  0.41128529939E+03  0.94353693938E+02 0.  0.
         23    2    4    4    0    0  0.36910548821E+03  0.52058267012E+03 -0.20272684920E+03  0.67577419420E+03  0.91254634452E+02 0.  0.
          3    1    3    3  502    0 -0.22248295839E+02 -0.28130395005E+02 -0.22341269591E+02  0.42254444947E+02  0.00000000000E+00 0. -1.
         -2    1    3    3    0  502 -0.83424212205E+02 -0.34702658050E+03 -0.13660388708E+02  0.35717454133E+03  0.00000000000E+00 0.  1.
         13    1    5    5    0    0 -0.24599802259E+03 -0.15824694273E+03 -0.23574008358E+03  0.37567340737E+03  0.00000000000E+00 0.  1.
        -13    1    5    5    0    0 -0.17434957581E+02  0.12821248120E+02 -0.28281525841E+02  0.35611892017E+02  0.00000000000E+00 0. -1.
          1    1    6    6  503    0  0.27438738893E+03  0.33829405734E+03 -0.10385674858E+03  0.44779184077E+03  0.00000000000E+00 0. -1.
         -1    1    6    6    0  503  0.94718099282E+02  0.18228861278E+03 -0.98870100616E+02  0.22798235343E+03  0.00000000000E+00 0.  1.
<mgrwt>
<rscale>  0 0.13988890E+04</rscale>
<asrwt>0</asrwt>
<pdfrwt beam="1">  1        1 0.15301835E+00 0.13988890E+04</pdfrwt>
<pdfrwt beam="2">  1       -2 0.75672183E-01 0.13988890E+04</pdfrwt>
<totfact> 0.20448281E+01</totfact>
</mgrwt>
</event>
<event>
12    5  0.5041746E-008  0.1755333E+04  0.7818608E-02  0.8730420E-01
         -2   -1    0    0    0  501 -0.00000000000E+00  0.00000000000E+00  0.33418405801E+03  0.33418405801E+03  0.00000000000E+00 0.  1.
          1   -1    0    0  501    0  0.00000000000E+00 -0.00000000000E+00 -0.23050137103E+04  0.23050137103E+04  0.00000000000E+00 0. -1.
        -24    2    1    2    0    0 -0.58440631400E+03  0.35754070831E+02 -0.11208585609E+04  0.12669842474E+04  0.78205346885E+02 0.  0.
        254    2    1    2    0    0  0.58440631400E+03 -0.35754070831E+02 -0.84997109143E+03  0.13722135209E+04  0.90427318731E+03 0.  0.
         23    2    4    4    0    0  0.69992633824E+03 -0.28645879465E+03 -0.48037199158E+03  0.90067514392E+03  0.92211412464E+02 0.  0.
         23    2    4    4    0    0 -0.11552002424E+03  0.25070472382E+03 -0.36959909986E+03  0.47153837699E+03  0.97709834799E+02 0.  0.
          3    1    3    3  502    0 -0.37857751532E+03  0.63976160467E+01 -0.79307089698E+03  0.87881927165E+03  0.00000000000E+00 0. -1.
         -4    1    3    3    0  502 -0.20582879868E+03  0.29356454785E+02 -0.32778766392E+03  0.38816497578E+03  0.00000000000E+00 0.  1.
         13    1    5    5    0    0  0.65834090884E+03 -0.26398483733E+03 -0.42116312121E+03  0.82491158390E+03  0.00000000000E+00 0. -1.
        -13    1    5    5    0    0  0.41585429405E+02 -0.22473957322E+02 -0.59208870372E+02  0.75763560022E+02  0.00000000000E+00 0.  1.
          2    1    6    6  503    0 -0.10761216571E+03  0.25881922096E+03 -0.34545078993E+03  0.44486404171E+03  0.00000000000E+00 0. -1.
         -2    1    6    6    0  503 -0.79078585329E+01 -0.81144971374E+01 -0.24148309929E+02  0.26674335283E+02  0.00000000000E+00 0.  1.
<mgrwt>
<rscale>  0 0.17553334E+04</rscale>
<asrwt>0</asrwt>
<pdfrwt beam="1">  1        1 0.35461749E+00 0.17553334E+04</pdfrwt>
<pdfrwt beam="2">  1       -2 0.51412933E-01 0.17553334E+04</pdfrwt>
<totfact> 0.54937624E+00</totfact>
</mgrwt>
</event>
<event>
12    5  0.5041746E-008  0.2387436E+04  0.7818608E-02  0.8444222E-01
          1   -1    0    0  501    0  0.00000000000E+00  0.00000000000E+00  0.13550805441E+04  0.13550805441E+04  0.00000000000E+00 0. -1.
         -2   -1    0    0    0  501 -0.00000000000E+00 -0.00000000000E+00 -0.10515702579E+04  0.10515702579E+04  0.00000000000E+00 0.  1.
        -24    2    1    2    0    0  0.96911237657E+03 -0.15382245356E+03  0.42287547144E+03  0.10714395889E+04  0.79492028817E+02 0.  0.
        254    2    1    2    0    0 -0.96911237657E+03  0.15382245356E+03 -0.11936518519E+03  0.13352112131E+04  0.89760837259E+03 0.  0.
         23    2    4    4    0    0 -0.68465812446E+03 -0.28516595398E+03  0.11238994684E+03  0.75541173149E+03  0.89101151663E+02 0.  0.
         23    2    4    4    0    0 -0.28445425211E+03  0.43898840754E+03 -0.23175513204E+03  0.57979948162E+03  0.93978477136E+02 0.  0.
          3    1    3    3  502    0  0.34501105206E+03 -0.74518315696E+02  0.11659394498E+03  0.37172537366E+03  0.00000000000E+00 0. -1.
         -4    1    3    3    0  502  0.62410132451E+03 -0.79304137865E+02  0.30628152645E+03  0.69971421522E+03  0.00000000000E+00 0.  1.
         13    1    5    5    0    0 -0.39255222503E+03 -0.21048077840E+03  0.72489376793E+02  0.45128053049E+03  0.00000000000E+00 0. -1.
        -13    1    5    5    0    0 -0.29210589943E+03 -0.74685175582E+02  0.39900570049E+02  0.30413120100E+03  0.00000000000E+00 0.  1.
          4    1    6    6  503    0 -0.45040600045E+02  0.36812419593E+02 -0.15121137197E+01  0.58190174228E+02  0.00000000000E+00 0. -1.
         -4    1    6    6    0  503 -0.23941365207E+03  0.40217598795E+03 -0.23024301832E+03  0.52160930740E+03  0.00000000000E+00 0.  1.
<mgrwt>
<rscale>  0 0.23874358E+04</rscale>
<asrwt>0</asrwt>
<pdfrwt beam="1">  1        1 0.20847393E+00 0.23874358E+04</pdfrwt>
<pdfrwt beam="2">  1       -2 0.16178004E+00 0.23874358E+04</pdfrwt>
<totfact> 0.15904666E+00</totfact>
</mgrwt>
</event>
<event>
12    5  0.5041746E-008  0.1342586E+04  0.7818608E-02  0.8996460E-01
          3   -1    0    0  501    0  0.00000000000E+00  0.00000000000E+00  0.94737728997E+03  0.94737728997E+03  0.00000000000E+00 0. -1.
         -4   -1    0    0    0  501 -0.00000000000E+00 -0.00000000000E+00 -0.47566485488E+03  0.47566485488E+03  0.00000000000E+00 0.  1.
        -24    2    1    2    0    0  0.19688202035E+03  0.85683364889E+02  0.44075882791E+03  0.49663838587E+03  0.79228612128E+02 0.  0.
        254    2    1    2    0    0 -0.19688202035E+03 -0.85683364889E+02  0.30953607175E+02  0.92640375898E+03  0.90064511873E+03 0.  0.
         23    2    4    4    0    0 -0.44937882779E+03  0.29884134632E+02 -0.24821888086E+03  0.52233764009E+03  0.91594787382E+02 0.  0.
         23    2    4    4    0    0  0.25249680744E+03 -0.11556749952E+03  0.27917248803E+03  0.40406611889E+03  0.90673400983E+02 0.  0.
          1    1    3    3  502    0  0.10353974804E+03  0.32143092280E+02  0.30314139375E+03  0.32194465737E+03  0.00000000000E+00 0. -1.
         -2    1    3    3    0  502  0.93342272308E+02  0.53540272609E+02  0.13761743417E+03  0.17469372850E+03  0.00000000000E+00 0.  1.
         13    1    5    5    0    0 -0.42186018246E+03  0.13763415931E+02 -0.20668789002E+03  0.46997375357E+03  0.00000000000E+00 0. -1.
        -13    1    5    5    0    0 -0.27518645333E+02  0.16120718701E+02 -0.41530990833E+02  0.52363886524E+02  0.00000000000E+00 0.  1.
          1    1    6    6  503    0  0.19563634038E+03 -0.50831747451E+02  0.22417751097E+03  0.30184930123E+03  0.00000000000E+00 0. -1.
         -1    1    6    6    0  503  0.56860467057E+02 -0.64735752070E+02  0.54994977056E+02  0.10221681765E+03  0.00000000000E+00 0.  1.
<mgrwt>
<rscale>  0 0.13425857E+04</rscale>
<asrwt>0</asrwt>
<pdfrwt beam="1">  1        3 0.14575035E+00 0.13425857E+04</pdfrwt>
<pdfrwt beam="2">  1       -4 0.73179209E-01 0.13425857E+04</pdfrwt>
<totfact> 0.13227005E+00</totfact>
</mgrwt>
</event>
<event>
12    5  0.5041746E-008  0.1770803E+04  0.7818608E-02  0.8721982E-01
          1   -1    0    0  501    0  0.00000000000E+00  0.00000000000E+00  0.99381991323E+03  0.99381991323E+03  0.00000000000E+00 0. -1.
         -2   -1    0    0    0  501 -0.00000000000E+00 -0.00000000000E+00 -0.78881061730E+03  0.78881061730E+03  0.00000000000E+00 0.  1.
        -24    2    1    2    0    0 -0.24437074173E+02 -0.31873898985E+03 -0.49930484899E+03  0.59803762730E+03  0.78434413359E+02 0.  0.
        254    2    1    2    0    0  0.24437074173E+02  0.31873898985E+03  0.70431414492E+03  0.11845929032E+04  0.89722361616E+03 0.  0.
         23    2    4    4    0    0  0.19298019453E+03  0.51480024284E+03  0.16706235414E+03  0.58158729925E+03  0.89851605281E+02 0.  0.
         23    2    4    4    0    0 -0.16854312036E+03 -0.19606125299E+03  0.53725179078E+03  0.60300560398E+03  0.90163592379E+02 0.  0.
          3    1    3    3  502    0 -0.33852238457E+01 -0.89708985259E+02 -0.21048066325E+03  0.22882585383E+03  0.00000000000E+00 0. -1.
         -4    1    3    3    0  502 -0.21051850328E+02 -0.22903000459E+03 -0.28882418574E+03  0.36921177348E+03  0.00000000000E+00 0.  1.
         13    1    5    5    0    0  0.79244123680E+02  0.33118317437E+03  0.11484419750E+03  0.35937600897E+03  0.00000000000E+00 0.  1.
        -13    1    5    5    0    0  0.11373607085E+03  0.18361706846E+03  0.52218156640E+02  0.22221129028E+03  0.00000000000E+00 0. -1.
          1    1    6    6  503    0 -0.17681273302E+03 -0.16690427489E+03  0.46735482286E+03  0.52682094680E+03  0.00000000000E+00 0. -1.
         -1    1    6    6    0  503  0.82696126633E+01 -0.29156978093E+02  0.69896967919E+02  0.76184657178E+02  0.00000000000E+00 0.  1.
<mgrwt>
<rscale>  0 0.17708029E+04</rscale>
<asrwt>0</asrwt>
<pdfrwt beam="1">  1        1 0.15289537E+00 0.17708029E+04</pdfrwt>
<pdfrwt beam="2">  1       -2 0.12135548E+00 0.17708029E+04</pdfrwt>
<totfact> 0.65511086E+00</totfact>
</mgrwt>
</event>
<event>
12    5  0.5041746E-008  0.1306455E+04  0.7818608E-02  0.9024462E-01
          3   -1    0    0  501    0  0.00000000000E+00  0.00000000000E+00  0.53963518572E+03  0.53963518572E+03  0.00000000000E+00 0. -1.
         -4   -1    0    0    0  501 -0.00000000000E+00 -0.00000000000E+00 -0.79073104555E+03  0.79073104555E+03  0.00000000000E+00 0.  1.
        -24    2    1    2    0    0  0.23510430277E+03  0.23743428298E+03 -0.10692993144E+03  0.35867926109E+03  0.74617224428E+02 0.  0.
        254    2    1    2    0    0 -0.23510430277E+03 -0.23743428298E+03 -0.14416592840E+03  0.97168697018E+03  0.90096763604E+03 0.  0.
         23    2    4    4    0    0 -0.49973073164E+03 -0.35216208558E+03 -0.22688337511E+03  0.65849650373E+03  0.91611357648E+02 0.  0.
         23    2    4    4    0    0  0.26462642887E+03  0.11472780260E+03  0.82717446716E+02  0.31319046646E+03  0.89757878444E+02 0.  0.
          1    1    3    3  502    0  0.16318546635E+03  0.15996312889E+03 -0.35876879373E+02  0.23131115301E+03  0.00000000000E+00 0. -1.
         -2    1    3    3    0  502  0.71918836424E+02  0.77471154088E+02 -0.71053052065E+02  0.12736810808E+03  0.00000000000E+00 0.  1.
         13    1    5    5    0    0 -0.23756337412E+03 -0.19584213486E+03 -0.15597006372E+03  0.34513353834E+03  0.00000000000E+00 0.  1.
        -13    1    5    5    0    0 -0.26216735752E+03 -0.15631995071E+03 -0.70913311393E+02  0.31336296539E+03  0.00000000000E+00 0. -1.
          1    1    6    6  503    0  0.85630071404E+02  0.42489252227E+02 -0.15131448935E+02  0.96782262994E+02  0.00000000000E+00 0. -1.
         -1    1    6    6    0  503  0.17899635747E+03  0.72238550371E+02  0.97848895650E+02  0.21640820346E+03  0.00000000000E+00 0.  1.
<mgrwt>
<rscale>  0 0.13064552E+04</rscale>
<asrwt>0</asrwt>
<pdfrwt beam="1">  1        3 0.83020798E-01 0.13064552E+04</pdfrwt>
<pdfrwt beam="2">  1       -4 0.12165093E+00 0.13064552E+04</pdfrwt>
<totfact> 0.15356995E+00</totfact>
</mgrwt>
</event>
<event>
12    5  0.5041746E-008  0.1208195E+04  0.7818608E-02  0.9105714E-01
          1   -1    0    0  501    0  0.00000000000E+00  0.00000000000E+00  0.84947744954E+03  0.84947744954E+03  0.00000000000E+00 0. -1.
         -2   -1    0    0    0  501 -0.00000000000E+00 -0.00000000000E+00 -0.42959787972E+03  0.42959787972E+03  0.00000000000E+00 0.  1.
        -24    2    1    2    0    0 -0.16865331617E+03 -0.56928538426E+01  0.31116100185E+03  0.36799399862E+03  0.10060847035E+03 0.  0.
        254    2    1    2    0    0  0.16865331617E+03  0.56928538426E+01  0.10871856797E+03  0.91108133064E+03  0.88869179943E+03 0.  0.
         23    2    4    4    0    0 -0.58227966218E+02 -0.21756048105E+02  0.46592448540E+03  0.47865525595E+03  0.90340501843E+02 0.  0.
         23    2    4    4    0    0  0.22688128239E+03  0.27448901947E+02 -0.35720591743E+03  0.43242607469E+03  0.84662176369E+02 0.  0.
          1    1    3    3  502    0 -0.34659884437E+02  0.17592907974E+02  0.16001281866E+03  0.16466608678E+03  0.00000000000E+00 0. -1.
         -2    1    3    3    0  502 -0.13399343173E+03 -0.23285761817E+02  0.15114818319E+03  0.20332791184E+03  0.00000000000E+00 0.  1.
         13    1    5    5    0    0 -0.43491539926E+01  0.21612820668E+02  0.29735002704E+02  0.37016206498E+02  0.00000000000E+00 0. -1.
        -13    1    5    5    0    0 -0.53878812226E+02 -0.43368868773E+02  0.43618948270E+03  0.44163904945E+03  0.00000000000E+00 0.  1.
          1    1    6    6  503    0  0.27929597828E+02 -0.14558867797E+02 -0.98265222532E+02  0.10318951994E+03  0.00000000000E+00 0. -1.
         -1    1    6    6    0  503  0.19895168456E+03  0.42007769744E+02 -0.25894069490E+03  0.32923655475E+03  0.00000000000E+00 0.  1.
<mgrwt>
<rscale>  0 0.12081949E+04</rscale>
<asrwt>0</asrwt>
<pdfrwt beam="1">  1        1 0.13068884E+00 0.12081949E+04</pdfrwt>
<pdfrwt beam="2">  1       -2 0.66091981E-01 0.12081949E+04</pdfrwt>
<totfact> 0.36605044E+01</totfact>
</mgrwt>
</event>
<event>
12    5  0.5041746E-008  0.1755077E+04  0.7818608E-02  0.8730561E-01
         -2   -1    0    0    0  501 -0.00000000000E+00  0.00000000000E+00  0.52269992925E+03  0.52269992925E+03  0.00000000000E+00 0.  1.
          1   -1    0    0  501    0  0.00000000000E+00 -0.00000000000E+00 -0.14732619516E+04  0.14732619516E+04  0.00000000000E+00 0. -1.
        -24    2    1    2    0    0 -0.32269086124E+03  0.55642797281E+03 -0.39568395777E+03  0.75966328779E+03  0.82347043219E+02 0.  0.
        254    2    1    2    0    0  0.32269086124E+03 -0.55642797281E+03 -0.55487806459E+03  0.12362985931E+04  0.89822216841E+03 0.  0.
         23    2    4    4    0    0  0.35261739929E+03  0.13699907465E+03 -0.29816450605E+03  0.49069376430E+03  0.93651059368E+02 0.  0.
         23    2    4    4    0    0 -0.29926538046E+02 -0.69342704747E+03 -0.25671355854E+03  0.74560482877E+03  0.91038682519E+02 0.  0.
          3    1    3    3  502    0 -0.30038202188E+03  0.54103377084E+03 -0.39141507939E+03  0.73222446328E+03  0.00000000000E+00 0. -1.
         -4    1    3    3    0  502 -0.22308839358E+02  0.15394201977E+02 -0.42688783857E+01  0.27438824513E+02  0.00000000000E+00 0.  1.
         13    1    5    5    0    0  0.70398295995E+02  0.66635800574E+02 -0.96379606163E+02  0.13669410551E+03  0.00000000000E+00 0.  1.
        -13    1    5    5    0    0  0.28221910329E+03  0.70363274079E+02 -0.20178489989E+03  0.35399965879E+03  0.00000000000E+00 0. -1.
          3    1    6    6  503    0 -0.34642928942E+01 -0.36492118581E+03 -0.18141450250E+03  0.40754226149E+03  0.00000000000E+00 0. -1.
         -3    1    6    6    0  503 -0.26462245152E+02 -0.32850586166E+03 -0.75299056035E+02  0.33806256729E+03  0.00000000000E+00 0.  1.
<mgrwt>
<rscale>  0 0.17550771E+04</rscale>
<asrwt>0</asrwt>
<pdfrwt beam="1">  1        1 0.22665568E+00 0.17550771E+04</pdfrwt>
<pdfrwt beam="2">  1       -2 0.80415374E-01 0.17550771E+04</pdfrwt>
<totfact> 0.77536898E+00</totfact>
</mgrwt>
</event>
<event>
12    5  0.5041746E-008  0.1899975E+04  0.7818608E-02  0.8654869E-01
          1   -1    0    0  501    0  0.00000000000E+00  0.00000000000E+00  0.16968541866E+04  0.16968541866E+04  0.00000000000E+00 0. -1.
         -2   -1    0    0    0  501 -0.00000000000E+00 -0.00000000000E+00 -0.53185245444E+03  0.53185245444E+03  0.00000000000E+00 0.  1.
        -24    2    1    2    0    0  0.21942253079E+03 -0.25832022581E+03  0.12188994779E+04  0.12676790167E+04  0.80115954238E+02 0.  0.
        254    2    1    2    0    0 -0.21942253079E+03  0.25832022581E+03 -0.53897745763E+02  0.96102762430E+03  0.89766003676E+03 0.  0.
         23    2    4    4    0    0  0.31633532467E+03  0.18082836082E+03  0.10301349695E+03  0.38995082709E+03  0.93182258398E+02 0.  0.
         23    2    4    4    0    0 -0.53575785546E+03  0.77491864989E+02 -0.15691124272E+03  0.57107679722E+03  0.92011419941E+02 0.  0.
          1    1    3    3  502    0  0.20135682546E+03 -0.18988340604E+03  0.10021070031E+04  0.10396243191E+04  0.00000000000E+00 0. -1.
         -2    1    3    3    0  502  0.18065705329E+02 -0.68436819772E+02  0.21679247475E+03  0.22805469764E+03  0.00000000000E+00 0.  1.
         13    1    5    5    0    0  0.10107874920E+03  0.72792992172E+02 -0.78589852290E+01  0.12480984295E+03  0.00000000000E+00 0.  1.
        -13    1    5    5    0    0  0.21525657547E+03  0.10803536865E+03  0.11087248218E+03  0.26514098413E+03  0.00000000000E+00 0. -1.
          3    1    6    6  503    0 -0.38762409044E+03  0.50086911571E+02 -0.15488134812E+03  0.42041570640E+03  0.00000000000E+00 0. -1.
         -3    1    6    6    0  503 -0.14813376502E+03  0.27404953418E+02 -0.20298945996E+01  0.15066109081E+03  0.00000000000E+00 0.  1.
<mgrwt>
<rscale>  0 0.18999748E+04</rscale>
<asrwt>0</asrwt>
<pdfrwt beam="1">  1        1 0.26105449E+00 0.18999748E+04</pdfrwt>
<pdfrwt beam="2">  1       -2 0.81823455E-01 0.18999748E+04</pdfrwt>
<totfact> 0.51681035E+00</totfact>
</mgrwt>
</event>
<event>
12    5  0.5041746E-008  0.2909986E+04  0.7818608E-02  0.8269913E-01
          1   -1    0    0  501    0  0.00000000000E+00  0.00000000000E+00  0.20225721941E+04  0.20225721941E+04  0.00000000000E+00 0. -1.
         -2   -1    0    0    0  501 -0.00000000000E+00 -0.00000000000E+00 -0.10466891635E+04  0.10466891635E+04  0.00000000000E+00 0.  1.
        -24    2    1    2    0    0 -0.12214310903E+04 -0.37166525725E+03  0.75758428864E+03  0.14868284650E+04  0.81828834391E+02 0.  0.
        254    2    1    2    0    0  0.12214310903E+04  0.37166525725E+03  0.21829874200E+03  0.15824328926E+04  0.90907125511E+03 0.  0.
         23    2    4    4    0    0  0.17621713326E+03 -0.25190244485E+03  0.16537424719E+03  0.36082930027E+03  0.91333578263E+02 0.  0.
         23    2    4    4    0    0  0.10452139571E+04  0.62356770210E+03  0.52924494810E+02  0.12216035923E+04  0.90583880714E+02 0.  0.
          3    1    3    3  502    0 -0.10129189657E+04 -0.27546393576E+03  0.62299390094E+03  0.12206582698E+04  0.00000000000E+00 0. -1.
         -4    1    3    3    0  502 -0.20851212465E+03 -0.96201321487E+02  0.13459038770E+03  0.26617019526E+03  0.00000000000E+00 0.  1.
         13    1    5    5    0    0  0.15460638189E+03 -0.19032005831E+03  0.16502521911E+03  0.29556417384E+03  0.00000000000E+00 0.  1.
        -13    1    5    5    0    0  0.21610751376E+02 -0.61582386539E+02  0.34902808645E+00  0.65265126427E+02  0.00000000000E+00 0. -1.
          4    1    6    6  503    0  0.92497102106E+03  0.56894980637E+03  0.22991843690E+02  0.10861877816E+04  0.00000000000E+00 0.  1.
         -4    1    6    6    0  503  0.12024293601E+03  0.54617895725E+02  0.29932651121E+02  0.13541581073E+03  0.00000000000E+00 0. -1.
<mgrwt>
<rscale>  0 0.29099858E+04</rscale>
<asrwt>0</asrwt>
<pdfrwt beam="1">  1        1 0.31116495E+00 0.29099858E+04</pdfrwt>
<pdfrwt beam="2">  1       -2 0.16102910E+00 0.29099858E+04</pdfrwt>
<totfact> 0.53684717E-01</totfact>
</mgrwt>
</event>
<event>
12    5  0.5041746E-008  0.1529518E+04  0.7818608E-02  0.8865058E-01
          1   -1    0    0  501    0  0.00000000000E+00  0.00000000000E+00  0.56672409086E+03  0.56672409086E+03  0.00000000000E+00 0. -1.
         -2   -1    0    0    0  501 -0.00000000000E+00 -0.00000000000E+00 -0.10319949874E+04  0.10319949874E+04  0.00000000000E+00 0.  1.
        -24    2    1    2    0    0 -0.76462912161E+02 -0.39265706195E+03 -0.46439747117E+03  0.61796423822E+03  0.78667930307E+02 0.  0.
        254    2    1    2    0    0  0.76462912161E+02  0.39265706195E+03 -0.87342541323E+00  0.98075484007E+03  0.89546253312E+03 0.  0.
         23    2    4    4    0    0 -0.25073479810E+03  0.25570020557E+03  0.32344486508E+03  0.49110211636E+03  0.91182091637E+02 0.  0.
         23    2    4    4    0    0  0.32719771026E+03  0.13695685638E+03 -0.32431829050E+03  0.48965272371E+03  0.93605096974E+02 0.  0.
          3    1    3    3  502    0 -0.18899520202E+02 -0.10315311248E+03 -0.73151869038E+02  0.12786302211E+03  0.00000000000E+00 0. -1.
         -4    1    3    3    0  502 -0.57563391959E+02 -0.28950394947E+03 -0.39124560213E+03  0.49010121611E+03  0.00000000000E+00 0.  1.
         13    1    5    5    0    0 -0.14689786895E+02  0.39338016156E+02  0.74472112187E+02  0.85494823514E+02  0.00000000000E+00 0.  1.
        -13    1    5    5    0    0 -0.23604501121E+03  0.21636218941E+03  0.24897275290E+03  0.40560729284E+03  0.00000000000E+00 0. -1.
          4    1    6    6  503    0  0.18772711896E+03  0.60769150719E+02 -0.23676579309E+03  0.30820837375E+03  0.00000000000E+00 0. -1.
         -4    1    6    6    0  503  0.13947059130E+03  0.76187705658E+02 -0.87552497410E+02  0.18144434997E+03  0.00000000000E+00 0.  1.
<mgrwt>
<rscale>  0 0.15295181E+04</rscale>
<asrwt>0</asrwt>
<pdfrwt beam="1">  1        1 0.87188322E-01 0.15295181E+04</pdfrwt>
<pdfrwt beam="2">  1       -2 0.15876846E+00 0.15295181E+04</pdfrwt>
<totfact> 0.80683184E+00</totfact>
</mgrwt>
</event>
<event>
12    5  0.5041746E-008  0.1449450E+04  0.7818608E-02  0.8918782E-01
          1   -1    0    0  501    0  0.00000000000E+00  0.00000000000E+00  0.21141881689E+04  0.21141881689E+04  0.00000000000E+00 0. -1.
         -2   -1    0    0    0  501 -0.00000000000E+00 -0.00000000000E+00 -0.24842928833E+03  0.24842928833E+03  0.00000000000E+00 0.  1.
        -24    2    1    2    0    0  0.10262967717E+03 -0.21199838569E+03  0.11804023111E+04  0.12063363719E+04  0.80135260239E+02 0.  0.
        254    2    1    2    0    0 -0.10262967717E+03  0.21199838569E+03  0.68535656945E+03  0.11562810853E+04  0.90099731122E+03 0.  0.
         23    2    4    4    0    0 -0.31109808371E+03 -0.57923122908E+02 -0.56886987570E+02  0.33434428113E+03  0.91721661102E+02 0.  0.
         23    2    4    4    0    0  0.20846840654E+03  0.26992150860E+03  0.74224355702E+03  0.82193680419E+03  0.91312183267E+02 0.  0.
          3    1    3    3  502    0  0.11504543925E+03 -0.18595393087E+03  0.99874449665E+03  0.10224015293E+04  0.00000000000E+00 0. -1.
         -4    1    3    3    0  502 -0.12415762075E+02 -0.26044454822E+02  0.18165781442E+03  0.18393484258E+03  0.00000000000E+00 0.  1.
         13    1    5    5    0    0 -0.24635872630E+03 -0.64147459286E+02 -0.77515926312E+02  0.26611320409E+03  0.00000000000E+00 0. -1.
        -13    1    5    5    0    0 -0.64739357409E+02  0.62243363780E+01  0.20628938742E+02  0.68231077045E+02  0.00000000000E+00 0.  1.
          3    1    6    6  503    0  0.16789084504E+03  0.24135758162E+03  0.55303686879E+03  0.62633105966E+03  0.00000000000E+00 0. -1.
         -3    1    6    6    0  503  0.40577561505E+02  0.28563926977E+02  0.18920668823E+03  0.19560574453E+03  0.00000000000E+00 0.  1.
<mgrwt>
<rscale>  0 0.14494499E+04</rscale>
<asrwt>0</asrwt>
<pdfrwt beam="1">  1        1 0.32525971E+00 0.14494499E+04</pdfrwt>
<pdfrwt beam="2">  1       -2 0.38219892E-01 0.14494499E+04</pdfrwt>
<totfact> 0.13754228E+01</totfact>
</mgrwt>
</event>
<event>
12    5  0.5041746E-008  0.2340639E+04  0.7818608E-02  0.8462068E-01
         -2   -1    0    0    0  501 -0.00000000000E+00  0.00000000000E+00  0.16890201638E+04  0.16890201638E+04  0.00000000000E+00 0.  1.
          1   -1    0    0  501    0  0.00000000000E+00 -0.00000000000E+00 -0.81091268905E+03  0.81091268905E+03  0.00000000000E+00 0. -1.
        -24    2    1    2    0    0 -0.91351748641E+03  0.37359956656E+03  0.31731210242E+03  0.10398154520E+04  0.80239453077E+02 0.  0.
        254    2    1    2    0    0  0.91351748641E+03 -0.37359956656E+03  0.56079537232E+03  0.14601174008E+04  0.91834663411E+03 0.  0.
         23    2    4    4    0    0  0.99167466463E+03 -0.75437042286E+02  0.54506070094E+03  0.11383980406E+04  0.98739775826E+02 0.  0.
         23    2    4    4    0    0 -0.78157178224E+02 -0.29816252427E+03  0.15734671375E+02  0.32171936018E+03  0.90809313651E+02 0.  0.
          1    1    3    3  502    0 -0.65403949181E+03  0.25646333162E+03  0.26206063063E+03  0.74981122387E+03  0.00000000000E+00 0. -1.
         -2    1    3    3    0  502 -0.25947799460E+03  0.11713623494E+03  0.55251471789E+02  0.29000422816E+03  0.00000000000E+00 0.  1.
         13    1    5    5    0    0  0.46889779268E+03 -0.30546164046E+02  0.31350477980E+03  0.56487472512E+03  0.00000000000E+00 0.  1.
        -13    1    5    5    0    0  0.52277687196E+03 -0.44890878240E+02  0.23155592114E+03  0.57352331549E+03  0.00000000000E+00 0. -1.
          4    1    6    6  503    0 -0.87617022001E+02 -0.28716341971E+03  0.29553613371E+02  0.30168358959E+03  0.00000000000E+00 0. -1.
         -4    1    6    6    0  503  0.94598437775E+01 -0.10999104562E+02 -0.13818941996E+02  0.20035770596E+02  0.00000000000E+00 0.  1.
<mgrwt>
<rscale>  0 0.23406391E+04</rscale>
<asrwt>0</asrwt>
<pdfrwt beam="1">  1        1 0.12475580E+00 0.23406391E+04</pdfrwt>
<pdfrwt beam="2">  1       -2 0.25984926E+00 0.23406391E+04</pdfrwt>
<totfact> 0.95486877E-01</totfact>
</mgrwt>
</event>
<event>
12    5  0.5041746E-008  0.1316179E+04  0.7818608E-02  0.9016832E-01
          1   -1    0    0  501    0  0.00000000000E+00  0.00000000000E+00  0.25398608107E+04  0.25398608107E+04  0.00000000000E+00 0. -1.
         -2   -1    0    0    0  501 -0.00000000000E+00 -0.00000000000E+00 -0.17051407288E+03  0.17051407288E+03  0.00000000000E+00 0.  1.
        -24    2    1    2    0    0 -0.24730549435E+03 -0.14687930929E+03  0.95008210269E+03  0.99602769167E+03  0.81741187132E+02 0.  0.
        254    2    1    2    0    0  0.24730549435E+03  0.14687930929E+03  0.14192646351E+04  0.17143471919E+04  0.91757324005E+03 0.  0.
         23    2    4    4    0    0  0.28804549204E+03 -0.36797053390E+02  0.14674086275E+04  0.14986590878E+04  0.91469955935E+02 0.  0.
         23    2    4    4    0    0 -0.40739997684E+02  0.18367636268E+03 -0.48143992404E+02  0.21568810406E+03  0.93844342455E+02 0.  0.
          3    1    3    3  502    0 -0.14469441607E+03 -0.12686022539E+03  0.55811227711E+03  0.59035523601E+03  0.00000000000E+00 0. -1.
         -4    1    3    3    0  502 -0.10261107829E+03 -0.20019083891E+02  0.39196982559E+03  0.40567245566E+03  0.00000000000E+00 0.  1.
         13    1    5    5    0    0  0.51444227524E+02 -0.85899052611E+01  0.12795037794E+03  0.13817233527E+03  0.00000000000E+00 0. -1.
        -13    1    5    5    0    0  0.23660126451E+03 -0.28207148129E+02  0.13394582496E+04  0.13604867526E+04  0.00000000000E+00 0.  1.
          3    1    6    6  503    0 -0.11693926249E+02  0.12047699288E+01  0.16217677343E+02  0.20030288069E+02  0.00000000000E+00 0. -1.
         -3    1    6    6    0  503 -0.29046071435E+02  0.18247159275E+03 -0.64361669747E+02  0.19565781599E+03  0.00000000000E+00 0.  1.
<mgrwt>
<rscale>  0 0.13161793E+04</rscale>
<asrwt>0</asrwt>
<pdfrwt beam="1">  1        1 0.39074779E+00 0.13161793E+04</pdfrwt>
<pdfrwt beam="2">  1       -2 0.26232936E-01 0.13161793E+04</pdfrwt>
<totfact> 0.14459964E+01</totfact>
</mgrwt>
</event>
<event>
12    5  0.5041746E-008  0.1988918E+04  0.7818608E-02  0.8611820E-01
         -2   -1    0    0    0  501 -0.00000000000E+00  0.00000000000E+00  0.29857396634E+04  0.29857396634E+04  0.00000000000E+00 0.  1.
          1   -1    0    0  501    0  0.00000000000E+00 -0.00000000000E+00 -0.33122390433E+03  0.33122390433E+03  0.00000000000E+00 0. -1.
        -24    2    1    2    0    0  0.12131478537E+03  0.29835671882E+03  0.22672883861E+04  0.22914165286E+04  0.79114303815E+02 0.  0.
        254    2    1    2    0    0 -0.12131478537E+03 -0.29835671882E+03  0.38722737300E+03  0.10255470391E+04  0.89334633948E+03 0.  0.
         23    2    4    4    0    0 -0.19902443119E+03 -0.49667020225E+02 -0.24704309561E+03  0.33371310421E+03  0.90865877664E+02 0.  0.
         23    2    4    4    0    0  0.77709645819E+02 -0.24868969859E+03  0.63427046860E+03  0.69183393493E+03  0.91922853183E+02 0.  0.
          3    1    3    3  502    0  0.20249888246E+02  0.13740624207E+02  0.89530095190E+02  0.92814334412E+02  0.00000000000E+00 0. -1.
         -4    1    3    3    0  502  0.10106489713E+03  0.28461609461E+03  0.21777582909E+04  0.21986021942E+04  0.00000000000E+00 0.  1.
         13    1    5    5    0    0 -0.20665593406E+03 -0.38513910524E+02 -0.22553373957E+03  0.30831066163E+03  0.00000000000E+00 0.  1.
        -13    1    5    5    0    0  0.76315028713E+01 -0.11153109701E+02 -0.21509356032E+02  0.25402442579E+02  0.00000000000E+00 0. -1.
          4    1    6    6  503    0  0.15284392238E+01  0.36911985689E+01 -0.92744457064E+00  0.41013688895E+01  0.00000000000E+00 0. -1.
         -4    1    6    6    0  503  0.76181206595E+02 -0.25238089716E+03  0.63519791317E+03  0.68773256604E+03  0.00000000000E+00 0.  1.
<mgrwt>
<rscale>  0 0.19889176E+04</rscale>
<asrwt>0</asrwt>
<pdfrwt beam="1">  1        1 0.50957526E-01 0.19889176E+04</pdfrwt>
<pdfrwt beam="2">  1       -2 0.45934455E+00 0.19889176E+04</pdfrwt>
<totfact> 0.18852989E-01</totfact>
</mgrwt>
</event>
<event>
12    5  0.5041746E-008  0.2133967E+04  0.7818608E-02  0.8546426E-01
         -2   -1    0    0    0  501 -0.00000000000E+00  0.00000000000E+00  0.12764314659E+04  0.12764314659E+04  0.00000000000E+00 0.  1.
          1   -1    0    0  501    0  0.00000000000E+00 -0.00000000000E+00 -0.89190397825E+03  0.89190397825E+03  0.00000000000E+00 0. -1.
        -24    2    1    2    0    0 -0.70437871767E+03  0.36843518993E+03  0.52913297366E+03  0.95839257704E+03  0.81490863510E+02 0.  0.
        254    2    1    2    0    0  0.70437871767E+03 -0.36843518993E+03 -0.14460548601E+03  0.12099428671E+04  0.90064261945E+03 0.  0.
         23    2    4    4    0    0  0.43343273178E+03 -0.24952662145E+03 -0.51672038506E+03  0.72482360671E+03  0.90784562034E+02 0.  0.
         23    2    4    4    0    0  0.27094598589E+03 -0.11890856848E+03  0.37211489906E+03  0.48511926039E+03  0.96541306064E+02 0.  0.
          1    1    3    3  502    0 -0.16858071562E+03  0.12329305963E+03  0.11757844475E+03  0.23967754777E+03  0.00000000000E+00 0. -1.
         -2    1    3    3    0  502 -0.53579800205E+03  0.24514213030E+03  0.41155452891E+03  0.71871502928E+03  0.00000000000E+00 0.  1.
         13    1    5    5    0    0  0.23892923230E+03 -0.16165265270E+03 -0.23936172217E+03  0.37485035976E+03  0.00000000000E+00 0.  1.
        -13    1    5    5    0    0  0.19450349948E+03 -0.87873968753E+02 -0.27735866289E+03  0.34997324694E+03  0.00000000000E+00 0. -1.
          4    1    6    6  503    0 -0.43596157483E+01 -0.10077549533E+02  0.19751015126E+01  0.11156356039E+02  0.00000000000E+00 0. -1.
         -4    1    6    6    0  503  0.27530560163E+03 -0.10883101895E+03  0.37013979754E+03  0.47396290435E+03  0.00000000000E+00 0.  1.
<mgrwt>
<rscale>  0 0.21339675E+04</rscale>
<asrwt>0</asrwt>
<pdfrwt beam="1">  1        1 0.13721600E+00 0.21339675E+04</pdfrwt>
<pdfrwt beam="2">  1       -2 0.19637407E+00 0.21339675E+04</pdfrwt>
<totfact> 0.20865016E+00</totfact>
</mgrwt>
</event>
<event>
12    5  0.5041746E-008  0.1441514E+04  0.7818608E-02  0.8924305E-01
          1   -1    0    0  501    0  0.00000000000E+00  0.00000000000E+00  0.52198609488E+03  0.52198609488E+03  0.00000000000E+00 0. -1.
         -2   -1    0    0    0  501 -0.00000000000E+00 -0.00000000000E+00 -0.99521951333E+03  0.99521951333E+03  0.00000000000E+00 0.  1.
        -24    2    1    2    0    0  0.31816611643E+03  0.80310849419E+02 -0.47999454438E+03  0.58689329565E+03  0.79808944771E+02 0.  0.
        254    2    1    2    0    0 -0.31816611643E+03 -0.80310849419E+02  0.67611259360E+01  0.93031231257E+03  0.87049168630E+03 0.  0.
         23    2    4    4    0    0 -0.17549066945E+03  0.36508419969E+03 -0.12741184555E+03  0.43440773390E+03  0.91612515297E+02 0.  0.
         23    2    4    4    0    0 -0.14267544698E+03 -0.44539504911E+03  0.13417297149E+03  0.49590457866E+03  0.95843267475E+02 0.  0.
          1    1    3    3  502    0  0.20682130807E+03  0.17863345148E+02 -0.26204376459E+03  0.33430687569E+03  0.00000000000E+00 0. -1.
         -2    1    3    3    0  502  0.11134480836E+03  0.62447504271E+02 -0.21795077979E+03  0.25258641996E+03  0.00000000000E+00 0.  1.
         13    1    5    5    0    0 -0.66217347030E+00  0.85780729807E+02 -0.27630059317E+02  0.90123205989E+02  0.00000000000E+00 0.  1.
        -13    1    5    5    0    0 -0.17482849598E+03  0.27930346988E+03 -0.99781786235E+02  0.34428452791E+03  0.00000000000E+00 0. -1.
          4    1    6    6  503    0 -0.68307116079E+02 -0.32154733134E+03  0.12311527329E+03  0.35102125138E+03  0.00000000000E+00 0. -1.
         -4    1    6    6    0  503 -0.74368330896E+02 -0.12384771777E+03  0.11057698199E+02  0.14488332729E+03  0.00000000000E+00 0.  1.
<mgrwt>
<rscale>  0 0.14415141E+04</rscale>
<asrwt>0</asrwt>
<pdfrwt beam="1">  1        1 0.80305553E-01 0.14415141E+04</pdfrwt>
<pdfrwt beam="2">  1       -2 0.15311069E+00 0.14415141E+04</pdfrwt>
<totfact> 0.10059406E+01</totfact>
</mgrwt>
</event>
<event>
12    5  0.5041746E-008  0.1338654E+04  0.7818608E-02  0.8999462E-01
          1   -1    0    0  501    0  0.00000000000E+00  0.00000000000E+00  0.15596582314E+04  0.15596582314E+04  0.00000000000E+00 0. -1.
         -2   -1    0    0    0  501 -0.00000000000E+00 -0.00000000000E+00 -0.28724144235E+03  0.28724144235E+03  0.00000000000E+00 0.  1.
        -24    2    1    2    0    0  0.43386991087E+02 -0.16169057993E+03  0.79104224941E+03  0.81252714835E+03  0.80163905989E+02 0.  0.
        254    2    1    2    0    0 -0.43386991087E+02  0.16169057993E+03  0.48137453960E+03  0.10343725254E+04  0.90009932742E+03 0.  0.
         23    2    4    4    0    0 -0.22918418622E+03 -0.20903000847E+03 -0.77520351943E+02  0.33275045567E+03  0.92165748107E+02 0.  0.
         23    2    4    4    0    0  0.18579719513E+03  0.37072058840E+03  0.55889489155E+03  0.70162206970E+03  0.89194599084E+02 0.  0.
          1    1    3    3  502    0  0.28500815574E+02 -0.68096288348E+02  0.52384505635E+03  0.52902083516E+03  0.00000000000E+00 0. -1.
         -2    1    3    3    0  502  0.14886175513E+02 -0.93594291583E+02  0.26719719306E+03  0.28350631319E+03  0.00000000000E+00 0.  1.
         13    1    5    5    0    0 -0.42449189200E+02 -0.49770481624E+00 -0.61203516409E+00  0.42456518473E+02  0.00000000000E+00 0. -1.
        -13    1    5    5    0    0 -0.18673499702E+03 -0.20853230366E+03 -0.76908316779E+02  0.29029393719E+03  0.00000000000E+00 0.  1.
          3    1    6    6  503    0  0.78378456029E+01  0.68070019310E+02  0.13346879766E+03  0.15002959476E+03  0.00000000000E+00 0. -1.
         -3    1    6    6    0  503  0.17795934953E+03  0.30265056909E+03  0.42542609388E+03  0.55159247495E+03  0.00000000000E+00 0.  1.
<mgrwt>
<rscale>  0 0.13386538E+04</rscale>
<asrwt>0</asrwt>
<pdfrwt beam="1">  1        1 0.23994742E+00 0.13386538E+04</pdfrwt>
<pdfrwt beam="2">  1       -2 0.44190992E-01 0.13386538E+04</pdfrwt>
<totfact> 0.24834454E+01</totfact>
</mgrwt>
</event>
<event>
12    5  0.5041746E-008  0.1197146E+04  0.7818608E-02  0.9115359E-01
          1   -1    0    0  501    0  0.00000000000E+00  0.00000000000E+00  0.47124986490E+03  0.47124986490E+03  0.00000000000E+00 0. -1.
         -2   -1    0    0    0  501 -0.00000000000E+00 -0.00000000000E+00 -0.76029622844E+03  0.76029622844E+03  0.00000000000E+00 0.  1.
        -24    2    1    2    0    0 -0.21627563297E+02  0.82863232410E+02 -0.29738323976E+03  0.31927451793E+03  0.78519804712E+02 0.  0.
        254    2    1    2    0    0  0.21627563297E+02 -0.82863232410E+02  0.83368762119E+01  0.91227157541E+03  0.90820474399E+03 0.  0.
         23    2    4    4    0    0  0.28785370008E+03 -0.34029403909E+03 -0.17658860003E+03  0.48823548761E+03  0.92361095752E+02 0.  0.
         23    2    4    4    0    0 -0.26622613679E+03  0.25743080668E+03  0.18492547625E+03  0.42403608779E+03  0.91990194305E+02 0.  0.
          1    1    3    3  502    0  0.76091792571E+01 -0.12385765916E+02 -0.21518141284E+02  0.25968003593E+02  0.00000000000E+00 0. -1.
         -2    1    3    3    0  502 -0.29236742554E+02  0.95248998326E+02 -0.27586509848E+03  0.29330651434E+03  0.00000000000E+00 0.  1.
         13    1    5    5    0    0  0.13211295310E+03 -0.17241428011E+03 -0.13427708041E+03  0.25536415309E+03  0.00000000000E+00 0.  1.
        -13    1    5    5    0    0  0.15574074699E+03 -0.16787975898E+03 -0.42311519627E+02  0.23287133452E+03  0.00000000000E+00 0. -1.
          3    1    6    6  503    0 -0.59546350602E+01  0.41586665099E+02  0.93376000697E+01  0.43036021747E+02  0.00000000000E+00 0. -1.
         -3    1    6    6    0  503 -0.26027150173E+03  0.21584414159E+03  0.17558787618E+03  0.38100006605E+03  0.00000000000E+00 0.  1.
<mgrwt>
<rscale>  0 0.11971458E+04</rscale>
<asrwt>0</asrwt>
<pdfrwt beam="1">  1        1 0.72499981E-01 0.11971458E+04</pdfrwt>
<pdfrwt beam="2">  1       -2 0.11696865E+00 0.11971458E+04</pdfrwt>
<totfact> 0.23532726E+01</totfact>
</mgrwt>
</event>
<event>
12    5  0.5041746E-008  0.1328325E+04  0.7818608E-02  0.9007400E-01
         -2   -1    0    0    0  501 -0.00000000000E+00  0.00000000000E+00  0.34373845119E+03  0.34373845119E+03  0.00000000000E+00 0.  1.
          1   -1    0    0  501    0  0.00000000000E+00 -0.00000000000E+00 -0.12832766110E+04  0.12832766110E+04  0.00000000000E+00 0. -1.
        -24    2    1    2    0    0  0.13397606256E+03 -0.14865006911E+03 -0.60235790844E+03  0.63871421820E+03  0.71234642456E+02 0.  0.
        254    2    1    2    0    0 -0.13397606256E+03  0.14865006911E+03 -0.33718025140E+03  0.98830084403E+03  0.90719436064E+03 0.  0.
         23    2    4    4    0    0 -0.38762026279E+03 -0.21968496665E+03 -0.65938749804E+02  0.45764606886E+03  0.81123689048E+02 0.  0.
         23    2    4    4    0    0  0.25364420023E+03  0.36833503576E+03 -0.27124150160E+03  0.53065477516E+03  0.89534682318E+02 0.  0.
          3    1    3    3  502    0  0.13675509944E+03 -0.12683281940E+03 -0.49160005107E+03  0.52579381083E+03  0.00000000000E+00 0. -1.
         -4    1    3    3    0  502 -0.27790368734E+01 -0.21817249707E+02 -0.11075785737E+03  0.11292040737E+03  0.00000000000E+00 0.  1.
         13    1    5    5    0    0 -0.28207383359E+03 -0.16464338789E+03 -0.11654358437E+02  0.32681633503E+03  0.00000000000E+00 0. -1.
        -13    1    5    5    0    0 -0.10554642919E+03 -0.55041578763E+02 -0.54284391367E+02  0.13082973383E+03  0.00000000000E+00 0.  1.
          1    1    6    6  503    0  0.24671188307E+03  0.34526153347E+03 -0.22943494049E+03  0.48240301788E+03  0.00000000000E+00 0. -1.
         -1    1    6    6    0  503  0.69323171555E+01  0.23073502289E+02 -0.41806561112E+02  0.48251757284E+02  0.00000000000E+00 0.  1.
<mgrwt>
<rscale>  0 0.13283245E+04</rscale>
<asrwt>0</asrwt>
<pdfrwt beam="1">  1        1 0.19742717E+00 0.13283245E+04</pdfrwt>
<pdfrwt beam="2">  1       -2 0.52882838E-01 0.13283245E+04</pdfrwt>
<totfact> 0.26969200E+01</totfact>
</mgrwt>
</event>
<event>
12    5  0.5041746E-008  0.1707926E+04  0.7818608E-02  0.8756857E-01
          1   -1    0    0  501    0  0.00000000000E+00  0.00000000000E+00  0.23400034219E+04  0.23400034219E+04  0.00000000000E+00 0. -1.
         -2   -1    0    0    0  501 -0.00000000000E+00 -0.00000000000E+00 -0.31164605202E+03  0.31164605202E+03  0.00000000000E+00 0.  1.
        -24    2    1    2    0    0  0.34326710975E+03  0.11070860692E+02 -0.26423770992E+02  0.35442516350E+03  0.83451232799E+02 0.  0.
        254    2    1    2    0    0 -0.34326710975E+03 -0.11070860692E+02  0.20547811409E+04  0.22972243104E+04  0.96806979238E+03 0.  0.
         23    2    4    4    0    0 -0.38257953402E+03 -0.42187971893E+03  0.14308611252E+04  0.15427667083E+04  0.91738537801E+02 0.  0.
         23    2    4    4    0    0  0.39312424277E+02  0.41080885824E+03  0.62392001561E+03  0.75445760214E+03  0.98085181504E+02 0.  0.
          3    1    3    3  502    0  0.12341480400E+03 -0.23757131737E+02  0.19384364926E+02  0.12716669673E+03  0.00000000000E+00 0. -1.
         -4    1    3    3    0  502  0.21985230575E+03  0.34827992429E+02 -0.45808135918E+02  0.22725846676E+03  0.00000000000E+00 0.  1.
         13    1    5    5    0    0 -0.34410110698E+03 -0.38456080601E+03  0.13544996487E+04  0.14494695180E+04  0.00000000000E+00 0. -1.
        -13    1    5    5    0    0 -0.38478427040E+02 -0.37318912921E+02  0.76361476569E+02  0.93297190273E+02  0.00000000000E+00 0.  1.
          4    1    6    6  503    0  0.42332110917E+02  0.41118660598E+03  0.62642480437E+03  0.75051613446E+03  0.00000000000E+00 0. -1.
         -4    1    6    6    0  503 -0.30196866402E+01 -0.37774774481E+00 -0.25047887546E+01  0.39414676795E+01  0.00000000000E+00 0.  1.
<mgrwt>
<rscale>  0 0.17079260E+04</rscale>
<asrwt>0</asrwt>
<pdfrwt beam="1">  1        1 0.36000052E+00 0.17079260E+04</pdfrwt>
<pdfrwt beam="2">  1       -2 0.47945548E-01 0.17079260E+04</pdfrwt>
<totfact> 0.60194801E+00</totfact>
</mgrwt>
</event>
<event>
12    5  0.5041746E-008  0.1287204E+04  0.7818608E-02  0.9039774E-01
          1   -1    0    0  501    0  0.00000000000E+00  0.00000000000E+00  0.23721964054E+04  0.23721964054E+04  0.00000000000E+00 0. -1.
         -2   -1    0    0    0  501 -0.00000000000E+00 -0.00000000000E+00 -0.17461611432E+03  0.17461611432E+03  0.00000000000E+00 0.  1.
        -24    2    1    2    0    0 -0.49060671212E+02  0.31896119144E+03  0.53938739669E+03  0.63341482487E+03  0.78309549614E+02 0.  0.
        254    2    1    2    0    0  0.49060671212E+02 -0.31896119144E+03  0.16581928944E+04  0.19133976949E+04  0.89852316193E+03 0.  0.
         23    2    4    4    0    0  0.43964849427E+03 -0.15107507454E+03  0.57344828500E+03  0.74450242469E+03  0.96573537501E+02 0.  0.
         23    2    4    4    0    0 -0.39058782306E+03 -0.16788611690E+03  0.10847446094E+04  0.11688952702E+04  0.94343464010E+02 0.  0.
          1    1    3    3  502    0 -0.26108845288E+02  0.18726979697E+03  0.38688938407E+03  0.43062169496E+03  0.00000000000E+00 0. -1.
         -2    1    3    3    0  502 -0.22951825924E+02  0.13169139447E+03  0.15249801262E+03  0.20279312992E+03  0.00000000000E+00 0.  1.
         13    1    5    5    0    0  0.19814428486E+03 -0.18805123293E+02  0.22526549305E+03  0.30059829116E+03  0.00000000000E+00 0. -1.
        -13    1    5    5    0    0  0.24150420941E+03 -0.13226995125E+03  0.34818279194E+03  0.44390413354E+03  0.00000000000E+00 0.  1.
          2    1    6    6  503    0 -0.21833028162E+03 -0.44430630831E+02  0.59013600714E+03  0.63079529148E+03  0.00000000000E+00 0. -1.
         -2    1    6    6    0  503 -0.17225754144E+03 -0.12345548607E+03  0.49460860227E+03  0.53809997869E+03  0.00000000000E+00 0.  1.
<mgrwt>
<rscale>  0 0.12872043E+04</rscale>
<asrwt>0</asrwt>
<pdfrwt beam="1">  1        1 0.36495327E+00 0.12872043E+04</pdfrwt>
<pdfrwt beam="2">  1       -2 0.26864019E-01 0.12872043E+04</pdfrwt>
<totfact> 0.18104026E+01</totfact>
</mgrwt>
</event>
<event>
12    5  0.5041746E-008  0.1377783E+04  0.7818608E-02  0.8970059E-01
          1   -1    0    0  501    0  0.00000000000E+00  0.00000000000E+00  0.37768741819E+04  0.37768741819E+04  0.00000000000E+00 0. -1.
         -2   -1    0    0    0  501 -0.00000000000E+00 -0.00000000000E+00 -0.12565197167E+03  0.12565197167E+03  0.00000000000E+00 0.  1.
        -24    2    1    2    0    0 -0.28837319232E+02  0.37929736769E+02 -0.42691055320E+02  0.10010356367E+03  0.76993125295E+02 0.  0.
        254    2    1    2    0    0  0.28837319232E+02 -0.37929736769E+02  0.36939132655E+04  0.38024225899E+04  0.90063981861E+03 0.  0.
         23    2    4    4    0    0 -0.34160438262E+03 -0.27392917625E+03  0.20686369159E+04  0.21165057458E+04  0.92774643551E+02 0.  0.
         23    2    4    4    0    0  0.37044170185E+03  0.23599943948E+03  0.16252763497E+04  0.16859168441E+04  0.88710779926E+02 0.  0.
          3    1    3    3  502    0  0.16403240709E+02  0.19015642225E+02 -0.44431558469E+02  0.51037479787E+02  0.00000000000E+00 0. -1.
         -4    1    3    3    0  502 -0.45240559941E+02  0.18914094544E+02  0.17405031491E+01  0.49066083881E+02  0.00000000000E+00 0.  1.
         13    1    5    5    0    0 -0.30656822620E+03 -0.20436186808E+03  0.16434942929E+04  0.16842865972E+04  0.00000000000E+00 0. -1.
        -13    1    5    5    0    0 -0.35036156423E+02 -0.69567308173E+02  0.42514262291E+03  0.43221914863E+03  0.00000000000E+00 0.  1.
          2    1    6    6  503    0  0.35019447862E+03  0.19456441956E+03  0.14938148668E+04  0.15466008995E+04  0.00000000000E+00 0. -1.
         -2    1    6    6    0  503  0.20247223237E+02  0.41435019920E+02  0.13146148290E+03  0.13931594456E+03  0.00000000000E+00 0.  1.
<mgrwt>
<rscale>  0 0.13777833E+04</rscale>
<asrwt>0</asrwt>
<pdfrwt beam="1">  1        1 0.58105748E+00 0.13777833E+04</pdfrwt>
<pdfrwt beam="2">  1       -2 0.19331075E-01 0.13777833E+04</pdfrwt>
<totfact> 0.29586054E+00</totfact>
</mgrwt>
</event>
<event>
12    5  0.5041746E-008  0.1321296E+04  0.7818608E-02  0.9012846E-01
         -2   -1    0    0    0  501 -0.00000000000E+00  0.00000000000E+00  0.54948416890E+03  0.54948416890E+03  0.00000000000E+00 0.  1.
          1   -1    0    0  501    0  0.00000000000E+00 -0.00000000000E+00 -0.79430075695E+03  0.79430075695E+03  0.00000000000E+00 0. -1.
        -24    2    1    2    0    0 -0.14919747300E+03  0.21215717856E+03  0.17512184175E+03  0.32303368014E+03  0.80078365870E+02 0.  0.
        254    2    1    2    0    0  0.14919747300E+03 -0.21215717856E+03 -0.41993842980E+03  0.10207512457E+04  0.89348434034E+03 0.  0.
         23    2    4    4    0    0 -0.34515392850E+03 -0.14451749330E+03 -0.37742287650E+02  0.38586145167E+03  0.86302024192E+02 0.  0.
         23    2    4    4    0    0  0.49435140150E+03 -0.67639685253E+02 -0.38219614215E+03  0.63488979404E+03  0.89736972945E+02 0.  0.
          1    1    3    3  502    0 -0.11628435448E+02  0.57466451085E+02  0.12906163702E+02  0.60034844655E+02  0.00000000000E+00 0. -1.
         -2    1    3    3    0  502 -0.13756903756E+03  0.15469072747E+03  0.16221567805E+03  0.26299883548E+03  0.00000000000E+00 0.  1.
         13    1    5    5    0    0 -0.12087607222E+03 -0.61485508843E+02  0.26607735899E+02  0.13820081129E+03  0.00000000000E+00 0. -1.
        -13    1    5    5    0    0 -0.22427785628E+03 -0.83031984460E+02 -0.64350023549E+02  0.24766064038E+03  0.00000000000E+00 0.  1.
          2    1    6    6  503    0  0.17014020406E+03 -0.62122915913E+02 -0.16131951648E+03  0.24255088563E+03  0.00000000000E+00 0. -1.
         -2    1    6    6    0  503  0.32421119744E+03 -0.55167693404E+01 -0.22087662567E+03  0.39233890841E+03  0.00000000000E+00 0.  1.
<mgrwt>
<rscale>  0 0.13212959E+04</rscale>
<asrwt>0</asrwt>
<pdfrwt beam="1">  1        1 0.12220012E+00 0.13212959E+04</pdfrwt>
<pdfrwt beam="2">  1       -2 0.84536026E-01 0.13212959E+04</pdfrwt>
<totfact> 0.23452612E+01</totfact>
</mgrwt>
</event>
<event>
12    5  0.5041746E-008  0.1478653E+04  0.7818608E-02  0.8898774E-01
          1   -1    0    0  501    0  0.00000000000E+00  0.00000000000E+00  0.80593647410E+03  0.80593647410E+03  0.00000000000E+00 0. -1.
         -2   -1    0    0    0  501 -0.00000000000E+00 -0.00000000000E+00 -0.67822190532E+03  0.67822190532E+03  0.00000000000E+00 0.  1.
        -24    2    1    2    0    0 -0.63546885268E+02 -0.39575031498E+03  0.26882038899E+03  0.48907703391E+03  0.79217580908E+02 0.  0.
        254    2    1    2    0    0  0.63546885268E+02  0.39575031498E+03 -0.14110582021E+03  0.99508134551E+03  0.89978859365E+03 0.  0.
         23    2    4    4    0    0 -0.15932489811E+03 -0.15414862263E+03  0.19315249611E+03  0.30830728068E+03  0.92732257337E+02 0.  0.
         23    2    4    4    0    0  0.22287178337E+03  0.54989893761E+03 -0.33425831632E+03  0.68677406483E+03  0.88709191691E+02 0.  0.
          1    1    3    3  502    0 -0.28836772422E+02 -0.19970821232E+03  0.18253600339E+03  0.27209248804E+03  0.00000000000E+00 0. -1.
         -2    1    3    3    0  502 -0.34710112845E+02 -0.19604210266E+03  0.86284385603E+02  0.21698454588E+03  0.00000000000E+00 0.  1.
         13    1    5    5    0    0  0.56816944875E+01 -0.20772543084E+02  0.43903834789E+02  0.48901195360E+02  0.00000000000E+00 0. -1.
        -13    1    5    5    0    0 -0.16500659259E+03 -0.13337607955E+03  0.14924866132E+03  0.25940608532E+03  0.00000000000E+00 0.  1.
          1    1    6    6  503    0  0.50837113963E+02  0.51358051986E+02 -0.47347387342E+02  0.86393499454E+02  0.00000000000E+00 0. -1.
         -1    1    6    6    0  503  0.17203466941E+03  0.49854088563E+03 -0.28691092897E+03  0.60038056538E+03  0.00000000000E+00 0.  1.
<mgrwt>
<rscale>  0 0.14786531E+04</rscale>
<asrwt>0</asrwt>
<pdfrwt beam="1">  1        1 0.12399023E+00 0.14786531E+04</pdfrwt>
<pdfrwt beam="2">  1       -2 0.10434183E+00 0.14786531E+04</pdfrwt>
<totfact> 0.13840656E+01</totfact>
</mgrwt>
</event>
<event>
12    5  0.5041746E-008  0.2350786E+04  0.7818608E-02  0.8458162E-01
          1   -1    0    0  501    0  0.00000000000E+00  0.00000000000E+00  0.25391524150E+04  0.25391524150E+04  0.00000000000E+00 0. -1.
         -2   -1    0    0    0  501 -0.00000000000E+00 -0.00000000000E+00 -0.54409847952E+03  0.54409847952E+03  0.00000000000E+00 0.  1.
        -24    2    1    2    0    0  0.72455821053E+03 -0.67367227270E+03  0.99747301333E+03  0.14071483515E+04  0.79341914743E+02 0.  0.
        254    2    1    2    0    0 -0.72455821053E+03  0.67367227270E+03  0.99758092213E+03  0.16761025430E+04  0.91396559395E+03 0.  0.
         23    2    4    4    0    0 -0.42422108160E+03 -0.13245336544E+02  0.11161722545E+02  0.43396382746E+03  0.89783375259E+02 0.  0.
         23    2    4    4    0    0 -0.30033712892E+03  0.68691760925E+03  0.98641919958E+03  0.12421387155E+04  0.88473489702E+02 0.  0.
          1    1    3    3  502    0  0.71294439412E+02 -0.43153737579E+02  0.10479447470E+03  0.13389183726E+03  0.00000000000E+00 0. -1.
         -2    1    3    3    0  502  0.65326377111E+03 -0.63051853512E+03  0.89267853863E+03  0.12732565143E+04  0.00000000000E+00 0.  1.
         13    1    5    5    0    0 -0.12155928833E+03 -0.19345796174E+02  0.41086118458E+02  0.12976513222E+03  0.00000000000E+00 0.  1.
        -13    1    5    5    0    0 -0.30266179327E+03  0.61004596305E+01 -0.29924395913E+02  0.30419869524E+03  0.00000000000E+00 0. -1.
          1    1    6    6  503    0 -0.10144727509E+03  0.19438559167E+03  0.35208635966E+03  0.41477959512E+03  0.00000000000E+00 0. -1.
         -1    1    6    6    0  503 -0.19888985383E+03  0.49253201758E+03  0.63433283993E+03  0.82735912040E+03  0.00000000000E+00 0.  1.
<mgrwt>
<rscale>  0 0.23507862E+04</rscale>
<asrwt>0</asrwt>
<pdfrwt beam="1">  1        1 0.39063883E+00 0.23507862E+04</pdfrwt>
<pdfrwt beam="2">  1       -2 0.83707460E-01 0.23507862E+04</pdfrwt>
<totfact> 0.12556377E+00</totfact>
</mgrwt>
</event>
<event>
12    5  0.5041746E-008  0.2461388E+04  0.7818608E-02  0.8416872E-01
         -2   -1    0    0    0  501 -0.00000000000E+00  0.00000000000E+00  0.14539508841E+04  0.14539508841E+04  0.00000000000E+00 0.  1.
          1   -1    0    0  501    0  0.00000000000E+00 -0.00000000000E+00 -0.10417184032E+04  0.10417184032E+04  0.00000000000E+00 0. -1.
        -24    2    1    2    0    0  0.41991050143E+03  0.97259774698E+03  0.25582002223E+03  0.10925297769E+04  0.76851954712E+02 0.  0.
        254    2    1    2    0    0 -0.41991050143E+03 -0.97259774698E+03  0.15641245865E+03  0.14031395105E+04  0.90667768363E+03 0.  0.
         23    2    4    4    0    0 -0.21616198528E+03 -0.10872874738E+04  0.24563803075E+03  0.11385879809E+04  0.84406714734E+02 0.  0.
         23    2    4    4    0    0 -0.20374851615E+03  0.11468972683E+03 -0.89225572097E+02  0.26455152958E+03  0.85785300696E+02 0.  0.
          3    1    3    3  502    0  0.35695328186E+03  0.82003593401E+03  0.24411181768E+03  0.92707343724E+03  0.00000000000E+00 0. -1.
         -4    1    3    3    0  502  0.62957219569E+02  0.15256181297E+03  0.11708204547E+02  0.16545633964E+03  0.00000000000E+00 0.  1.
         13    1    5    5    0    0  0.42447753540E+00 -0.71150069588E+02  0.75538324494E+00  0.71155345459E+02  0.00000000000E+00 0.  1.
        -13    1    5    5    0    0 -0.21658646282E+03 -0.10161374042E+04  0.24488264750E+03  0.10674326354E+04  0.00000000000E+00 0. -1.
          4    1    6    6  503    0 -0.15604291092E+03  0.11812802078E+03 -0.48256782861E+02  0.20157464234E+03  0.00000000000E+00 0. -1.
         -4    1    6    6    0  503 -0.47705605224E+02 -0.34382939500E+01 -0.40968789236E+02  0.62976887241E+02  0.00000000000E+00 0.  1.
<mgrwt>
<rscale>  0 0.24613877E+04</rscale>
<asrwt>0</asrwt>
<pdfrwt beam="1">  1        1 0.16026437E+00 0.24613877E+04</pdfrwt>
<pdfrwt beam="2">  1       -2 0.22368475E+00 0.24613877E+04</pdfrwt>
<totfact> 0.10284033E+00</totfact>
</mgrwt>
</event>
<event>
12    5  0.5041746E-008  0.1479916E+04  0.7818608E-02  0.8897919E-01
         -2   -1    0    0    0  501 -0.00000000000E+00  0.00000000000E+00  0.10846882833E+04  0.10846882833E+04  0.00000000000E+00 0.  1.
          1   -1    0    0  501    0  0.00000000000E+00 -0.00000000000E+00 -0.50478833185E+03  0.50478833185E+03  0.00000000000E+00 0. -1.
        -24    2    1    2    0    0 -0.14589994218E+03 -0.38719843189E+03 -0.35665644504E+02  0.42315982959E+03  0.81134360121E+02 0.  0.
        254    2    1    2    0    0  0.14589994218E+03  0.38719843189E+03  0.61556559596E+03  0.11663167856E+04  0.90009134124E+03 0.  0.
         23    2    4    4    0    0 -0.26251870783E+03  0.33817764733E+03  0.60241256514E+03  0.74470981480E+03  0.91714865273E+02 0.  0.
         23    2    4    4    0    0  0.40841865001E+03  0.49020784566E+02  0.13153030819E+02  0.42160697077E+03  0.91491008208E+02 0.  0.
          3    1    3    3  502    0 -0.46808928649E+02 -0.82953443673E+02 -0.39619510774E+02  0.10316033759E+03  0.00000000000E+00 0. -1.
         -4    1    3    3    0  502 -0.99091013535E+02 -0.30424498822E+03  0.39538662699E+01  0.31999949200E+03  0.00000000000E+00 0.  1.
         13    1    5    5    0    0 -0.19177718344E+03  0.17600985945E+03  0.33940909830E+03  0.42773414023E+03  0.00000000000E+00 0. -1.
        -13    1    5    5    0    0 -0.70741524384E+02  0.16216778788E+03  0.26300346684E+03  0.31697567457E+03  0.00000000000E+00 0.  1.
          3    1    6    6  503    0  0.13413932287E+03  0.58535076775E+02 -0.61568196168E+01  0.14648419567E+03  0.00000000000E+00 0. -1.
         -3    1    6    6    0  503  0.27427932715E+03 -0.95142922095E+01  0.19309850436E+02  0.27512277510E+03  0.00000000000E+00 0.  1.
<mgrwt>
<rscale>  0 0.14799162E+04</rscale>
<asrwt>0</asrwt>
<pdfrwt beam="1">  1        1 0.77659744E-01 0.14799162E+04</pdfrwt>
<pdfrwt beam="2">  1       -2 0.16687512E+00 0.14799162E+04</pdfrwt>
<totfact> 0.83099238E+00</totfact>
</mgrwt>
</event>
<event>
12    5  0.5041746E-008  0.2413066E+04  0.7818608E-02  0.8434628E-01
         -4   -1    0    0    0  501 -0.00000000000E+00  0.00000000000E+00  0.22075592251E+04  0.22075592251E+04  0.00000000000E+00 0.  1.
          3   -1    0    0  501    0  0.00000000000E+00 -0.00000000000E+00 -0.65942621945E+03  0.65942621945E+03  0.00000000000E+00 0. -1.
        -24    2    1    2    0    0 -0.54477072042E+03  0.18114127820E+03 -0.35840852857E+03  0.68152770610E+03  0.80224935933E+02 0.  0.
        254    2    1    2    0    0  0.54477072042E+03 -0.18114127820E+03  0.19065415342E+04  0.21854577384E+04  0.90096481858E+03 0.  0.
         23    2    4    4    0    0 -0.32786535026E+02 -0.19080445597E+03  0.28338915209E+02  0.21829882564E+03  0.96798687302E+02 0.  0.
         23    2    4    4    0    0  0.57755725544E+03  0.96631777710E+01  0.18782026190E+04  0.19671589128E+04  0.91669786967E+02 0.  0.
          1    1    3    3  502    0 -0.48630534746E+03  0.15497623784E+03 -0.34506074241E+03  0.61609856453E+03  0.00000000000E+00 0. -1.
         -2    1    3    3    0  502 -0.58465372956E+02  0.26165040356E+02 -0.13347786161E+02  0.65429141573E+02  0.00000000000E+00 0.  1.
         13    1    5    5    0    0  0.23036275505E+02 -0.18046877224E+02 -0.13123879287E+02  0.32071731700E+02  0.00000000000E+00 0.  1.
        -13    1    5    5    0    0 -0.55822810531E+02 -0.17275757874E+03  0.41462794497E+02  0.18622709394E+03  0.00000000000E+00 0. -1.
          1    1    6    6  503    0  0.16382151905E+03  0.50939296979E+01  0.40369084054E+03  0.43569454089E+03  0.00000000000E+00 0. -1.
         -1    1    6    6    0  503  0.41373573639E+03  0.45692480731E+01  0.14745117785E+04  0.15314643719E+04  0.00000000000E+00 0.  1.
<mgrwt>
<rscale>  0 0.24130665E+04</rscale>
<asrwt>0</asrwt>
<pdfrwt beam="1">  1        3 0.10145019E+00 0.24130665E+04</pdfrwt>
<pdfrwt beam="2">  1       -4 0.33962449E+00 0.24130665E+04</pdfrwt>
<totfact> 0.29963991E-02</totfact>
</mgrwt>
</event>
<event>
12    5  0.5041746E-008  0.1400343E+04  0.7818608E-02  0.8953571E-01
          1   -1    0    0  501    0  0.00000000000E+00  0.00000000000E+00  0.23444979342E+04  0.23444979342E+04  0.00000000000E+00 0. -1.
         -2   -1    0    0    0  501 -0.00000000000E+00 -0.00000000000E+00 -0.20910228906E+03  0.20910228906E+03  0.00000000000E+00 0.  1.
        -24    2    1    2    0    0  0.37095726205E+03  0.19124397435E+03  0.57396465282E+03  0.71410643236E+03  0.79555176248E+02 0.  0.
        254    2    1    2    0    0 -0.37095726205E+03 -0.19124397435E+03  0.15614309923E+04  0.18394937909E+04  0.87834339240E+03 0.  0.
         23    2    4    4    0    0 -0.43750052416E+03 -0.48365065482E+03  0.10208266177E+04  0.12149281656E+04  0.92945143565E+02 0.  0.
         23    2    4    4    0    0  0.66543262111E+02  0.29240668047E+03  0.54060437457E+03  0.62456562521E+03  0.88878894450E+02 0.  0.
          3    1    3    3  502    0  0.47918700925E+02  0.34145618531E+02  0.42298397402E+02  0.72465713175E+02  0.00000000000E+00 0. -1.
         -2    1    3    3    0  502  0.32303856112E+03  0.15709835582E+03  0.53166625541E+03  0.64164071919E+03  0.00000000000E+00 0.  1.
         13    1    5    5    0    0 -0.12521055668E+03 -0.20117946269E+03  0.39496532882E+03  0.46059577797E+03  0.00000000000E+00 0. -1.
        -13    1    5    5    0    0 -0.31228996748E+03 -0.28247119213E+03  0.62586128888E+03  0.75433238767E+03  0.00000000000E+00 0.  1.
          3    1    6    6  503    0  0.13269825633E+02  0.88571312528E+02  0.25051404568E+03  0.26604182520E+03  0.00000000000E+00 0. -1.
         -3    1    6    6    0  503  0.53273436478E+02  0.20383536794E+03  0.29009032890E+03  0.35852380001E+03  0.00000000000E+00 0.  1.
<mgrwt>
<rscale>  0 0.14003427E+04</rscale>
<asrwt>0</asrwt>
<pdfrwt beam="1">  1        1 0.36069197E+00 0.14003427E+04</pdfrwt>
<pdfrwt beam="2">  1       -2 0.32169585E-01 0.14003427E+04</pdfrwt>
<totfact> 0.13390533E+01</totfact>
</mgrwt>
</event>
<event>
12    5  0.5041746E-008  0.1161737E+04  0.7818608E-02  0.9147023E-01
          1   -1    0    0  501    0  0.00000000000E+00  0.00000000000E+00  0.23057961693E+04  0.23057961693E+04  0.00000000000E+00 0. -1.
         -2   -1    0    0    0  501 -0.00000000000E+00 -0.00000000000E+00 -0.14633047951E+03  0.14633047951E+03  0.00000000000E+00 0.  1.
        -24    2    1    2    0    0  0.21205026336E+03  0.41057386099E+02  0.37327050575E+03  0.43851117690E+03  0.79436507083E+02 0.  0.
        254    2    1    2    0    0 -0.21205026336E+03 -0.41057386099E+02  0.17861951840E+04  0.20136154719E+04  0.90415873057E+03 0.  0.
         23    2    4    4    0    0 -0.15889687723E+03  0.29975650516E+03  0.15415297449E+04  0.15809713692E+04  0.89745951612E+02 0.  0.
         23    2    4    4    0    0 -0.53153386132E+02 -0.34081389126E+03  0.24466543908E+03  0.43264410265E+03  0.91325525187E+02 0.  0.
          3    1    3    3  502    0  0.35271416258E+02  0.36226185855E+02  0.11356884537E+03  0.12431529264E+03  0.00000000000E+00 0. -1.
         -4    1    3    3    0  502  0.17677884710E+03  0.48312002434E+01  0.25970166038E+03  0.31419588426E+03  0.00000000000E+00 0.  1.
         13    1    5    5    0    0 -0.13774254551E+03  0.29818927930E+03  0.14754846748E+04  0.15116034139E+04  0.00000000000E+00 0.  1.
        -13    1    5    5    0    0 -0.21154331714E+02  0.15672258597E+01  0.66045070084E+02  0.69367955351E+02  0.00000000000E+00 0. -1.
          3    1    6    6  503    0 -0.29283600677E+02 -0.22191374288E+02  0.18140704224E+02  0.40976475095E+02  0.00000000000E+00 0. -1.
         -3    1    6    6    0  503 -0.23869785455E+02 -0.31862251697E+03  0.22652473485E+03  0.39166762756E+03  0.00000000000E+00 0.  1.
<mgrwt>
<rscale>  0 0.11617371E+04</rscale>
<asrwt>0</asrwt>
<pdfrwt beam="1">  1        1 0.35473785E+00 0.11617371E+04</pdfrwt>
<pdfrwt beam="2">  1       -2 0.22512383E-01 0.11617371E+04</pdfrwt>
<totfact> 0.27980619E+01</totfact>
</mgrwt>
</event>
<event>
12    5  0.5041746E-008  0.2898821E+04  0.7818608E-02  0.8273228E-01
          1   -1    0    0  501    0  0.00000000000E+00  0.00000000000E+00  0.69176210847E+03  0.69176210847E+03  0.00000000000E+00 0. -1.
         -2   -1    0    0    0  501 -0.00000000000E+00 -0.00000000000E+00 -0.30368697528E+04  0.30368697528E+04  0.00000000000E+00 0.  1.
        -24    2    1    2    0    0 -0.13427922837E+03  0.67215187374E+03 -0.24444367210E+04  0.25399659131E+04  0.79604674144E+02 0.  0.
        254    2    1    2    0    0  0.13427922837E+03 -0.67215187374E+03  0.99329076644E+02  0.11886659482E+04  0.96604421140E+03 0.  0.
         23    2    4    4    0    0  0.43711256597E+03 -0.28337541946E+03  0.34392390596E+03  0.63060013181E+03  0.89464235726E+02 0.  0.
         23    2    4    4    0    0 -0.30283333760E+03 -0.38877645429E+03 -0.24459482931E+03  0.55806581638E+03  0.93571700385E+02 0.  0.
          1    1    3    3  502    0 -0.66610681686E+02  0.26937153294E+03 -0.11279064411E+04  0.11615381808E+04  0.00000000000E+00 0. -1.
         -2    1    3    3    0  502 -0.67668546684E+02  0.40278034081E+03 -0.13165302799E+04  0.13784277322E+04  0.00000000000E+00 0.  1.
         13    1    5    5    0    0  0.23914860285E+03 -0.18058300685E+03  0.15041742471E+03  0.33530236841E+03  0.00000000000E+00 0. -1.
        -13    1    5    5    0    0  0.19796396312E+03 -0.10279241261E+03  0.19350648125E+03  0.29529776340E+03  0.00000000000E+00 0.  1.
          2    1    6    6  503    0 -0.11361088434E+03 -0.81808776323E+02 -0.52763224303E+02  0.14961305679E+03  0.00000000000E+00 0. -1.
         -2    1    6    6    0  503 -0.18922245326E+03 -0.30696767796E+03 -0.19183160501E+03  0.40845275959E+03  0.00000000000E+00 0.  1.
<mgrwt>
<rscale>  0 0.28988214E+04</rscale>
<asrwt>0</asrwt>
<pdfrwt beam="1">  1        1 0.10642494E+00 0.28988214E+04</pdfrwt>
<pdfrwt beam="2">  1       -2 0.46721073E+00 0.28988214E+04</pdfrwt>
<totfact> 0.55730334E-02</totfact>
</mgrwt>
</event>
<event>
12    5  0.5041746E-008  0.1664762E+04  0.7818608E-02  0.8781721E-01
         -2   -1    0    0    0  501 -0.00000000000E+00  0.00000000000E+00  0.44175003254E+03  0.44175003254E+03  0.00000000000E+00 0.  1.
          1   -1    0    0  501    0  0.00000000000E+00 -0.00000000000E+00 -0.15684399863E+04  0.15684399863E+04  0.00000000000E+00 0. -1.
        -24    2    1    2    0    0  0.97322826591E+02 -0.51402343292E+03 -0.80740474526E+02  0.53593535509E+03  0.83760721368E+02 0.  0.
        254    2    1    2    0    0 -0.97322826591E+02  0.51402343292E+03 -0.10459494793E+04  0.14742546638E+04  0.89762167885E+03 0.  0.
         23    2    4    4    0    0 -0.13508530701E+03  0.50548734457E+02  0.12458237832E+03  0.21151290952E+03  0.91726371237E+02 0.  0.
         23    2    4    4    0    0  0.37762480415E+02  0.46347469846E+03 -0.11705318576E+04  0.12627417543E+04  0.90205916061E+02 0.  0.
          3    1    3    3  502    0  0.63491833472E+02 -0.14782431690E+03 -0.82052120074E+01  0.16109179709E+03  0.00000000000E+00 0. -1.
         -4    1    3    3    0  502  0.33830993119E+02 -0.36619911601E+03 -0.72535262519E+02  0.37484355800E+03  0.00000000000E+00 0.  1.
         13    1    5    5    0    0 -0.90241277223E+02  0.55186854789E+02  0.12829279559E+03  0.16627723373E+03  0.00000000000E+00 0.  1.
        -13    1    5    5    0    0 -0.44844029784E+02 -0.46381203326E+01 -0.37104172721E+01  0.45235675786E+02  0.00000000000E+00 0. -1.
          3    1    6    6  503    0 -0.70763073494E+01  0.42001166385E+02 -0.56155827061E+02  0.70481550893E+02  0.00000000000E+00 0. -1.
         -3    1    6    6    0  503  0.44838787765E+02  0.42147353208E+03 -0.11143760305E+04  0.11922602034E+04  0.00000000000E+00 0.  1.
<mgrwt>
<rscale>  0 0.16647623E+04</rscale>
<asrwt>0</asrwt>
<pdfrwt beam="1">  1        1 0.24129846E+00 0.16647623E+04</pdfrwt>
<pdfrwt beam="2">  1       -2 0.67961543E-01 0.16647623E+04</pdfrwt>
<totfact> 0.97414366E+00</totfact>
</mgrwt>
</event>
<event>
12    5  0.5041746E-008  0.1718071E+04  0.7818608E-02  0.8751124E-01
         -2   -1    0    0    0  501 -0.00000000000E+00  0.00000000000E+00  0.40175483465E+03  0.40175483465E+03  0.00000000000E+00 0.  1.
          1   -1    0    0  501    0  0.00000000000E+00 -0.00000000000E+00 -0.18367977444E+04  0.18367977444E+04  0.00000000000E+00 0. -1.
        -24    2    1    2    0    0 -0.56244130261E+02 -0.54891339195E+03 -0.16379635425E+03  0.58078802737E+03  0.77563993077E+02 0.  0.
        254    2    1    2    0    0  0.56244130261E+02  0.54891339195E+03 -0.12712465555E+04  0.16577645517E+04  0.90975061961E+03 0.  0.
         23    2    4    4    0    0 -0.11896751061E+03  0.74114548398E+03 -0.10938573798E+04  0.13297216538E+04  0.90475479672E+02 0.  0.
         23    2    4    4    0    0  0.17521164087E+03 -0.19223209203E+03 -0.17738917574E+03  0.32804289784E+03  0.92157077058E+02 0.  0.
          1    1    3    3  502    0  0.85814731633E+00 -0.30516120396E+02 -0.29023630222E+02  0.42122928817E+02  0.00000000000E+00 0. -1.
         -2    1    3    3    0  502 -0.57102277577E+02 -0.51839727155E+03 -0.13477272402E+03  0.53866509855E+03  0.00000000000E+00 0.  1.
         13    1    5    5    0    0 -0.11571907648E+03  0.62609564258E+03 -0.87103676552E+03  0.10789308158E+04  0.00000000000E+00 0.  1.
        -13    1    5    5    0    0 -0.32484341241E+01  0.11504984140E+03 -0.22282061424E+03  0.25079083807E+03  0.00000000000E+00 0. -1.
          3    1    6    6  503    0  0.65104948182E+01 -0.67788675983E+01  0.10982893310E+02  0.14455571042E+02  0.00000000000E+00 0. -1.
         -3    1    6    6    0  503  0.16870114605E+03 -0.18545322443E+03 -0.18837206905E+03  0.31358732680E+03  0.00000000000E+00 0.  1.
<mgrwt>
<rscale>  0 0.17180714E+04</rscale>
<asrwt>0</asrwt>
<pdfrwt beam="1">  1        1 0.28258427E+00 0.17180714E+04</pdfrwt>
<pdfrwt beam="2">  1       -2 0.61808437E-01 0.17180714E+04</pdfrwt>
<totfact> 0.78015757E+00</totfact>
</mgrwt>
</event>
<event>
12    5  0.5041746E-008  0.3019256E+04  0.7818608E-02  0.8238254E-01
          1   -1    0    0  501    0  0.00000000000E+00  0.00000000000E+00  0.19187770068E+04  0.19187770068E+04  0.00000000000E+00 0. -1.
         -2   -1    0    0    0  501 -0.00000000000E+00 -0.00000000000E+00 -0.11877234873E+04  0.11877234873E+04  0.00000000000E+00 0.  1.
        -24    2    1    2    0    0 -0.73370022553E+03  0.10897398231E+04 -0.73421798211E+02  0.13181800388E+04  0.79743033382E+02 0.  0.
        254    2    1    2    0    0  0.73370022553E+03 -0.10897398231E+04  0.80447531773E+03  0.17883204553E+04  0.90832847087E+03 0.  0.
         23    2    4    4    0    0  0.53539700244E+03 -0.10171887392E+04  0.23822676420E+03  0.11774607090E+04  0.91317296443E+02 0.  0.
         23    2    4    4    0    0  0.19830322309E+03 -0.72551083915E+02  0.56624855353E+03  0.61085974633E+03  0.89018971247E+02 0.  0.
          1    1    3    3  502    0 -0.64391023542E+03  0.97911542217E+03 -0.86749685027E+02  0.11750799586E+04  0.00000000000E+00 0. -1.
         -2    1    3    3    0  502 -0.89789990107E+02  0.11062440092E+03  0.13327886816E+02  0.14310008026E+03  0.00000000000E+00 0.  1.
         13    1    5    5    0    0  0.40879450397E+03 -0.79486409907E+03  0.14696169604E+03  0.90582538194E+03  0.00000000000E+00 0.  1.
        -13    1    5    5    0    0  0.12660249847E+03 -0.22232464011E+03  0.91265068157E+02  0.27163532702E+03  0.00000000000E+00 0. -1.
          3    1    6    6  503    0  0.18062781710E+02 -0.34443674343E+02  0.16214744240E+03  0.16674658576E+03  0.00000000000E+00 0. -1.
         -3    1    6    6    0  503  0.18024044138E+03 -0.38107409573E+02  0.40410111113E+03  0.44411316057E+03  0.00000000000E+00 0.  1.
<mgrwt>
<rscale>  0 0.30192559E+04</rscale>
<asrwt>0</asrwt>
<pdfrwt beam="1">  1        1 0.29519646E+00 0.30192559E+04</pdfrwt>
<pdfrwt beam="2">  1       -2 0.18272669E+00 0.30192559E+04</pdfrwt>
<totfact> 0.43882713E-01</totfact>
</mgrwt>
</event>
<event>
12    5  0.5041746E-008  0.1942696E+04  0.7818608E-02  0.8633891E-01
          1   -1    0    0  501    0  0.00000000000E+00  0.00000000000E+00  0.10524249425E+04  0.10524249425E+04  0.00000000000E+00 0. -1.
         -2   -1    0    0    0  501 -0.00000000000E+00 -0.00000000000E+00 -0.89651746351E+03  0.89651746351E+03  0.00000000000E+00 0.  1.
        -24    2    1    2    0    0 -0.62239371494E+03 -0.18093920900E+02  0.52813692757E+03  0.82042818211E+03  0.80451608815E+02 0.  0.
        254    2    1    2    0    0  0.62239371494E+03  0.18093920900E+02 -0.37222944863E+03  0.11285142239E+04  0.86445836491E+03 0.  0.
         23    2    4    4    0    0  0.10100997461E+03  0.18960106193E+03 -0.50492128152E+03  0.55631975191E+03  0.91621985251E+02 0.  0.
         23    2    4    4    0    0  0.52138374033E+03 -0.17150714103E+03  0.13269183289E+03  0.57219447195E+03  0.92432067530E+02 0.  0.
          3    1    3    3  502    0 -0.30729366835E+03  0.27507690823E+02  0.28221413290E+03  0.41812783747E+03  0.00000000000E+00 0. -1.
         -4    1    3    3    0  502 -0.31510004659E+03 -0.45601611723E+02  0.24592279467E+03  0.40230034463E+03  0.00000000000E+00 0.  1.
         13    1    5    5    0    0  0.94163946002E+02  0.18929706603E+03 -0.41139777732E+03  0.46254552113E+03  0.00000000000E+00 0.  1.
        -13    1    5    5    0    0  0.68460286069E+01  0.30399590442E+00 -0.93523504204E+02  0.93774230787E+02  0.00000000000E+00 0. -1.
          1    1    6    6  503    0  0.56976672324E+02  0.74740205880E+01  0.14702458252E+01  0.57483595883E+02  0.00000000000E+00 0. -1.
         -1    1    6    6    0  503  0.46440706800E+03 -0.17898116162E+03  0.13122158706E+03  0.51471087606E+03  0.00000000000E+00 0.  1.
<mgrwt>
<rscale>  0 0.19426964E+04</rscale>
<asrwt>0</asrwt>
<pdfrwt beam="1">  1        1 0.16191153E+00 0.19426964E+04</pdfrwt>
<pdfrwt beam="2">  1       -2 0.13792576E+00 0.19426964E+04</pdfrwt>
<totfact> 0.42049321E+00</totfact>
</mgrwt>
</event>
<event>
12    5  0.5041746E-008  0.2003700E+04  0.7818608E-02  0.8604893E-01
         -4   -1    0    0    0  501 -0.00000000000E+00  0.00000000000E+00  0.10284605502E+04  0.10284605502E+04  0.00000000000E+00 0.  1.
          3   -1    0    0  501    0  0.00000000000E+00 -0.00000000000E+00 -0.97592755459E+03  0.97592755459E+03  0.00000000000E+00 0. -1.
        -24    2    1    2    0    0  0.34601355458E+03  0.60882233820E+03 -0.35812513150E+03  0.78953403928E+03  0.68704948292E+02 0.  0.
        254    2    1    2    0    0 -0.34601355458E+03 -0.60882233820E+03  0.41065812710E+03  0.12148540655E+04  0.90379216840E+03 0.  0.
         23    2    4    4    0    0 -0.27519026945E+03 -0.33246406921E+03 -0.23748171319E+03  0.50070078635E+03  0.89675368047E+02 0.  0.
         23    2    4    4    0    0 -0.70823285130E+02 -0.27635826900E+03  0.64813984029E+03  0.71415327915E+03  0.92411162674E+02 0.  0.
          1    1    3    3  502    0  0.33235014578E+03  0.56639501008E+03 -0.35025824941E+03  0.74427197187E+03  0.00000000000E+00 0. -1.
         -2    1    3    3    0  502  0.13663408799E+02  0.42427328129E+02 -0.78668820991E+01  0.45262067409E+02  0.00000000000E+00 0.  1.
         13    1    5    5    0    0 -0.17125914603E+02  0.24112574643E+01 -0.40494644904E+01  0.17762580787E+02  0.00000000000E+00 0. -1.
        -13    1    5    5    0    0 -0.25806435485E+03 -0.33487532667E+03 -0.23343224870E+03  0.48293820556E+03  0.00000000000E+00 0.  1.
          3    1    6    6  503    0 -0.58601276767E+02 -0.12271273103E+03  0.21488856778E+03  0.25430222287E+03  0.00000000000E+00 0. -1.
         -3    1    6    6    0  503 -0.12222008363E+02 -0.15364553797E+03  0.43325127251E+03  0.45985105628E+03  0.00000000000E+00 0.  1.
<mgrwt>
<rscale>  0 0.20036996E+04</rscale>
<asrwt>0</asrwt>
<pdfrwt beam="1">  1        3 0.15014270E+00 0.20036996E+04</pdfrwt>
<pdfrwt beam="2">  1       -4 0.15822470E+00 0.20036996E+04</pdfrwt>
<totfact> 0.17683864E-01</totfact>
</mgrwt>
</event>
<event>
12    5  0.5041746E-008  0.1406113E+04  0.7818608E-02  0.8949405E-01
          1   -1    0    0  501    0  0.00000000000E+00  0.00000000000E+00  0.15454082977E+04  0.15454082977E+04  0.00000000000E+00 0. -1.
         -2   -1    0    0    0  501 -0.00000000000E+00 -0.00000000000E+00 -0.31984331408E+03  0.31984331408E+03  0.00000000000E+00 0.  1.
        -24    2    1    2    0    0 -0.98983009440E+02 -0.25794595335E+03 -0.41299200734E+02  0.29060715333E+03  0.80082098998E+02 0.  0.
        254    2    1    2    0    0  0.98983009440E+02  0.25794595335E+03  0.12668641843E+04  0.15746444584E+04  0.89343525671E+03 0.  0.
         23    2    4    4    0    0  0.30836590382E+03 -0.20997983235E+03  0.34927897474E+03  0.51967650472E+03  0.94269861170E+02 0.  0.
         23    2    4    4    0    0 -0.20938289438E+03  0.46792578569E+03  0.91758520958E+03  0.10549679537E+04  0.90548490554E+02 0.  0.
          1    1    3    3  502    0 -0.32279595457E+02 -0.21670889369E+02 -0.21179799347E+02  0.44273961075E+02  0.00000000000E+00 0. -1.
         -2    1    3    3    0  502 -0.66703413983E+02 -0.23627506398E+03 -0.20119401387E+02  0.24633319225E+03  0.00000000000E+00 0.  1.
         13    1    5    5    0    0  0.13273260823E+03 -0.13457030553E+03  0.21392577659E+03  0.28546689880E+03  0.00000000000E+00 0.  1.
        -13    1    5    5    0    0  0.17563329559E+03 -0.75409526817E+02  0.13535319815E+03  0.23420960592E+03  0.00000000000E+00 0. -1.
          1    1    6    6  503    0 -0.81308130301E+02  0.11339144731E+03  0.30986048600E+03  0.33982665163E+03  0.00000000000E+00 0. -1.
         -1    1    6    6    0  503 -0.12807476408E+03  0.35453433839E+03  0.60772472358E+03  0.71514130208E+03  0.00000000000E+00 0.  1.
<mgrwt>
<rscale>  0 0.14061131E+04</rscale>
<asrwt>0</asrwt>
<pdfrwt beam="1">  1        1 0.23775512E+00 0.14061131E+04</pdfrwt>
<pdfrwt beam="2">  1       -2 0.49206665E-01 0.14061131E+04</pdfrwt>
<totfact> 0.20346005E+01</totfact>
</mgrwt>
</event>
<event>
12    5  0.5041746E-008  0.2850936E+04  0.7818608E-02  0.8287627E-01
          1   -1    0    0  501    0  0.00000000000E+00  0.00000000000E+00  0.85835178429E+03  0.85835178429E+03  0.00000000000E+00 0. -1.
         -2   -1    0    0    0  501 -0.00000000000E+00 -0.00000000000E+00 -0.23672796723E+04  0.23672796723E+04  0.00000000000E+00 0.  1.
        -24    2    1    2    0    0 -0.16762516575E+03  0.76776717337E+03  0.46333143244E+03  0.91592853037E+03  0.81758349730E+02 0.  0.
        254    2    1    2    0    0  0.16762516575E+03 -0.76776717337E+03 -0.19722593204E+04  0.23097029262E+04  0.90959120027E+03 0.  0.
         23    2    4    4    0    0  0.41926585281E+03 -0.79689806668E+03 -0.17020942805E+04  0.19277865451E+04  0.91682277224E+02 0.  0.
         23    2    4    4    0    0 -0.25164068706E+03  0.29130893301E+02 -0.27016503992E+03  0.38191638105E+03  0.93270193471E+02 0.  0.
          3    1    3    3  502    0 -0.11036129213E+03  0.44520212852E+03  0.22561997160E+03  0.51116428046E+03  0.00000000000E+00 0. -1.
         -4    1    3    3    0  502 -0.57263873620E+02  0.32256504485E+03  0.23771146084E+03  0.40476424990E+03  0.00000000000E+00 0.  1.
         13    1    5    5    0    0  0.37742237973E+03 -0.74115572672E+03 -0.16115778692E+04  0.18135442351E+04  0.00000000000E+00 0. -1.
        -13    1    5    5    0    0  0.41843473077E+02 -0.55742339952E+02 -0.90516411249E+02  0.11424231006E+03  0.00000000000E+00 0.  1.
          3    1    6    6  503    0 -0.19515249376E+03  0.19501526677E+02 -0.25670894026E+03  0.32305461671E+03  0.00000000000E+00 0. -1.
         -3    1    6    6    0  503 -0.56488193295E+02  0.96293666241E+01 -0.13456099656E+02  0.58861764341E+02  0.00000000000E+00 0.  1.
<mgrwt>
<rscale>  0 0.28509358E+04</rscale>
<asrwt>0</asrwt>
<pdfrwt beam="1">  1        1 0.13205412E+00 0.28509358E+04</pdfrwt>
<pdfrwt beam="2">  1       -2 0.36419687E+00 0.28509358E+04</pdfrwt>
<totfact> 0.18836776E-01</totfact>
</mgrwt>
</event>
<event>
12    5  0.5041746E-008  0.2319351E+04  0.7818608E-02  0.8470330E-01
          1   -1    0    0  501    0  0.00000000000E+00  0.00000000000E+00  0.14015866053E+04  0.14015866053E+04  0.00000000000E+00 0. -1.
         -2   -1    0    0    0  501 -0.00000000000E+00 -0.00000000000E+00 -0.95951803698E+03  0.95951803698E+03  0.00000000000E+00 0.  1.
        -24    2    1    2    0    0 -0.87727275329E+03 -0.24994912266E+03 -0.18686262794E+03  0.93450227760E+03  0.79339886178E+02 0.  0.
        254    2    1    2    0    0  0.87727275329E+03  0.24994912266E+03  0.62893119628E+03  0.14266023647E+04  0.89864220339E+03 0.  0.
         23    2    4    4    0    0  0.84077426700E+02  0.42321773626E+03  0.35155742742E+03  0.56352791457E+03  0.88254290330E+02 0.  0.
         23    2    4    4    0    0  0.79319532659E+03 -0.17326861359E+03  0.27737376886E+03  0.86307445012E+03  0.93704109959E+02 0.  0.
          1    1    3    3  502    0 -0.89325357948E+02 -0.26854297703E+02 -0.44316202920E+02  0.10326712313E+03  0.00000000000E+00 0. -1.
         -2    1    3    3    0  502 -0.78794739534E+03 -0.22309482496E+03 -0.14254642502E+03  0.83123515447E+03  0.00000000000E+00 0.  1.
         13    1    5    5    0    0  0.23634135852E+02  0.23960068736E+03  0.24183568421E+03  0.34124999622E+03  0.00000000000E+00 0. -1.
        -13    1    5    5    0    0  0.60443290848E+02  0.18361704890E+03  0.10972174321E+03  0.22227791836E+03  0.00000000000E+00 0.  1.
          1    1    6    6  503    0  0.25201091961E+03 -0.31973604588E+02  0.47908869523E+02  0.25850933208E+03  0.00000000000E+00 0. -1.
         -1    1    6    6    0  503  0.54118440698E+03 -0.14129500901E+03  0.22946489933E+03  0.60456511804E+03  0.00000000000E+00 0.  1.
<mgrwt>
<rscale>  0 0.23193513E+04</rscale>
<asrwt>0</asrwt>
<pdfrwt beam="1">  1        1 0.21562871E+00 0.23193513E+04</pdfrwt>
<pdfrwt beam="2">  1       -2 0.14761816E+00 0.23193513E+04</pdfrwt>
<totfact> 0.18974660E+00</totfact>
</mgrwt>
</event>
<event>
12    5  0.5041746E-008  0.1244213E+04  0.7818608E-02  0.9075014E-01
          1   -1    0    0  501    0  0.00000000000E+00  0.00000000000E+00  0.10832077461E+04  0.10832077461E+04  0.00000000000E+00 0. -1.
         -2   -1    0    0    0  501 -0.00000000000E+00 -0.00000000000E+00 -0.35728714762E+03  0.35728714762E+03  0.00000000000E+00 0.  1.
        -24    2    1    2    0    0 -0.11878782598E+03 -0.15232721752E+03 -0.71547248146E+02  0.22162433846E+03  0.81757017329E+02 0.  0.
        254    2    1    2    0    0  0.11878782598E+03  0.15232721752E+03  0.79746784662E+03  0.12188705552E+04  0.90131921939E+03 0.  0.
         23    2    4    4    0    0 -0.21219320737E+03 -0.28034744869E+03  0.24838948530E+03  0.43997138681E+03  0.90867131385E+02 0.  0.
         23    2    4    4    0    0  0.33098103335E+03  0.43267466621E+03  0.54907836133E+03  0.77889916843E+03  0.91875222378E+02 0.  0.
          3    1    3    3  502    0 -0.28308696502E+01 -0.19509549437E+02  0.15420421539E+02  0.25028498610E+02  0.00000000000E+00 0. -1.
         -4    1    3    3    0  502 -0.11595695633E+03 -0.13281766808E+03 -0.86967669685E+02  0.19659583985E+03  0.00000000000E+00 0.  1.
         13    1    5    5    0    0 -0.18860436668E+03 -0.28015711109E+03  0.22001141514E+03  0.40306902240E+03  0.00000000000E+00 0.  1.
        -13    1    5    5    0    0 -0.23588840691E+02 -0.19033760066E+00  0.28378070158E+02  0.36902364415E+02  0.00000000000E+00 0. -1.
          1    1    6    6  503    0  0.10285249096E+03  0.74962198537E+02  0.10835041681E+03  0.16714598090E+03  0.00000000000E+00 0. -1.
         -1    1    6    6    0  503  0.22812854239E+03  0.35771246767E+03  0.44072794451E+03  0.61175318753E+03  0.00000000000E+00 0.  1.
<mgrwt>
<rscale>  0 0.12442125E+04</rscale>
<asrwt>0</asrwt>
<pdfrwt beam="1">  1        1 0.16664734E+00 0.12442125E+04</pdfrwt>
<pdfrwt beam="2">  1       -2 0.54967254E-01 0.12442125E+04</pdfrwt>
<totfact> 0.35153200E+01</totfact>
</mgrwt>
</event>
<event>
12    5  0.5041746E-008  0.2342279E+04  0.7818608E-02  0.8461435E-01
         -2   -1    0    0    0  501 -0.00000000000E+00  0.00000000000E+00  0.86986603304E+03  0.86986603304E+03  0.00000000000E+00 0.  1.
          1   -1    0    0  501    0  0.00000000000E+00 -0.00000000000E+00 -0.15767578630E+04  0.15767578630E+04  0.00000000000E+00 0. -1.
        -24    2    1    2    0    0  0.13113251834E+03  0.90765995875E+03 -0.74586579715E+03  0.11847618333E+04  0.79388135828E+02 0.  0.
        254    2    1    2    0    0 -0.13113251834E+03 -0.90765995875E+03  0.38973967173E+02  0.12618620628E+04  0.86587213681E+03 0.  0.
         23    2    4    4    0    0 -0.25363849759E+03 -0.50326705038E+03  0.40116006681E+03  0.69793343318E+03  0.92582214780E+02 0.  0.
         23    2    4    4    0    0  0.12250597925E+03 -0.40439290837E+03 -0.36218609963E+03  0.56392862961E+03  0.91079027385E+02 0.  0.
          1    1    3    3  502    0  0.11958883573E+03  0.87667566010E+03 -0.69995554242E+03  0.11281841446E+04  0.00000000000E+00 0. -1.
         -2    1    3    3    0  502  0.11543682602E+02  0.30984298646E+02 -0.45910254721E+02  0.56577688705E+02  0.00000000000E+00 0.  1.
         13    1    5    5    0    0 -0.21013458562E+03 -0.47454226523E+03  0.36539304244E+03  0.63471173065E+03  0.00000000000E+00 0. -1.
        -13    1    5    5    0    0 -0.43503911969E+02 -0.28724785148E+02  0.35767024369E+02  0.63221702528E+02  0.00000000000E+00 0.  1.
          2    1    6    6  503    0  0.43842482788E+02 -0.19498010738E+03 -0.22749519552E+03  0.30280929569E+03  0.00000000000E+00 0. -1.
         -2    1    6    6    0  503  0.78663496463E+02 -0.20941280099E+03 -0.13469090411E+03  0.26111933391E+03  0.00000000000E+00 0.  1.
<mgrwt>
<rscale>  0 0.23422793E+04</rscale>
<asrwt>0</asrwt>
<pdfrwt beam="1">  1        1 0.24257813E+00 0.23422793E+04</pdfrwt>
<pdfrwt beam="2">  1       -2 0.13382554E+00 0.23422793E+04</pdfrwt>
<totfact> 0.18470762E+00</totfact>
</mgrwt>
</event>
<event>
12    5  0.5041746E-008  0.2340081E+04  0.7818608E-02  0.8462283E-01
         -4   -1    0    0    0  501 -0.00000000000E+00  0.00000000000E+00  0.88554421356E+03  0.88554421356E+03  0.00000000000E+00 0.  1.
          3   -1    0    0  501    0  0.00000000000E+00 -0.00000000000E+00 -0.15459365240E+04  0.15459365240E+04  0.00000000000E+00 0. -1.
        -24    2    1    2    0    0  0.66444152290E+02 -0.25858174138E+03 -0.12769893349E+04  0.13070108747E+04  0.79349370863E+02 0.  0.
        254    2    1    2    0    0 -0.66444152290E+02  0.25858174138E+03  0.61659702447E+03  0.11244698629E+04  0.90164363229E+03 0.  0.
         23    2    4    4    0    0 -0.40979835101E+03 -0.10354031549E+03  0.30014256566E+03  0.52625794632E+03  0.90590181171E+02 0.  0.
         23    2    4    4    0    0  0.34335419872E+03  0.36212205687E+03  0.31645445881E+03  0.59821191658E+03  0.93217931709E+02 0.  0.
          1    1    3    3  502    0  0.37348691096E+02 -0.14579512184E+03 -0.89804322561E+03  0.91056728326E+03  0.00000000000E+00 0. -1.
         -2    1    3    3    0  502  0.29095461194E+02 -0.11278661954E+03 -0.37894610933E+03  0.39644359142E+03  0.00000000000E+00 0.  1.
         13    1    5    5    0    0 -0.22169465047E+03 -0.34879991190E+02  0.10923701432E+03  0.24959538684E+03  0.00000000000E+00 0.  1.
        -13    1    5    5    0    0 -0.18810370054E+03 -0.68660324301E+02  0.19090555133E+03  0.27666255948E+03  0.00000000000E+00 0. -1.
          4    1    6    6  503    0  0.32036965871E+03  0.30664659058E+03  0.25179632232E+03  0.50997082041E+03  0.00000000000E+00 0. -1.
         -4    1    6    6    0  503  0.22984540011E+02  0.55475466295E+02  0.64658136492E+02  0.88241096179E+02  0.00000000000E+00 0.  1.
<mgrwt>
<rscale>  0 0.23400813E+04</rscale>
<asrwt>0</asrwt>
<pdfrwt beam="1">  1        3 0.23783639E+00 0.23400813E+04</pdfrwt>
<pdfrwt beam="2">  1       -4 0.13623757E+00 0.23400813E+04</pdfrwt>
<totfact> 0.68881119E-02</totfact>
</mgrwt>
</event>
<event>
12    5  0.5041746E-008  0.1357588E+04  0.7818608E-02  0.8985104E-01
         -2   -1    0    0    0  501 -0.00000000000E+00  0.00000000000E+00  0.27249277643E+03  0.27249277643E+03  0.00000000000E+00 0.  1.
          1   -1    0    0  501    0  0.00000000000E+00 -0.00000000000E+00 -0.16909107685E+04  0.16909107685E+04  0.00000000000E+00 0. -1.
        -24    2    1    2    0    0  0.16230646137E+03  0.27428717267E+03 -0.71478978452E+02  0.33626896024E+03  0.79942033787E+02 0.  0.
        254    2    1    2    0    0 -0.16230646137E+03 -0.27428717267E+03 -0.13469390136E+04  0.16271345847E+04  0.85542118855E+03 0.  0.
         23    2    4    4    0    0 -0.47054686169E+03 -0.20556079327E+02 -0.90767834316E+03  0.10266095294E+04  0.90610428519E+02 0.  0.
         23    2    4    4    0    0  0.30824040032E+03 -0.25373109334E+03 -0.43926067045E+03  0.60052505530E+03  0.91042810361E+02 0.  0.
          3    1    3    3  502    0  0.75565798649E+02  0.16113308610E+03 -0.76238521999E+02  0.19361398090E+03  0.00000000000E+00 0. -1.
         -4    1    3    3    0  502  0.86740662720E+02  0.11315408657E+03  0.47595435472E+01  0.14265497934E+03  0.00000000000E+00 0.  1.
         13    1    5    5    0    0 -0.40639760408E+03  0.90589652369E+01 -0.73277307095E+03  0.83797222565E+03  0.00000000000E+00 0. -1.
        -13    1    5    5    0    0 -0.64149257611E+02 -0.29615044564E+02 -0.17490527221E+03  0.18863730374E+03  0.00000000000E+00 0.  1.
          3    1    6    6  503    0  0.16768121301E+03 -0.16363708067E+03 -0.19591025867E+03  0.30540941836E+03  0.00000000000E+00 0. -1.
         -3    1    6    6    0  503  0.14055918731E+03 -0.90094012674E+02 -0.24335041177E+03  0.29511563694E+03  0.00000000000E+00 0.  1.
<mgrwt>
<rscale>  0 0.13575875E+04</rscale>
<asrwt>0</asrwt>
<pdfrwt beam="1">  1        1 0.26014012E+00 0.13575875E+04</pdfrwt>
<pdfrwt beam="2">  1       -2 0.41921965E-01 0.13575875E+04</pdfrwt>
<totfact> 0.22386646E+01</totfact>
</mgrwt>
</event>
<event>
12    5  0.5041746E-008  0.2097637E+04  0.7818608E-02  0.8562285E-01
          1   -1    0    0  501    0  0.00000000000E+00  0.00000000000E+00  0.20009752557E+04  0.20009752557E+04  0.00000000000E+00 0. -1.
         -2   -1    0    0    0  501 -0.00000000000E+00 -0.00000000000E+00 -0.54974228094E+03  0.54974228094E+03  0.00000000000E+00 0.  1.
        -24    2    1    2    0    0  0.19205601271E+03  0.76023392379E+02  0.16069201225E+04  0.16220691883E+04  0.79063920029E+02 0.  0.
        254    2    1    2    0    0 -0.19205601271E+03 -0.76023392379E+02 -0.15568714774E+03  0.92864834831E+03  0.89189920879E+03 0.  0.
         23    2    4    4    0    0 -0.75364007661E+02 -0.35138797710E+03 -0.38949497531E+03  0.53855026400E+03  0.95795652079E+02 0.  0.
         23    2    4    4    0    0 -0.11669200505E+03  0.27536458473E+03  0.23380782758E+03  0.39009808431E+03  0.89820579934E+02 0.  0.
          1    1    3    3  502    0  0.13736358253E+03  0.86745568844E+02  0.13020905723E+04  0.13121864982E+04  0.00000000000E+00 0. -1.
         -2    1    3    3    0  502  0.54692430178E+02 -0.10722176465E+02  0.30482955018E+03  0.30988269014E+03  0.00000000000E+00 0.  1.
         13    1    5    5    0    0  0.12692107670E+02 -0.15464309518E+03 -0.18467151032E+03  0.24120353067E+03  0.00000000000E+00 0. -1.
        -13    1    5    5    0    0 -0.88056115331E+02 -0.19674488193E+03 -0.20482346499E+03  0.29734673333E+03  0.00000000000E+00 0.  1.
          2    1    6    6  503    0 -0.12024093971E+03  0.18272686571E+03  0.17689829741E+03  0.28131832266E+03  0.00000000000E+00 0. -1.
         -2    1    6    6    0  503  0.35489346575E+01  0.92637719011E+02  0.56909530165E+02  0.10877976165E+03  0.00000000000E+00 0.  1.
<mgrwt>
<rscale>  0 0.20976374E+04</rscale>
<asrwt>0</asrwt>
<pdfrwt beam="1">  1        1 0.30784234E+00 0.20976374E+04</pdfrwt>
<pdfrwt beam="2">  1       -2 0.84575737E-01 0.20976374E+04</pdfrwt>
<totfact> 0.29296698E+00</totfact>
</mgrwt>
</event>
<event>
12    5  0.5041746E-008  0.1718544E+04  0.7818608E-02  0.8750858E-01
         -2   -1    0    0    0  501 -0.00000000000E+00  0.00000000000E+00  0.61828898700E+03  0.61828898700E+03  0.00000000000E+00 0.  1.
          1   -1    0    0  501    0  0.00000000000E+00 -0.00000000000E+00 -0.11941796688E+04  0.11941796688E+04  0.00000000000E+00 0. -1.
        -24    2    1    2    0    0 -0.46758156375E+03  0.27839490658E+03  0.97774744765E+02  0.55868630310E+03  0.80213725686E+02 0.  0.
        254    2    1    2    0    0  0.46758156375E+03 -0.27839490658E+03 -0.67366542653E+03  0.12537823527E+04  0.90664703065E+03 0.  0.
         23    2    4    4    0    0  0.26209352204E+03 -0.28073168610E+03 -0.86967689461E+03  0.95564709102E+03  0.97057548280E+02 0.  0.
         23    2    4    4    0    0  0.20548804171E+03  0.23367795198E+01  0.19601146808E+03  0.29813526165E+03  0.90737769420E+02 0.  0.
          1    1    3    3  502    0 -0.18815071762E+03  0.99914843477E+02  0.10966928061E+00  0.21303445852E+03  0.00000000000E+00 0. -1.
         -2    1    3    3    0  502 -0.27943084613E+03  0.17848006311E+03  0.97665075485E+02  0.34565184458E+03  0.00000000000E+00 0.  1.
         13    1    5    5    0    0  0.24351911799E+03 -0.20769196547E+03 -0.68042834463E+03  0.75194431012E+03  0.00000000000E+00 0. -1.
        -13    1    5    5    0    0  0.18574404049E+02 -0.73039720637E+02 -0.18924854998E+03  0.20370278090E+03  0.00000000000E+00 0.  1.
          1    1    6    6  503    0  0.17182577554E+03  0.37584656303E+02  0.15485531170E+03  0.23434348954E+03  0.00000000000E+00 0. -1.
         -1    1    6    6    0  503  0.33662266171E+02 -0.35247876783E+02  0.41156156378E+02  0.63791772113E+02  0.00000000000E+00 0.  1.
<mgrwt>
<rscale>  0 0.17185437E+04</rscale>
<asrwt>0</asrwt>
<pdfrwt beam="1">  1        1 0.18371995E+00 0.17185437E+04</pdfrwt>
<pdfrwt beam="2">  1       -2 0.95121384E-01 0.17185437E+04</pdfrwt>
<totfact> 0.83565736E+00</totfact>
</mgrwt>
</event>
<event>
12    5  0.5041746E-008  0.1479225E+04  0.7818608E-02  0.8898387E-01
          1   -1    0    0  501    0  0.00000000000E+00  0.00000000000E+00  0.33260602380E+03  0.33260602380E+03  0.00000000000E+00 0. -1.
         -4   -1    0    0    0  501 -0.00000000000E+00 -0.00000000000E+00 -0.16446677443E+04  0.16446677443E+04  0.00000000000E+00 0.  1.
        -24    2    1    2    0    0  0.46197842753E+02  0.12207878037E+03 -0.10075949532E+04  0.10192275637E+04  0.80868829584E+02 0.  0.
        254    2    1    2    0    0 -0.46197842753E+02 -0.12207878037E+03 -0.30446676724E+03  0.95804620433E+03  0.89895219450E+03 0.  0.
         23    2    4    4    0    0 -0.14977998476E+03  0.21731246193E+03  0.19329238860E+03  0.33983363520E+03  0.92011967567E+02 0.  0.
         23    2    4    4    0    0  0.10358214200E+03 -0.33939124230E+03 -0.49775915584E+03  0.61821256913E+03  0.92233008862E+02 0.  0.
          1    1    3    3  502    0  0.22233056782E+02 -0.60728195043E+01 -0.16684332377E+03  0.16842767776E+03  0.00000000000E+00 0. -1.
         -2    1    3    3    0  502  0.23964785971E+02  0.12815159987E+03 -0.84075162946E+03  0.85079988596E+03  0.00000000000E+00 0.  1.
         13    1    5    5    0    0 -0.25216517728E+02  0.84993900313E+02  0.10612505701E+03  0.13828363454E+03  0.00000000000E+00 0.  1.
        -13    1    5    5    0    0 -0.12456346703E+03  0.13231856162E+03  0.87167331588E+02  0.20155000065E+03  0.00000000000E+00 0. -1.
          1    1    6    6  503    0  0.93759246073E+02 -0.31356710135E+03 -0.40110796284E+03  0.51768979237E+03  0.00000000000E+00 0. -1.
         -1    1    6    6    0  503  0.98228959322E+01 -0.25824140953E+02 -0.96651192999E+02  0.10052277676E+03  0.00000000000E+00 0.  1.
<mgrwt>
<rscale>  0 0.14792247E+04</rscale>
<asrwt>0</asrwt>
<pdfrwt beam="1">  1        1 0.51170158E-01 0.14792247E+04</pdfrwt>
<pdfrwt beam="2">  1       -4 0.25302581E+00 0.14792247E+04</pdfrwt>
<totfact> 0.21340381E+00</totfact>
</mgrwt>
</event>
<event>
12    5  0.5041746E-008  0.2147704E+04  0.7818608E-02  0.8540516E-01
          1   -1    0    0  501    0  0.00000000000E+00  0.00000000000E+00  0.35471848309E+04  0.35471848309E+04  0.00000000000E+00 0. -1.
         -2   -1    0    0    0  501 -0.00000000000E+00 -0.00000000000E+00 -0.32509113621E+03  0.32509113621E+03  0.00000000000E+00 0.  1.
        -24    2    1    2    0    0  0.33758173091E+03 -0.69402546997E+03  0.56186091587E+03  0.95835255262E+03  0.84375045630E+02 0.  0.
        254    2    1    2    0    0 -0.33758173091E+03  0.69402546997E+03  0.26602327788E+04  0.29139234145E+04  0.90469798831E+03 0.  0.
         23    2    4    4    0    0 -0.44057748696E+03  0.58976145112E+03  0.10005444706E+04  0.12455091483E+04  0.90976423219E+02 0.  0.
         23    2    4    4    0    0  0.10299575606E+03  0.10426401884E+03  0.16596883082E+04  0.16684142662E+04  0.86958448886E+02 0.  0.
          1    1    3    3  502    0  0.26988563559E+03 -0.53535690810E+03  0.47678213778E+03  0.76600684217E+03  0.00000000000E+00 0. -1.
         -2    1    3    3    0  502  0.67696095317E+02 -0.15866856187E+03  0.85078778089E+02  0.19234571045E+03  0.00000000000E+00 0.  1.
         13    1    5    5    0    0 -0.39070881895E+03  0.46899814285E+03  0.80317944416E+03  0.10088160678E+04  0.00000000000E+00 0.  1.
        -13    1    5    5    0    0 -0.49868668010E+02  0.12076330827E+03  0.19736502642E+03  0.23669308044E+03  0.00000000000E+00 0. -1.
          1    1    6    6  503    0  0.29745348163E+02 -0.52494416399E+01  0.56829349368E+03  0.56909563110E+03  0.00000000000E+00 0. -1.
         -1    1    6    6    0  503  0.73250407893E+02  0.10951346048E+03  0.10913948145E+04  0.10993186351E+04  0.00000000000E+00 0.  1.
<mgrwt>
<rscale>  0 0.21477042E+04</rscale>
<asrwt>0</asrwt>
<pdfrwt beam="1">  1        1 0.54572072E+00 0.21477042E+04</pdfrwt>
<pdfrwt beam="2">  1       -2 0.50014023E-01 0.21477042E+04</pdfrwt>
<totfact> 0.70029024E-01</totfact>
</mgrwt>
</event>
<event>
12    5  0.5041746E-008  0.1915038E+04  0.7818608E-02  0.8647407E-01
          1   -1    0    0  501    0  0.00000000000E+00  0.00000000000E+00  0.12091122872E+04  0.12091122872E+04  0.00000000000E+00 0. -1.
         -2   -1    0    0    0  501 -0.00000000000E+00 -0.00000000000E+00 -0.75827711285E+03  0.75827711285E+03  0.00000000000E+00 0.  1.
        -24    2    1    2    0    0 -0.17896382324E+03 -0.24683687805E+03  0.87379213738E+03  0.92899394120E+03  0.80997216358E+02 0.  0.
        254    2    1    2    0    0  0.17896382324E+03  0.24683687805E+03 -0.42295696301E+03  0.10383954589E+04  0.89800670489E+03 0.  0.
         23    2    4    4    0    0  0.31714743287E+02 -0.10991999302E+03 -0.59016077601E+03  0.60786465865E+03  0.90119209326E+02 0.  0.
         23    2    4    4    0    0  0.14724907995E+03  0.35675687107E+03  0.16720381300E+03  0.43053080021E+03  0.91879803228E+02 0.  0.
          3    1    3    3  502    0 -0.17511081014E+03 -0.25269325449E+03  0.86298992978E+03  0.91611642033E+03  0.00000000000E+00 0. -1.
         -4    1    3    3    0  502 -0.38530131017E+01  0.58563764391E+01  0.10802207595E+02  0.12877520875E+02  0.00000000000E+00 0.  1.
         13    1    5    5    0    0  0.37454753266E+02 -0.10641949993E+03 -0.59045359223E+03  0.60113510385E+03  0.00000000000E+00 0.  1.
        -13    1    5    5    0    0 -0.57400099792E+01 -0.35004930917E+01  0.29281622001E+00  0.67295547985E+01  0.00000000000E+00 0. -1.
          1    1    6    6  503    0  0.43903115732E+02  0.15395808084E+03  0.11469240575E+03  0.19693887926E+03  0.00000000000E+00 0. -1.
         -1    1    6    6    0  503  0.10334596422E+03  0.20279879024E+03  0.52511407247E+02  0.23359192095E+03  0.00000000000E+00 0.  1.
<mgrwt>
<rscale>  0 0.19150375E+04</rscale>
<asrwt>0</asrwt>
<pdfrwt beam="1">  1        1 0.18601727E+00 0.19150375E+04</pdfrwt>
<pdfrwt beam="2">  1       -2 0.11665802E+00 0.19150375E+04</pdfrwt>
<totfact> 0.49108480E+00</totfact>
</mgrwt>
</event>
<event>
12    5  0.5041746E-008  0.1085966E+04  0.7818608E-02  0.9218979E-01
          1   -1    0    0  501    0  0.00000000000E+00  0.00000000000E+00  0.27184153472E+04  0.27184153472E+04  0.00000000000E+00 0. -1.
         -2   -1    0    0    0  501 -0.00000000000E+00 -0.00000000000E+00 -0.10845678924E+03  0.10845678924E+03  0.00000000000E+00 0.  1.
        -24    2    1    2    0    0 -0.21351587628E+02 -0.49061380466E+02  0.43951821408E+02  0.10575635434E+03  0.79935815070E+02 0.  0.
        254    2    1    2    0    0  0.21351587628E+02  0.49061380466E+02  0.25660067365E+04  0.27211157821E+04  0.90400089503E+03 0.  0.
         23    2    4    4    0    0 -0.12216765164E+03  0.51225499136E+02  0.95137752346E+01  0.15893534757E+03  0.87298029292E+02 0.  0.
         23    2    4    4    0    0  0.14351923926E+03 -0.21641186700E+01  0.25564929613E+04  0.25621804345E+04  0.92248915421E+02 0.  0.
          3    1    3    3  502    0 -0.27103513835E+00  0.13316697966E+02 -0.13064487175E+02  0.18657136166E+02  0.00000000000E+00 0. -1.
         -4    1    3    3    0  502 -0.21080552490E+02 -0.62378078432E+02  0.57016308583E+02  0.87099218175E+02  0.00000000000E+00 0.  1.
         13    1    5    5    0    0 -0.13180234693E+02  0.18569901278E+00 -0.29591566723E+02  0.32394658384E+02  0.00000000000E+00 0. -1.
        -13    1    5    5    0    0 -0.10898741694E+03  0.51039800123E+02  0.39105341958E+02  0.12654068918E+03  0.00000000000E+00 0.  1.
          1    1    6    6  503    0  0.97589269551E+01  0.31253153610E+02  0.47949337195E+03  0.48060991460E+03  0.00000000000E+00 0. -1.
         -1    1    6    6    0  503  0.13376031231E+03 -0.33417272280E+02  0.20769995893E+04  0.20815705199E+04  0.00000000000E+00 0.  1.
<mgrwt>
<rscale>  0 0.10859661E+04</rscale>
<asrwt>0</asrwt>
<pdfrwt beam="1">  1        1 0.41821770E+00 0.10859661E+04</pdfrwt>
<pdfrwt beam="2">  1       -2 0.16685662E-01 0.10859661E+04</pdfrwt>
<totfact> 0.24735245E+01</totfact>
</mgrwt>
</event>
<event>
12    5  0.5061101E-008  0.2687204E+04  0.7818608E-02  0.8339169E-01
         -2   -1    0    0    0  501 -0.00000000000E+00  0.00000000000E+00  0.88060913489E+03  0.88060913489E+03  0.00000000000E+00 0.  1.
          1   -1    0    0  501    0  0.00000000000E+00 -0.00000000000E+00 -0.20500196603E+04  0.20500196603E+04  0.00000000000E+00 0. -1.
        -24    2    1    2    0    0 -0.19400920905E+02 -0.14016792483E+03  0.77148883146E+03  0.78855619945E+03  0.81255275085E+02 0.  0.
        254    2    1    2    0    0  0.19400920905E+02  0.14016792483E+03 -0.19408993569E+04  0.21420725958E+04  0.89518782891E+03 0.  0.
         23    2    4    4    0    0 -0.12501601257E+03  0.31392767669E+03 -0.24127716872E+03  0.42519155472E+03  0.91616573100E+02 0.  0.
         23    2    4    4    0    0  0.14441693348E+03 -0.17375975187E+03 -0.16996221882E+04  0.17168810410E+04  0.88973167322E+02 0.  0.
          1    1    3    3  502    0 -0.30655631452E+02 -0.11126927151E+02  0.12247711260E+03  0.12674470150E+03  0.00000000000E+00 0. -1.
         -2    1    3    3    0  502  0.11254710547E+02 -0.12904099768E+03  0.64901171886E+03  0.66181149795E+03  0.00000000000E+00 0.  1.
         13    1    5    5    0    0  0.19035472754E+01  0.65110994142E+01 -0.30940226334E+02  0.31675156091E+02  0.00000000000E+00 0. -1.
        -13    1    5    5    0    0 -0.12691955985E+03  0.30741657728E+03 -0.21033694238E+03  0.39351639863E+03  0.00000000000E+00 0.  1.
          1    1    6    6  503    0  0.23850952096E+02  0.44470237131E+01 -0.27963810902E+03  0.28068864593E+03  0.00000000000E+00 0. -1.
         -1    1    6    6    0  503  0.12056598138E+03 -0.17820677558E+03 -0.14199840791E+04  0.14361923951E+04  0.00000000000E+00 0.  1.
<mgrwt>
<rscale>  0 0.26872038E+04</rscale>
<asrwt>0</asrwt>
<pdfrwt beam="1">  1        1 0.31538764E+00 0.26872038E+04</pdfrwt>
<pdfrwt beam="2">  1       -2 0.13547833E+00 0.26872038E+04</pdfrwt>
<totfact> 0.82777317E-01</totfact>
</mgrwt>
</event>
<event>
12    5  0.5041746E-008  0.3624099E+04  0.7818608E-02  0.8084994E-01
         -2   -1    0    0    0  501 -0.00000000000E+00  0.00000000000E+00  0.93478862349E+03  0.93478862349E+03  0.00000000000E+00 0.  1.
          1   -1    0    0  501    0  0.00000000000E+00 -0.00000000000E+00 -0.35125831294E+04  0.35125831294E+04  0.00000000000E+00 0. -1.
        -24    2    1    2    0    0 -0.16571624891E+04 -0.26062315057E+03 -0.89212600052E+03  0.19017078904E+04  0.80573926011E+02 0.  0.
        254    2    1    2    0    0  0.16571624891E+04  0.26062315057E+03 -0.16856685054E+04  0.25456638625E+04  0.90819284780E+03 0.  0.
         23    2    4    4    0    0  0.92403794887E+02  0.26706832734E+03 -0.93097623498E+02  0.31113764214E+03  0.90969841577E+02 0.  0.
         23    2    4    4    0    0  0.15647586943E+04 -0.64451767747E+01 -0.15925708819E+04  0.22345262204E+04  0.91181709313E+02 0.  0.
          1    1    3    3  502    0 -0.76491003474E+03 -0.11382045020E+03 -0.45622923825E+03  0.89787948743E+03  0.00000000000E+00 0. -1.
         -2    1    3    3    0  502 -0.89225245441E+03 -0.14680270037E+03 -0.43589676227E+03  0.10038284030E+04  0.00000000000E+00 0.  1.
         13    1    5    5    0    0  0.67473462863E+02  0.14158143225E+03 -0.71319782407E+01  0.15699947536E+03  0.00000000000E+00 0.  1.
        -13    1    5    5    0    0  0.24930332024E+02  0.12548689509E+03 -0.85965645257E+02  0.15413816678E+03  0.00000000000E+00 0. -1.
          3    1    6    6  503    0  0.55638796690E+03  0.28304626251E+02 -0.61131365002E+03  0.82708711770E+03  0.00000000000E+00 0. -1.
         -3    1    6    6    0  503  0.10083707274E+04 -0.34749803025E+02 -0.98125723191E+03  0.14074391027E+04  0.00000000000E+00 0.  1.
<mgrwt>
<rscale>  0 0.36240986E+04</rscale>
<asrwt>0</asrwt>
<pdfrwt beam="1">  1        1 0.54039741E+00 0.36240986E+04</pdfrwt>
<pdfrwt beam="2">  1       -2 0.14381363E+00 0.36240986E+04</pdfrwt>
<totfact> 0.58080525E-02</totfact>
</mgrwt>
</event>
<event>
12    5  0.5041746E-008  0.1636656E+04  0.7818608E-02  0.8798340E-01
         -2   -1    0    0    0  501 -0.00000000000E+00  0.00000000000E+00  0.10390429819E+04  0.10390429819E+04  0.00000000000E+00 0.  1.
          1   -1    0    0  501    0  0.00000000000E+00 -0.00000000000E+00 -0.64449766424E+03  0.64449766424E+03  0.00000000000E+00 0. -1.
        -24    2    1    2    0    0  0.28908127474E+03  0.36612596708E+03  0.47500994023E+03  0.67057048293E+03  0.80088214422E+02 0.  0.
        254    2    1    2    0    0 -0.28908127474E+03 -0.36612596708E+03 -0.80464622584E+02  0.10129701632E+04  0.89555445891E+03 0.  0.
         23    2    4    4    0    0 -0.10156899975E+03 -0.13494445899E+02 -0.44485637258E+03  0.46472918321E+03  0.87049754289E+02 0.  0.
         23    2    4    4    0    0 -0.18751227499E+03 -0.35263152118E+03  0.36439174999E+03  0.54824097999E+03  0.90977918615E+02 0.  0.
          3    1    3    3  502    0  0.62357043424E+02  0.65545707906E+02  0.52294769048E+02  0.10449585427E+03  0.00000000000E+00 0. -1.
         -4    1    3    3    0  502  0.22672423131E+03  0.30058025917E+03  0.42271517118E+03  0.56607462866E+03  0.00000000000E+00 0.  1.
         13    1    5    5    0    0  0.44397671410E+01 -0.23283218886E+02 -0.44015778972E+02  0.49992085499E+02  0.00000000000E+00 0. -1.
        -13    1    5    5    0    0 -0.10600876689E+03  0.97887729878E+01 -0.40084059361E+03  0.41473709771E+03  0.00000000000E+00 0.  1.
          3    1    6    6  503    0 -0.57637496511E+02 -0.81379850267E+02  0.44571604371E+02  0.10923089741E+03  0.00000000000E+00 0. -1.
         -3    1    6    6    0  503 -0.12987477848E+03 -0.27125167091E+03  0.31982014562E+03  0.43901008258E+03  0.00000000000E+00 0.  1.
<mgrwt>
<rscale>  0 0.16366561E+04</rscale>
<asrwt>0</asrwt>
<pdfrwt beam="1">  1        1 0.99153487E-01 0.16366561E+04</pdfrwt>
<pdfrwt beam="2">  1       -2 0.15985277E+00 0.16366561E+04</pdfrwt>
<totfact> 0.65178569E+00</totfact>
</mgrwt>
</event>
<event>
12    5  0.5041746E-008  0.1505548E+04  0.7818608E-02  0.8880772E-01
          1   -1    0    0  501    0  0.00000000000E+00  0.00000000000E+00  0.16893645582E+04  0.16893645582E+04  0.00000000000E+00 0. -1.
         -2   -1    0    0    0  501 -0.00000000000E+00 -0.00000000000E+00 -0.33543326489E+03  0.33543326489E+03  0.00000000000E+00 0.  1.
        -24    2    1    2    0    0 -0.46939631043E+03  0.58885623211E+02  0.38764807932E+03  0.61669776908E+03  0.79023364376E+02 0.  0.
        254    2    1    2    0    0  0.46939631043E+03 -0.58885623211E+02  0.96628321401E+03  0.14081000540E+04  0.90842836791E+03 0.  0.
         23    2    4    4    0    0  0.70797926235E+02 -0.35612959854E+03  0.78774824688E+03  0.87229409034E+03  0.92244470136E+02 0.  0.
         23    2    4    4    0    0  0.39859838419E+03  0.29724397533E+03  0.17853496713E+03  0.53580596369E+03  0.89323252768E+02 0.  0.
          3    1    3    3  502    0 -0.43904814203E+03  0.58195822793E+02  0.33273145111E+03  0.55394967584E+03  0.00000000000E+00 0. -1.
         -4    1    3    3    0  502 -0.30348168394E+02  0.68980041718E+00  0.54916628216E+02  0.62748093231E+02  0.00000000000E+00 0.  1.
         13    1    5    5    0    0  0.42066125876E+02 -0.47516145582E+02  0.10905235208E+03  0.12617352548E+03  0.00000000000E+00 0. -1.
        -13    1    5    5    0    0  0.28731800359E+02 -0.30861345296E+03  0.67869589480E+03  0.74612056487E+03  0.00000000000E+00 0.  1.
          2    1    6    6  503    0  0.20169908208E+03  0.18516553386E+03  0.13428841356E+03  0.30496257583E+03  0.00000000000E+00 0. -1.
         -2    1    6    6    0  503  0.19689930211E+03  0.11207844147E+03  0.44246553575E+02  0.23084338786E+03  0.00000000000E+00 0.  1.
<mgrwt>
<rscale>  0 0.15055485E+04</rscale>
<asrwt>0</asrwt>
<pdfrwt beam="1">  1        1 0.25990223E+00 0.15055485E+04</pdfrwt>
<pdfrwt beam="2">  1       -2 0.51605119E-01 0.15055485E+04</pdfrwt>
<totfact> 0.14589068E+01</totfact>
</mgrwt>
</event>
<event>
12    5  0.5041746E-008  0.4137882E+04  0.7818608E-02  0.7977295E-01
         -2   -1    0    0    0  501 -0.00000000000E+00  0.00000000000E+00  0.19517956054E+04  0.19517956054E+04  0.00000000000E+00 0.  1.
          1   -1    0    0  501    0  0.00000000000E+00 -0.00000000000E+00 -0.21931174675E+04  0.21931174675E+04  0.00000000000E+00 0. -1.
        -24    2    1    2    0    0 -0.17811572612E+04 -0.25002229338E+03  0.66599759271E+03  0.19195861285E+04  0.78903578874E+02 0.  0.
        254    2    1    2    0    0  0.17811572612E+04  0.25002229338E+03 -0.90731945477E+03  0.22253269444E+04  0.94542005483E+03 0.  0.
         23    2    4    4    0    0  0.12964835052E+04  0.55932762772E+03 -0.44713034921E+03  0.14838578872E+04  0.90508595388E+02 0.  0.
         23    2    4    4    0    0  0.48467375605E+03 -0.30930533433E+03 -0.46018910556E+03  0.74146905722E+03  0.86162116324E+02 0.  0.
          1    1    3    3  502    0 -0.12466129002E+03 -0.36768098850E+02  0.55786510135E+02  0.14143714164E+03  0.00000000000E+00 0. -1.
         -2    1    3    3    0  502 -0.16564959712E+04 -0.21325419454E+03  0.61021108258E+03  0.17781489868E+04  0.00000000000E+00 0.  1.
         13    1    5    5    0    0  0.76033084028E+03  0.30290215876E+03 -0.29906107231E+03  0.87137261228E+03  0.00000000000E+00 0. -1.
        -13    1    5    5    0    0  0.53615266490E+03  0.25642546896E+03 -0.14806927690E+03  0.61248527490E+03  0.00000000000E+00 0.  1.
          4    1    6    6  503    0  0.16028760209E+03 -0.10361313681E+03 -0.10265764098E+03  0.21671730147E+03  0.00000000000E+00 0. -1.
         -4    1    6    6    0  503  0.32438615396E+03 -0.20569219752E+03 -0.35753146458E+03  0.52475175575E+03  0.00000000000E+00 0.  1.
<mgrwt>
<rscale>  0 0.41378821E+04</rscale>
<asrwt>0</asrwt>
<pdfrwt beam="1">  1        1 0.33740269E+00 0.41378821E+04</pdfrwt>
<pdfrwt beam="2">  1       -2 0.30027625E+00 0.41378821E+04</pdfrwt>
<totfact> 0.47441347E-02</totfact>
</mgrwt>
</event>
<event>
12    5  0.5041746E-008  0.1994160E+04  0.7818608E-02  0.8609356E-01
          1   -1    0    0  501    0  0.00000000000E+00  0.00000000000E+00  0.51098026455E+03  0.51098026455E+03  0.00000000000E+00 0. -1.
         -2   -1    0    0    0  501 -0.00000000000E+00 -0.00000000000E+00 -0.19456109769E+04  0.19456109769E+04  0.00000000000E+00 0.  1.
        -24    2    1    2    0    0 -0.25649897360E+03  0.91947888750E+02  0.34924908426E+03  0.45005025376E+03  0.79524652472E+02 0.  0.
        254    2    1    2    0    0  0.25649897360E+03 -0.91947888750E+02 -0.17838797966E+04  0.20065409877E+04  0.87734455537E+03 0.  0.
         23    2    4    4    0    0 -0.72205637732E+01 -0.44621708278E+03 -0.73424636606E+03  0.86420937027E+03  0.92619048172E+02 0.  0.
         23    2    4    4    0    0  0.26371953737E+03  0.35426919403E+03 -0.10496334305E+04  0.11423316174E+04  0.90202712885E+02 0.  0.
          1    1    3    3  502    0 -0.24255905978E+03  0.78207260546E+02  0.28240646519E+03  0.38040068963E+03  0.00000000000E+00 0. -1.
         -2    1    3    3    0  502 -0.13939913817E+02  0.13740628205E+02  0.66842619061E+02  0.69649564131E+02  0.00000000000E+00 0.  1.
         13    1    5    5    0    0  0.33459314174E+02 -0.31628066511E+03 -0.48011786614E+03  0.57590463639E+03  0.00000000000E+00 0. -1.
        -13    1    5    5    0    0 -0.40679877947E+02 -0.12993641767E+03 -0.25412849992E+03  0.28830473388E+03  0.00000000000E+00 0.  1.
          1    1    6    6  503    0  0.25194987888E+03  0.30752668496E+03 -0.98070057659E+03  0.10582178530E+04  0.00000000000E+00 0. -1.
         -1    1    6    6    0  503  0.11769658491E+02  0.46742509067E+02 -0.68932853959E+02  0.84113764449E+02  0.00000000000E+00 0.  1.
<mgrwt>
<rscale>  0 0.19941603E+04</rscale>
<asrwt>0</asrwt>
<pdfrwt beam="1">  1        1 0.78612348E-01 0.19941603E+04</pdfrwt>
<pdfrwt beam="2">  1       -2 0.29932477E+00 0.19941603E+04</pdfrwt>
<totfact> 0.11223518E+00</totfact>
</mgrwt>
</event>
<event>
12    5  0.5041746E-008  0.1166979E+04  0.7818608E-02  0.9142261E-01
          1   -1    0    0  501    0  0.00000000000E+00  0.00000000000E+00  0.47938447001E+03  0.47938447001E+03  0.00000000000E+00 0. -1.
         -2   -1    0    0    0  501 -0.00000000000E+00 -0.00000000000E+00 -0.71020200011E+03  0.71020200011E+03  0.00000000000E+00 0.  1.
        -24    2    1    2    0    0 -0.48700723916E+02 -0.22171331733E+03 -0.19158810066E+02  0.24038082707E+03  0.76728915210E+02 0.  0.
        254    2    1    2    0    0  0.48700723916E+02  0.22171331733E+03 -0.21165872003E+03  0.94920564305E+03  0.89703031355E+03 0.  0.
         23    2    4    4    0    0  0.34218674527E+03 -0.18056226195E+03  0.80317849413E+01  0.39729802721E+03  0.89926157347E+02 0.  0.
         23    2    4    4    0    0 -0.29348602136E+03  0.40227557928E+03 -0.21969050497E+03  0.55190761583E+03  0.91533666065E+02 0.  0.
          3    1    3    3  502    0 -0.70920284359E+01 -0.12469848249E+03 -0.43120987870E+02  0.13213412881E+03  0.00000000000E+00 0. -1.
         -4    1    3    3    0  502 -0.41608695480E+02 -0.97014834843E+02  0.23962177804E+02  0.10824669826E+03  0.00000000000E+00 0.  1.
         13    1    5    5    0    0  0.53046723183E+01  0.47624757759E+01 -0.10117778355E+02  0.12377001364E+02  0.00000000000E+00 0. -1.
        -13    1    5    5    0    0  0.33688207296E+03 -0.18532473772E+03  0.18149563296E+02  0.38492102585E+03  0.00000000000E+00 0.  1.
          4    1    6    6  503    0 -0.27753022144E+03  0.35685808904E+03 -0.17071017338E+03  0.48323150024E+03  0.00000000000E+00 0.  1.
         -4    1    6    6    0  503 -0.15955799916E+02  0.45417490244E+02 -0.48980331590E+02  0.68676115598E+02  0.00000000000E+00 0. -1.
<mgrwt>
<rscale>  0 0.11669787E+04</rscale>
<asrwt>0</asrwt>
<pdfrwt beam="1">  1        1 0.73751457E-01 0.11669787E+04</pdfrwt>
<pdfrwt beam="2">  1       -2 0.10926185E+00 0.11669787E+04</pdfrwt>
<totfact> 0.27204619E+01</totfact>
</mgrwt>
</event>
<event>
12    5  0.5041746E-008  0.1262465E+04  0.7818608E-02  0.9059872E-01
         -2   -1    0    0    0  501 -0.00000000000E+00  0.00000000000E+00  0.37774441517E+03  0.37774441517E+03  0.00000000000E+00 0.  1.
          1   -1    0    0  501    0  0.00000000000E+00 -0.00000000000E+00 -0.10548257402E+04  0.10548257402E+04  0.00000000000E+00 0. -1.
        -24    2    1    2    0    0 -0.15588514537E+03  0.24289198265E+03 -0.29434353696E+03  0.41998791225E+03  0.80343231811E+02 0.  0.
        254    2    1    2    0    0  0.15588514537E+03 -0.24289198265E+03 -0.38273778804E+03  0.10125822431E+04  0.89192930822E+03 0.  0.
         23    2    4    4    0    0  0.30962954640E+03 -0.26902581458E+03 -0.59823530983E+03  0.73113731803E+03  0.91820188316E+02 0.  0.
         23    2    4    4    0    0 -0.15374440103E+03  0.26133831935E+02  0.21549752179E+03  0.28144492507E+03  0.91933377671E+02 0.  0.
          3    1    3    3  502    0 -0.51365824155E+02  0.13493197187E+03 -0.10634819027E+03  0.17931821574E+03  0.00000000000E+00 0. -1.
         -2    1    3    3    0  502 -0.10451932122E+03  0.10796001077E+03 -0.18799534670E+03  0.24066969650E+03  0.00000000000E+00 0.  1.
         13    1    5    5    0    0  0.30872092490E+03 -0.25470488179E+03 -0.59385610478E+03  0.71613424682E+03  0.00000000000E+00 0. -1.
        -13    1    5    5    0    0  0.90862150061E+00 -0.14320932793E+02 -0.43792050449E+01  0.15003071216E+02  0.00000000000E+00 0.  1.
          3    1    6    6  503    0 -0.16587309904E+03  0.24165183665E+02  0.19161040978E+03  0.25458277676E+03  0.00000000000E+00 0. -1.
         -3    1    6    6    0  503  0.12128698013E+02  0.19686482696E+01  0.23887112012E+02  0.26862148309E+02  0.00000000000E+00 0.  1.
<mgrwt>
<rscale>  0 0.12624651E+04</rscale>
<asrwt>0</asrwt>
<pdfrwt beam="1">  1        1 0.16228088E+00 0.12624651E+04</pdfrwt>
<pdfrwt beam="2">  1       -2 0.58114526E-01 0.12624651E+04</pdfrwt>
<totfact> 0.32840379E+01</totfact>
</mgrwt>
</event>
<event>
12    5  0.5041746E-008  0.1381961E+04  0.7818608E-02  0.8966980E-01
          1   -1    0    0  501    0  0.00000000000E+00  0.00000000000E+00  0.10718932287E+04  0.10718932287E+04  0.00000000000E+00 0. -1.
         -2   -1    0    0    0  501 -0.00000000000E+00 -0.00000000000E+00 -0.44543073649E+03  0.44543073649E+03  0.00000000000E+00 0.  1.
        -24    2    1    2    0    0  0.60606610070E+02  0.60243002071E+02 -0.23515041840E+03  0.26388715541E+03  0.83894761673E+02 0.  0.
        254    2    1    2    0    0 -0.60606610070E+02 -0.60243002071E+02  0.86161291057E+03  0.12534368097E+04  0.90632480263E+03 0.  0.
         23    2    4    4    0    0  0.53070287390E+02 -0.29841542810E+03  0.91524136043E+03  0.96842820335E+03  0.91204243744E+02 0.  0.
         23    2    4    4    0    0 -0.11367689746E+03  0.23817242603E+03 -0.53628449856E+02  0.28500860638E+03  0.93302484120E+02 0.  0.
          3    1    3    3  502    0  0.74919666334E+02  0.38047232575E+02 -0.12501713601E+03  0.15063144627E+03  0.00000000000E+00 0. -1.
         -4    1    3    3    0  502 -0.14313056263E+02  0.22195769497E+02 -0.11013328239E+03  0.11325570914E+03  0.00000000000E+00 0.  1.
         13    1    5    5    0    0  0.35365224654E+02 -0.42137153580E+02  0.10651153436E+03  0.11987887962E+03  0.00000000000E+00 0.  1.
        -13    1    5    5    0    0  0.17705062736E+02 -0.25627827452E+03  0.80872982607E+03  0.84854932373E+03  0.00000000000E+00 0. -1.
          4    1    6    6  503    0 -0.10603335232E+03  0.20789491174E+03 -0.12959117830E+02  0.23373340555E+03  0.00000000000E+00 0.  1.
         -4    1    6    6    0  503 -0.76435451373E+01  0.30277514285E+02 -0.40669332026E+02  0.51275200838E+02  0.00000000000E+00 0. -1.
<mgrwt>
<rscale>  0 0.13819612E+04</rscale>
<asrwt>0</asrwt>
<pdfrwt beam="1">  1        1 0.16490665E+00 0.13819612E+04</pdfrwt>
<pdfrwt beam="2">  1       -2 0.68527806E-01 0.13819612E+04</pdfrwt>
<totfact> 0.22199481E+01</totfact>
</mgrwt>
</event>
<event>
12    5  0.5041746E-008  0.1921239E+04  0.7818608E-02  0.8644356E-01
          1   -1    0    0  501    0  0.00000000000E+00  0.00000000000E+00  0.10354186046E+04  0.10354186046E+04  0.00000000000E+00 0. -1.
         -2   -1    0    0    0  501 -0.00000000000E+00 -0.00000000000E+00 -0.89122410709E+03  0.89122410709E+03  0.00000000000E+00 0.  1.
        -24    2    1    2    0    0 -0.29729323167E+03 -0.23542440841E+03  0.70765398401E+03  0.80709286440E+03  0.82563993345E+02 0.  0.
        254    2    1    2    0    0  0.29729323167E+03  0.23542440841E+03 -0.56345948652E+03  0.11195498473E+04  0.88999851120E+03 0.  0.
         23    2    4    4    0    0 -0.23170597765E+03  0.22666646299E+03  0.67433040317E+01  0.33648388313E+03  0.90058791539E+02 0.  0.
         23    2    4    4    0    0  0.52899920932E+03  0.87579454226E+01 -0.57020279055E+03  0.78306596416E+03  0.90245314545E+02 0.  0.
          3    1    3    3  502    0 -0.11475623043E+03 -0.51736605432E+02  0.18446515747E+03  0.22332277780E+03  0.00000000000E+00 0. -1.
         -4    1    3    3    0  502 -0.18253700125E+03 -0.18368780298E+03  0.52318882654E+03  0.58377008660E+03  0.00000000000E+00 0.  1.
         13    1    5    5    0    0 -0.16215668265E+03  0.20883408274E+03  0.32429802377E+00  0.26439850418E+03  0.00000000000E+00 0. -1.
        -13    1    5    5    0    0 -0.69549294999E+02  0.17832380246E+02  0.64190060080E+01  0.72085378949E+02  0.00000000000E+00 0.  1.
          3    1    6    6  503    0  0.26078944279E+03  0.35743304505E+02 -0.32900248906E+03  0.42134469867E+03  0.00000000000E+00 0. -1.
         -3    1    6    6    0  503  0.26820976653E+03 -0.26985359083E+02 -0.24120030149E+03  0.36172126549E+03  0.00000000000E+00 0.  1.
<mgrwt>
<rscale>  0 0.19212392E+04</rscale>
<asrwt>0</asrwt>
<pdfrwt beam="1">  1        1 0.15929517E+00 0.19212392E+04</pdfrwt>
<pdfrwt beam="2">  1       -2 0.13711140E+00 0.19212392E+04</pdfrwt>
<totfact> 0.44082333E+00</totfact>
</mgrwt>
</event>
<event>
12    5  0.5041746E-008  0.1658402E+04  0.7818608E-02  0.8785452E-01
          1   -1    0    0  501    0  0.00000000000E+00  0.00000000000E+00  0.60819444950E+03  0.60819444950E+03  0.00000000000E+00 0. -1.
         -2   -1    0    0    0  501 -0.00000000000E+00 -0.00000000000E+00 -0.11305169185E+04  0.11305169185E+04  0.00000000000E+00 0.  1.
        -24    2    1    2    0    0 -0.26131269457E+03 -0.33333456798E+03  0.23819433207E+03  0.49234333077E+03  0.79178008146E+02 0.  0.
        254    2    1    2    0    0  0.26131269457E+03  0.33333456798E+03 -0.76051680110E+03  0.12463680373E+04  0.89199283686E+03 0.  0.
         23    2    4    4    0    0  0.17152350483E+03  0.54451165291E+03 -0.80899422860E+03  0.99452871479E+03  0.93286921715E+02 0.  0.
         23    2    4    4    0    0  0.89789189740E+02 -0.21117708493E+03  0.48477427499E+02  0.25183932247E+03  0.91733982646E+02 0.  0.
          1    1    3    3  502    0 -0.38513004623E+02 -0.24556260631E+02  0.49608822986E+02  0.67433647234E+02  0.00000000000E+00 0. -1.
         -2    1    3    3    0  502 -0.22279968995E+03 -0.30877830735E+03  0.18858550908E+03  0.42490968354E+03  0.00000000000E+00 0.  1.
         13    1    5    5    0    0  0.49084753970E+02  0.25666819893E+03 -0.42931248395E+03  0.50259037624E+03  0.00000000000E+00 0.  1.
        -13    1    5    5    0    0  0.12243875086E+03  0.28784345399E+03 -0.37968174466E+03  0.49193833856E+03  0.00000000000E+00 0. -1.
          1    1    6    6  503    0  0.42712150398E+02 -0.22925484499E+02 -0.93249483428E+01  0.49364565153E+02  0.00000000000E+00 0. -1.
         -1    1    6    6    0  503  0.47077039342E+02 -0.18825160043E+03  0.57802375842E+02  0.20247475732E+03  0.00000000000E+00 0.  1.
<mgrwt>
<rscale>  0 0.16584018E+04</rscale>
<asrwt>0</asrwt>
<pdfrwt beam="1">  1        1 0.93568377E-01 0.16584018E+04</pdfrwt>
<pdfrwt beam="2">  1       -2 0.17392568E+00 0.16584018E+04</pdfrwt>
<totfact> 0.56067698E+00</totfact>
</mgrwt>
</event>
<event>
12    5  0.5041746E-008  0.1175596E+04  0.7818608E-02  0.9134490E-01
          1   -1    0    0  501    0  0.00000000000E+00  0.00000000000E+00  0.18738513753E+04  0.18738513753E+04  0.00000000000E+00 0. -1.
         -2   -1    0    0    0  501 -0.00000000000E+00 -0.00000000000E+00 -0.18438297830E+03  0.18438297830E+03  0.00000000000E+00 0.  1.
        -24    2    1    2    0    0  0.66498175588E+02  0.51868368536E+02  0.72923243575E+03  0.73838436413E+03  0.79493325631E+02 0.  0.
        254    2    1    2    0    0 -0.66498175588E+02 -0.51868368536E+02  0.96023596123E+03  0.13198499895E+04  0.90157559772E+03 0.  0.
         23    2    4    4    0    0  0.11890673708E+02 -0.35832059593E+01 -0.16313988345E+03  0.18891839726E+03  0.94452695914E+02 0.  0.
         23    2    4    4    0    0 -0.78388849296E+02 -0.48285162576E+02  0.11233758447E+04  0.11309315922E+04  0.92502482147E+02 0.  0.
          3    1    3    3  502    0  0.82090826394E+02  0.49544258083E+02  0.53588836372E+03  0.54439863672E+03  0.00000000000E+00 0. -1.
         -4    1    3    3    0  502 -0.15592650807E+02  0.23241104524E+01  0.19334407203E+03  0.19398572741E+03  0.00000000000E+00 0.  1.
         13    1    5    5    0    0  0.46860373295E+02  0.16578722824E+02 -0.11974584712E+03  0.12965267656E+03  0.00000000000E+00 0.  1.
        -13    1    5    5    0    0 -0.34969699587E+02 -0.20161928783E+02 -0.43394036323E+02  0.59265720698E+02  0.00000000000E+00 0. -1.
          1    1    6    6  503    0 -0.73788151615E+01  0.42487113551E+01  0.68791679965E+01  0.10946296803E+02  0.00000000000E+00 0. -1.
         -1    1    6    6    0  503 -0.71010034135E+02 -0.52533873932E+02  0.11164966767E+04  0.11199852954E+04  0.00000000000E+00 0.  1.
<mgrwt>
<rscale>  0 0.11755957E+04</rscale>
<asrwt>0</asrwt>
<pdfrwt beam="1">  1        1 0.28828481E+00 0.11755957E+04</pdfrwt>
<pdfrwt beam="2">  1       -2 0.28366613E-01 0.11755957E+04</pdfrwt>
<totfact> 0.35990755E+01</totfact>
</mgrwt>
</event>
<event>
12    5  0.5041746E-008  0.2365484E+04  0.7818608E-02  0.8452540E-01
          1   -1    0    0  501    0  0.00000000000E+00  0.00000000000E+00  0.99732431062E+03  0.99732431062E+03  0.00000000000E+00 0. -1.
         -2   -1    0    0    0  501 -0.00000000000E+00 -0.00000000000E+00 -0.14026312420E+04  0.14026312420E+04  0.00000000000E+00 0.  1.
        -24    2    1    2    0    0 -0.37980768695E+02 -0.33630230815E+03 -0.11375968520E+04  0.11895989123E+04  0.80481011338E+02 0.  0.
        254    2    1    2    0    0  0.37980768695E+02  0.33630230815E+03  0.73228992063E+03  0.12103566403E+04  0.90231529282E+03 0.  0.
         23    2    4    4    0    0  0.55035535760E+02 -0.22313163894E+03 -0.42227262390E+02  0.25039105287E+03  0.89977214756E+02 0.  0.
         23    2    4    4    0    0 -0.17054767066E+02  0.55943394710E+03  0.77451718302E+03  0.95996558745E+03  0.91650728602E+02 0.  0.
          3    1    3    3  502    0 -0.51017446781E+01 -0.34936631517E+02 -0.23042165755E+03  0.23311099564E+03  0.00000000000E+00 0. -1.
         -2    1    3    3    0  502 -0.32879024017E+02 -0.30136567664E+03 -0.90717519447E+03  0.95648791667E+03  0.00000000000E+00 0.  1.
         13    1    5    5    0    0 -0.12284325882E+02 -0.13411502100E+03 -0.14979556360E+02  0.13550693941E+03  0.00000000000E+00 0. -1.
        -13    1    5    5    0    0  0.67319861642E+02 -0.89016617947E+02 -0.27247706030E+02  0.11488411346E+03  0.00000000000E+00 0.  1.
          4    1    6    6  503    0 -0.40067644613E+02  0.50840115997E+03  0.71522304198E+03  0.87841969205E+03  0.00000000000E+00 0.  1.
         -4    1    6    6    0  503  0.23012877547E+02  0.51032787130E+02  0.59294141039E+02  0.81545895401E+02  0.00000000000E+00 0. -1.
<mgrwt>
<rscale>  0 0.23654837E+04</rscale>
<asrwt>0</asrwt>
<pdfrwt beam="1">  1        1 0.15343451E+00 0.23654837E+04</pdfrwt>
<pdfrwt beam="2">  1       -2 0.21578942E+00 0.23654837E+04</pdfrwt>
<totfact> 0.12595744E+00</totfact>
</mgrwt>
</event>
<event>
12    5  0.5041746E-008  0.2007394E+04  0.7818608E-02  0.8603172E-01
         -2   -1    0    0    0  501 -0.00000000000E+00  0.00000000000E+00  0.11412589130E+04  0.11412589130E+04  0.00000000000E+00 0.  1.
          1   -1    0    0  501    0  0.00000000000E+00 -0.00000000000E+00 -0.88271590785E+03  0.88271590785E+03  0.00000000000E+00 0. -1.
        -24    2    1    2    0    0 -0.31997881241E+03  0.16892499289E+02 -0.63499766578E+03  0.71562228093E+03  0.78875956357E+02 0.  0.
        254    2    1    2    0    0  0.31997881241E+03 -0.16892499289E+02  0.89354067096E+03  0.13083525399E+04  0.90038860566E+03 0.  0.
         23    2    4    4    0    0 -0.43854687142E+02  0.24233582563E+03 -0.43615560642E+02  0.26624757758E+03  0.91299339921E+02 0.  0.
         23    2    4    4    0    0  0.36383349955E+03 -0.25922832491E+03  0.93715623160E+03  0.10421049624E+04  0.90259682780E+02 0.  0.
          3    1    3    3  502    0 -0.18325916959E+03  0.48219754512E+02 -0.35162825394E+03  0.39943897773E+03  0.00000000000E+00 0. -1.
         -4    1    3    3    0  502 -0.13671964282E+03 -0.31327255222E+02 -0.28336941184E+03  0.31618330319E+03  0.00000000000E+00 0.  1.
         13    1    5    5    0    0  0.97702237792E+00  0.60451826280E+02 -0.50525956278E+02  0.78792449709E+02  0.00000000000E+00 0.  1.
        -13    1    5    5    0    0 -0.44831709520E+02  0.18188399935E+03  0.69103956366E+01  0.18745512787E+03  0.00000000000E+00 0. -1.
          3    1    6    6  503    0  0.20208324154E+03 -0.13765579850E+03  0.40901710736E+03  0.47653095333E+03  0.00000000000E+00 0. -1.
         -3    1    6    6    0  503  0.16175025802E+03 -0.12157252642E+03  0.52813912424E+03  0.56557400904E+03  0.00000000000E+00 0.  1.
<mgrwt>
<rscale>  0 0.20073937E+04</rscale>
<asrwt>0</asrwt>
<pdfrwt beam="1">  1        1 0.13580245E+00 0.20073937E+04</pdfrwt>
<pdfrwt beam="2">  1       -2 0.17557829E+00 0.20073937E+04</pdfrwt>
<totfact> 0.29728235E+00</totfact>
</mgrwt>
</event>
<event>
12    5  0.5041746E-008  0.1396842E+04  0.7818608E-02  0.8956108E-01
          3   -1    0    0  501    0  0.00000000000E+00  0.00000000000E+00  0.77412693805E+03  0.77412693805E+03  0.00000000000E+00 0. -1.
         -4   -1    0    0    0  501 -0.00000000000E+00 -0.00000000000E+00 -0.63011869934E+03  0.63011869934E+03  0.00000000000E+00 0.  1.
        -24    2    1    2    0    0  0.34983587613E+03 -0.19258544811E+03  0.44357869690E+02  0.40948628516E+03  0.78975325741E+02 0.  0.
        254    2    1    2    0    0 -0.34983587613E+03  0.19258544811E+03  0.99650369020E+02  0.99475935224E+03  0.90561673890E+03 0.  0.
         23    2    4    4    0    0  0.19658211197E+03  0.33485218341E+03 -0.51827135267E+02  0.40266797291E+03  0.93192987804E+02 0.  0.
         23    2    4    4    0    0 -0.54641798810E+03 -0.14226673530E+03  0.15147750429E+03  0.59209137933E+03  0.93884639183E+02 0.  0.
          3    1    3    3  502    0  0.13560896114E+03 -0.41904614683E+02  0.40287138441E+02  0.14754267382E+03  0.00000000000E+00 0. -1.
         -4    1    3    3    0  502  0.21422691499E+03 -0.15068083343E+03  0.40707312488E+01  0.26194361134E+03  0.00000000000E+00 0.  1.
         13    1    5    5    0    0  0.19015688957E+03  0.26363013873E+03 -0.60486208344E+02  0.33063435105E+03  0.00000000000E+00 0. -1.
        -13    1    5    5    0    0  0.64252224068E+01  0.71222044682E+02  0.86590730763E+01  0.72033621860E+02  0.00000000000E+00 0.  1.
          4    1    6    6  503    0 -0.36396624782E+03 -0.90547155282E+02  0.14568920673E+03  0.40236247568E+03  0.00000000000E+00 0. -1.
         -4    1    6    6    0  503 -0.18245174029E+03 -0.51719580017E+02  0.57882975613E+01  0.18972890365E+03  0.00000000000E+00 0.  1.
<mgrwt>
<rscale>  0 0.13968420E+04</rscale>
<asrwt>0</asrwt>
<pdfrwt beam="1">  1        3 0.11909645E+00 0.13968420E+04</pdfrwt>
<pdfrwt beam="2">  1       -4 0.96941338E-01 0.13968420E+04</pdfrwt>
<totfact> 0.11433583E+00</totfact>
</mgrwt>
</event>
<event>
12    5  0.5041746E-008  0.1599473E+04  0.7818608E-02  0.8820872E-01
          1   -1    0    0  501    0  0.00000000000E+00  0.00000000000E+00  0.12849024256E+04  0.12849024256E+04  0.00000000000E+00 0. -1.
         -2   -1    0    0    0  501 -0.00000000000E+00 -0.00000000000E+00 -0.49776448250E+03  0.49776448250E+03  0.00000000000E+00 0.  1.
        -24    2    1    2    0    0  0.42040230408E+03 -0.29997929715E+03  0.79723535101E+02  0.52864982764E+03  0.79931984908E+02 0.  0.
        254    2    1    2    0    0 -0.42040230408E+03  0.29997929715E+03  0.70741440799E+03  0.12540170805E+04  0.89743970129E+03 0.  0.
         23    2    4    4    0    0 -0.24065299868E+03 -0.29673698060E+03  0.18031265001E+03  0.43156775818E+03  0.88155412303E+02 0.  0.
         23    2    4    4    0    0 -0.17974930540E+03  0.59671627775E+03  0.52710175798E+03  0.82244932227E+03  0.10102720189E+03 0.  0.
          3    1    3    3  502    0  0.24429581295E+03 -0.16970210766E+03  0.85561540772E+02  0.30951579415E+03  0.00000000000E+00 0. -1.
         -4    1    3    3    0  502  0.17610649113E+03 -0.13027718949E+03 -0.58380056715E+01  0.21913403348E+03  0.00000000000E+00 0.  1.
         13    1    5    5    0    0 -0.43244078030E+02 -0.10981714167E+02  0.16609450637E+02  0.47608005431E+02  0.00000000000E+00 0. -1.
        -13    1    5    5    0    0 -0.19740892065E+03 -0.28575526643E+03  0.16370319937E+03  0.38395975275E+03  0.00000000000E+00 0.  1.
          1    1    6    6  503    0 -0.19695217704E+02  0.13534413493E+03  0.70398102400E+02  0.15382402049E+03  0.00000000000E+00 0. -1.
         -1    1    6    6    0  503 -0.16005408770E+03  0.46137214282E+03  0.45670365558E+03  0.66862530178E+03  0.00000000000E+00 0.  1.
<mgrwt>
<rscale>  0 0.15994734E+04</rscale>
<asrwt>0</asrwt>
<pdfrwt beam="1">  1        1 0.19767730E+00 0.15994734E+04</pdfrwt>
<pdfrwt beam="2">  1       -2 0.76579152E-01 0.15994734E+04</pdfrwt>
<totfact> 0.11900442E+01</totfact>
</mgrwt>
</event>
<event>
12    5  0.5041746E-008  0.1657453E+04  0.7818608E-02  0.8786010E-01
          1   -1    0    0  501    0  0.00000000000E+00  0.00000000000E+00  0.65172192243E+03  0.65172192243E+03  0.00000000000E+00 0. -1.
         -2   -1    0    0    0  501 -0.00000000000E+00 -0.00000000000E+00 -0.10538045769E+04  0.10538045769E+04  0.00000000000E+00 0.  1.
        -24    2    1    2    0    0  0.53627758093E+03  0.16101028997E+03  0.35810642059E+02  0.56574846508E+03  0.72601421246E+02 0.  0.
        254    2    1    2    0    0 -0.53627758093E+03 -0.16101028997E+03 -0.43789329654E+03  0.11397780343E+04  0.89096883838E+03 0.  0.
         23    2    4    4    0    0  0.20886436145E+03  0.65459327529E+01 -0.26686347683E+03  0.35182681901E+03  0.94333581431E+02 0.  0.
         23    2    4    4    0    0 -0.74514194238E+03 -0.16755622272E+03 -0.17102981970E+03  0.78795121526E+03  0.91128021716E+02 0.  0.
          1    1    3    3  502    0  0.47539028007E+03  0.11813570652E+03  0.24857807888E+02  0.49047922907E+03  0.00000000000E+00 0. -1.
         -2    1    3    3    0  502  0.60887300861E+02  0.42874583449E+02  0.10952834171E+02  0.75269236003E+02  0.00000000000E+00 0.  1.
         13    1    5    5    0    0  0.11108580224E+03  0.47752549459E+02 -0.11742448949E+03  0.16854931673E+03  0.00000000000E+00 0. -1.
        -13    1    5    5    0    0  0.97778559209E+02 -0.41206616706E+02 -0.14943898735E+03  0.18327750228E+03  0.00000000000E+00 0.  1.
          1    1    6    6  503    0 -0.43999257467E+02  0.94657541523E+01 -0.19769499733E+02  0.49156569032E+02  0.00000000000E+00 0. -1.
         -1    1    6    6    0  503 -0.70114268491E+03 -0.17702197687E+03 -0.15126031997E+03  0.73879464623E+03  0.00000000000E+00 0.  1.
<mgrwt>
<rscale>  0 0.16574529E+04</rscale>
<asrwt>0</asrwt>
<pdfrwt beam="1">  1        1 0.10026491E+00 0.16574529E+04</pdfrwt>
<pdfrwt beam="2">  1       -2 0.16212378E+00 0.16574529E+04</pdfrwt>
<totfact> 0.61583026E+00</totfact>
</mgrwt>
</event>
<event>
12    5  0.5041746E-008  0.1356726E+04  0.7818608E-02  0.8985753E-01
         -2   -1    0    0    0  501 -0.00000000000E+00  0.00000000000E+00  0.57042111289E+03  0.57042111289E+03  0.00000000000E+00 0.  1.
          1   -1    0    0  501    0  0.00000000000E+00 -0.00000000000E+00 -0.80673042870E+03  0.80673042870E+03  0.00000000000E+00 0. -1.
        -24    2    1    2    0    0 -0.56129666381E+00  0.37223674401E+03 -0.16042458274E+01  0.38060179592E+03  0.79338797608E+02 0.  0.
        254    2    1    2    0    0  0.56129666381E+00 -0.37223674401E+03 -0.23470506998E+03  0.99654974567E+03  0.89412774091E+03 0.  0.
         23    2    4    4    0    0 -0.39629563778E+03 -0.67443946345E+02 -0.26227125832E+03  0.48845136889E+03  0.90551689123E+02 0.  0.
         23    2    4    4    0    0  0.39685693445E+03 -0.30479279767E+03  0.27566188343E+02  0.50809837678E+03  0.83725681956E+02 0.  0.
          3    1    3    3  502    0  0.35854432103E+02  0.10878504959E+03 -0.44943158517E+01  0.11462951710E+03  0.00000000000E+00 0. -1.
         -4    1    3    3    0  502 -0.36415728766E+02  0.26345169443E+03  0.28900700242E+01  0.26597227882E+03  0.00000000000E+00 0.  1.
         13    1    5    5    0    0 -0.13189720894E+03 -0.28876825741E+02 -0.14034878066E+03  0.19475247116E+03  0.00000000000E+00 0. -1.
        -13    1    5    5    0    0 -0.26439842884E+03 -0.38567120604E+02 -0.12192247766E+03  0.29369889773E+03  0.00000000000E+00 0.  1.
          4    1    6    6  503    0  0.30978444228E+02 -0.48925131078E+02  0.20945008546E+02  0.61579427090E+02  0.00000000000E+00 0. -1.
         -4    1    6    6    0  503  0.36587849022E+03 -0.25586766659E+03  0.66211797975E+01  0.44651894969E+03  0.00000000000E+00 0.  1.
<mgrwt>
<rscale>  0 0.13567256E+04</rscale>
<asrwt>0</asrwt>
<pdfrwt beam="1">  1        1 0.12411237E+00 0.13567256E+04</pdfrwt>
<pdfrwt beam="2">  1       -2 0.87757094E-01 0.13567256E+04</pdfrwt>
<totfact> 0.20943095E+01</totfact>
</mgrwt>
</event>
<event>
12    5  0.5041746E-008  0.3054329E+04  0.7818608E-02  0.8228385E-01
         -4   -1    0    0    0  501 -0.00000000000E+00  0.00000000000E+00  0.20720219287E+04  0.20720219287E+04  0.00000000000E+00 0.  1.
          1   -1    0    0  501    0  0.00000000000E+00 -0.00000000000E+00 -0.11255827438E+04  0.11255827438E+04  0.00000000000E+00 0. -1.
        -24    2    1    2    0    0 -0.57725831456E+03  0.63490057409E+03  0.15788935278E+04  0.17988683282E+04  0.81832692453E+02 0.  0.
        254    2    1    2    0    0  0.57725831456E+03 -0.63490057409E+03 -0.63245434285E+03  0.13987363444E+04  0.90561524090E+03 0.  0.
         23    2    4    4    0    0  0.25573282923E+03 -0.74661665502E+03 -0.67746739950E+03  0.10437627080E+04  0.87423130258E+02 0.  0.
         23    2    4    4    0    0  0.32152548532E+03  0.11171608092E+03  0.45013056651E+02  0.35497363638E+03  0.90116517947E+02 0.  0.
          1    1    3    3  502    0 -0.22269016877E+03  0.18778872461E+03  0.52447069859E+03  0.59993752178E+03  0.00000000000E+00 0. -1.
         -2    1    3    3    0  502 -0.35456814578E+03  0.44711184948E+03  0.10544228292E+04  0.11989308064E+04  0.00000000000E+00 0.  1.
         13    1    5    5    0    0  0.52462597800E+02 -0.22960457957E+03 -0.16146207817E+03  0.28555312959E+03  0.00000000000E+00 0. -1.
        -13    1    5    5    0    0  0.20327023143E+03 -0.51701207545E+03 -0.51600532133E+03  0.75820957840E+03  0.00000000000E+00 0.  1.
          1    1    6    6  503    0  0.13433161302E+03  0.85623593974E+02 -0.53004436089E+01  0.15938781887E+03  0.00000000000E+00 0. -1.
         -1    1    6    6    0  503  0.18719387230E+03  0.26092486950E+02  0.50313500260E+02  0.19558581751E+03  0.00000000000E+00 0.  1.
<mgrwt>
<rscale>  0 0.30543295E+04</rscale>
<asrwt>0</asrwt>
<pdfrwt beam="1">  1        1 0.17316658E+00 0.30543295E+04</pdfrwt>
<pdfrwt beam="2">  1       -4 0.31877260E+00 0.30543295E+04</pdfrwt>
<totfact> 0.11598067E-01</totfact>
</mgrwt>
</event>
<event>
12    5  0.5041746E-008  0.1717372E+04  0.7818608E-02  0.8751518E-01
         -2   -1    0    0    0  501 -0.00000000000E+00  0.00000000000E+00  0.82384035111E+03  0.82384035111E+03  0.00000000000E+00 0.  1.
          1   -1    0    0  501    0  0.00000000000E+00 -0.00000000000E+00 -0.89500514904E+03  0.89500514904E+03  0.00000000000E+00 0. -1.
        -24    2    1    2    0    0  0.48025879098E+02 -0.30114895226E+03  0.51996967037E+03  0.61029999775E+03  0.95396292553E+02 0.  0.
        254    2    1    2    0    0 -0.48025879098E+02  0.30114895226E+03 -0.59113446830E+03  0.11085455024E+04  0.88681226580E+03 0.  0.
         23    2    4    4    0    0 -0.10226295836E+03 -0.29827296460E+03 -0.21131886222E+03  0.39095156103E+03  0.93610829900E+02 0.  0.
         23    2    4    4    0    0  0.54237079259E+02  0.59942191686E+03 -0.37981560608E+03  0.71759394138E+03  0.91830686056E+02 0.  0.
          1    1    3    3  502    0 -0.23311995977E+02 -0.71612667062E+02  0.16773976613E+03  0.18387074912E+03  0.00000000000E+00 0. -1.
         -2    1    3    3    0  502  0.71337875075E+02 -0.22953628520E+03  0.35222990424E+03  0.42642924862E+03  0.00000000000E+00 0.  1.
         13    1    5    5    0    0 -0.96907394601E+01 -0.17189387484E+03 -0.11533796768E+03  0.20722997231E+03  0.00000000000E+00 0.  1.
        -13    1    5    5    0    0 -0.92572218897E+02 -0.12637908976E+03 -0.95980894548E+02  0.18372158871E+03  0.00000000000E+00 0. -1.
          2    1    6    6  503    0 -0.16011942055E+02  0.20882228470E+03 -0.16280189868E+03  0.26526889582E+03  0.00000000000E+00 0. -1.
         -2    1    6    6    0  503  0.70249021314E+02  0.39059963216E+03 -0.21701370740E+03  0.45232504556E+03  0.00000000000E+00 0.  1.
<mgrwt>
<rscale>  0 0.17173717E+04</rscale>
<asrwt>0</asrwt>
<pdfrwt beam="1">  1        1 0.13769310E+00 0.17173717E+04</pdfrwt>
<pdfrwt beam="2">  1       -2 0.12674467E+00 0.17173717E+04</pdfrwt>
<totfact> 0.70820157E+00</totfact>
</mgrwt>
</event>
<event>
12    5  0.5041746E-008  0.1808571E+04  0.7818608E-02  0.8701755E-01
         -2   -1    0    0    0  501 -0.00000000000E+00  0.00000000000E+00  0.18739906569E+04  0.18739906569E+04  0.00000000000E+00 0.  1.
          1   -1    0    0  501    0  0.00000000000E+00 -0.00000000000E+00 -0.43635873890E+03  0.43635873890E+03  0.00000000000E+00 0. -1.
        -24    2    1    2    0    0  0.53139387499E+03 -0.16738633354E+03  0.10167365980E+04  0.11622390612E+04  0.81539503658E+02 0.  0.
        254    2    1    2    0    0 -0.53139387499E+03  0.16738633354E+03  0.42089531992E+03  0.11481103345E+04  0.91137634096E+03 0.  0.
         23    2    4    4    0    0 -0.50735374237E+03 -0.18519586088E+03 -0.52694581129E+02  0.54971084182E+03  0.87749438458E+02 0.  0.
         23    2    4    4    0    0 -0.24040132621E+02  0.35258219443E+03  0.47358990105E+03  0.59839949270E+03  0.94352671831E+02 0.  0.
          1    1    3    3  502    0  0.18805184664E+02 -0.12721920770E+01  0.74156119546E+02  0.76513943233E+02  0.00000000000E+00 0. -1.
         -2    1    3    3    0  502  0.51258869033E+03 -0.16611414147E+03  0.94258047849E+03  0.10857251180E+04  0.00000000000E+00 0.  1.
         13    1    5    5    0    0 -0.24654168713E+03 -0.86679226128E+02 -0.69461333511E+02  0.27040889147E+03  0.00000000000E+00 0. -1.
        -13    1    5    5    0    0 -0.26081205524E+03 -0.98516634757E+02  0.16766752382E+02  0.27930195035E+03  0.00000000000E+00 0.  1.
          4    1    6    6  503    0  0.11208923864E+02  0.30987347389E+03  0.41061093400E+03  0.51453721820E+03  0.00000000000E+00 0.  1.
         -4    1    6    6    0  503 -0.35249056486E+02  0.42708720541E+02  0.62978967050E+02  0.83862274499E+02  0.00000000000E+00 0. -1.
<mgrwt>
<rscale>  0 0.18085709E+04</rscale>
<asrwt>0</asrwt>
<pdfrwt beam="1">  1        1 0.67132114E-01 0.18085709E+04</pdfrwt>
<pdfrwt beam="2">  1       -2 0.28830625E+00 0.18085709E+04</pdfrwt>
<totfact> 0.16520370E+00</totfact>
</mgrwt>
</event>
<event>
12    5  0.5041746E-008  0.3051347E+04  0.7818608E-02  0.8229219E-01
         -2   -1    0    0    0  501 -0.00000000000E+00  0.00000000000E+00  0.84068267438E+03  0.84068267438E+03  0.00000000000E+00 0.  1.
          1   -1    0    0  501    0  0.00000000000E+00 -0.00000000000E+00 -0.27687963202E+04  0.27687963202E+04  0.00000000000E+00 0. -1.
        -24    2    1    2    0    0 -0.11970868980E+04  0.46037966563E+03 -0.28223948945E+03  0.13156148616E+04  0.78847047017E+02 0.  0.
        254    2    1    2    0    0  0.11970868980E+04 -0.46037966563E+03 -0.16458741563E+04  0.22938641329E+04  0.95286118826E+03 0.  0.
         23    2    4    4    0    0  0.10899562066E+04 -0.33799807188E+03 -0.72623761894E+03  0.13555913431E+04  0.89216486817E+02 0.  0.
         23    2    4    4    0    0  0.10713069139E+03 -0.12238159376E+03 -0.91963653738E+03  0.93827278981E+03  0.90389311825E+02 0.  0.
          3    1    3    3  502    0 -0.66742812139E+03  0.21667970910E+03 -0.16656195742E+03  0.72121652728E+03  0.00000000000E+00 0. -1.
         -4    1    3    3    0  502 -0.52965877659E+03  0.24369995654E+03 -0.11567753203E+03  0.59439833432E+03  0.00000000000E+00 0.  1.
         13    1    5    5    0    0  0.79972222680E+03 -0.25010035248E+03 -0.57886883677E+03  0.10184276884E+04  0.00000000000E+00 0.  1.
        -13    1    5    5    0    0  0.29023397978E+03 -0.87897719398E+02 -0.14736878217E+03  0.33716365470E+03  0.00000000000E+00 0. -1.
          2    1    6    6  503    0  0.12025598172E+03 -0.12174253812E+03 -0.81188010994E+03  0.82971806033E+03  0.00000000000E+00 0. -1.
         -2    1    6    6    0  503 -0.13125290324E+02 -0.63905564215E+00 -0.10775642744E+03  0.10855472948E+03  0.00000000000E+00 0.  1.
<mgrwt>
<rscale>  0 0.30513467E+04</rscale>
<asrwt>0</asrwt>
<pdfrwt beam="1">  1        1 0.42596867E+00 0.30513467E+04</pdfrwt>
<pdfrwt beam="2">  1       -2 0.12933580E+00 0.30513467E+04</pdfrwt>
<totfact> 0.28761772E-01</totfact>
</mgrwt>
</event>
<event>
12    5  0.5041746E-008  0.1859936E+04  0.7818608E-02  0.8675060E-01
          1   -1    0    0  501    0  0.00000000000E+00  0.00000000000E+00  0.10172276101E+04  0.10172276101E+04  0.00000000000E+00 0. -1.
         -2   -1    0    0    0  501 -0.00000000000E+00 -0.00000000000E+00 -0.85019327778E+03  0.85019327778E+03  0.00000000000E+00 0.  1.
        -24    2    1    2    0    0 -0.23021435558E+03 -0.39257737314E+03  0.60574652925E+03  0.76161734656E+03  0.77565981312E+02 0.  0.
        254    2    1    2    0    0  0.23021435558E+03  0.39257737314E+03 -0.43871219692E+03  0.11058035413E+04  0.90731330689E+03 0.  0.
         23    2    4    4    0    0  0.43282378438E+03 -0.11579085484E+03 -0.23668031245E+03  0.51513444997E+03  0.92746864354E+02 0.  0.
         23    2    4    4    0    0 -0.20260942880E+03  0.50836822798E+03 -0.20203188447E+03  0.59066909136E+03  0.92651267083E+02 0.  0.
          3    1    3    3  502    0 -0.19792007276E+03 -0.26928241111E+03  0.43579669789E+03  0.54918497250E+03  0.00000000000E+00 0. -1.
         -4    1    3    3    0  502 -0.32294282825E+02 -0.12329496203E+03  0.16994983137E+03  0.21243237405E+03  0.00000000000E+00 0.  1.
         13    1    5    5    0    0  0.25345312119E+03 -0.10249853115E+03 -0.17673631358E+03  0.32554593849E+03  0.00000000000E+00 0.  1.
        -13    1    5    5    0    0  0.17937066319E+03 -0.13292323688E+02 -0.59943998870E+02  0.18958851147E+03  0.00000000000E+00 0. -1.
          1    1    6    6  503    0 -0.52633021952E+02  0.93299242722E+02 -0.77135582724E+02  0.13200334016E+03  0.00000000000E+00 0. -1.
         -1    1    6    6    0  503 -0.14997640685E+03  0.41506898526E+03 -0.12489630175E+03  0.45866575120E+03  0.00000000000E+00 0.  1.
<mgrwt>
<rscale>  0 0.18599356E+04</rscale>
<asrwt>0</asrwt>
<pdfrwt beam="1">  1        1 0.15649655E+00 0.18599356E+04</pdfrwt>
<pdfrwt beam="2">  1       -2 0.13079897E+00 0.18599356E+04</pdfrwt>
<totfact> 0.51625998E+00</totfact>
</mgrwt>
</event>
<event>
12    5  0.5041746E-008  0.2559857E+04  0.7818608E-02  0.8381966E-01
         -2   -1    0    0    0  501 -0.00000000000E+00  0.00000000000E+00  0.21681199335E+04  0.21681199335E+04  0.00000000000E+00 0.  1.
          1   -1    0    0  501    0  0.00000000000E+00 -0.00000000000E+00 -0.75559357893E+03  0.75559357893E+03  0.00000000000E+00 0. -1.
        -24    2    1    2    0    0 -0.58361036043E+03  0.15088099820E+03 -0.45716241856E+03  0.76105447493E+03  0.82706157259E+02 0.  0.
        254    2    1    2    0    0  0.58361036043E+03 -0.15088099820E+03  0.18696887731E+04  0.21626590375E+04  0.90442903300E+03 0.  0.
         23    2    4    4    0    0  0.60841619150E+03  0.23983764481E+03  0.13744896056E+04  0.15248563634E+04  0.90955458169E+02 0.  0.
         23    2    4    4    0    0 -0.24805831074E+02 -0.39071864301E+03  0.49519916756E+03  0.63780267406E+03  0.91069469288E+02 0.  0.
          3    1    3    3  502    0 -0.28789829885E+03  0.34631417593E+02 -0.23678739740E+03  0.37437018729E+03  0.00000000000E+00 0. -1.
         -4    1    3    3    0  502 -0.29571206158E+03  0.11624958061E+03 -0.22037502116E+03  0.38668428764E+03  0.00000000000E+00 0.  1.
         13    1    5    5    0    0  0.57467658295E+03  0.21636305114E+03  0.13260634345E+04  0.14613385567E+04  0.00000000000E+00 0. -1.
        -13    1    5    5    0    0  0.33739608551E+02  0.23474593664E+02  0.48426171060E+02  0.63517806766E+02  0.00000000000E+00 0.  1.
          3    1    6    6  503    0 -0.18931770763E+02 -0.39091375628E+03  0.49606249192E+03  0.63186230516E+03  0.00000000000E+00 0. -1.
         -3    1    6    6    0  503 -0.58740603101E+01  0.19511326861E+00 -0.86332436150E+00  0.59403689000E+01  0.00000000000E+00 0.  1.
<mgrwt>
<rscale>  0 0.25598574E+04</rscale>
<asrwt>0</asrwt>
<pdfrwt beam="1">  1        1 0.11624517E+00 0.25598574E+04</pdfrwt>
<pdfrwt beam="2">  1       -2 0.33355691E+00 0.25598574E+04</pdfrwt>
<totfact> 0.37017477E-01</totfact>
</mgrwt>
</event>
<event>
12    5  0.5041746E-008  0.1596399E+04  0.7818608E-02  0.8822764E-01
         -2   -1    0    0    0  501 -0.00000000000E+00  0.00000000000E+00  0.79406090476E+03  0.79406090476E+03  0.00000000000E+00 0.  1.
          1   -1    0    0  501    0  0.00000000000E+00 -0.00000000000E+00 -0.80235921058E+03  0.80235921058E+03  0.00000000000E+00 0. -1.
        -24    2    1    2    0    0 -0.50490642900E+03  0.18036527552E+03  0.70211727756E+02  0.54665828724E+03  0.80271175634E+02 0.  0.
        254    2    1    2    0    0  0.50490642900E+03 -0.18036527552E+03 -0.78510033580E+02  0.10497618281E+04  0.89909617711E+03 0.  0.
         23    2    4    4    0    0  0.30122363181E+03  0.34103040432E+03 -0.12509018605E+03  0.48069327623E+03  0.91548119261E+02 0.  0.
         23    2    4    4    0    0  0.20368279720E+03 -0.52139567985E+03  0.46580152467E+02  0.56906855186E+03  0.91264282596E+02 0.  0.
          1    1    3    3  502    0 -0.55802011441E+02  0.93125204039E+01 -0.15132319117E+02  0.58562569949E+02  0.00000000000E+00 0. -1.
         -2    1    3    3    0  502 -0.44910441756E+03  0.17105275512E+03  0.85344046873E+02  0.48809571730E+03  0.00000000000E+00 0.  1.
         13    1    5    5    0    0  0.87832954298E+02  0.14292333196E+03 -0.80697016791E+02  0.18615508373E+03  0.00000000000E+00 0.  1.
        -13    1    5    5    0    0  0.21339067751E+03  0.19810707237E+03 -0.44393169256E+02  0.29453819251E+03  0.00000000000E+00 0. -1.
          2    1    6    6  503    0  0.17629315080E+03 -0.33350267052E+03  0.34514122731E+02  0.37880671975E+03  0.00000000000E+00 0. -1.
         -2    1    6    6    0  503  0.27389646398E+02 -0.18789300933E+03  0.12066029737E+02  0.19026183211E+03  0.00000000000E+00 0.  1.
<mgrwt>
<rscale>  0 0.15963985E+04</rscale>
<asrwt>0</asrwt>
<pdfrwt beam="1">  1        1 0.12343988E+00 0.15963985E+04</pdfrwt>
<pdfrwt beam="2">  1       -2 0.12216322E+00 0.15963985E+04</pdfrwt>
<totfact> 0.93948474E+00</totfact>
</mgrwt>
</event>
<event>
12    5  0.5041746E-008  0.2171720E+04  0.7818608E-02  0.8530292E-01
         -2   -1    0    0    0  501 -0.00000000000E+00  0.00000000000E+00  0.23890001192E+04  0.23890001192E+04  0.00000000000E+00 0.  1.
          1   -1    0    0  501    0  0.00000000000E+00 -0.00000000000E+00 -0.49355050531E+03  0.49355050531E+03  0.00000000000E+00 0. -1.
        -24    2    1    2    0    0  0.23175351328E+03 -0.74074923441E+03  0.18796569235E+03  0.80265523193E+03  0.80654823973E+02 0.  0.
        254    2    1    2    0    0 -0.23175351328E+03  0.74074923441E+03  0.17074839215E+04  0.20798953926E+04  0.89891288931E+03 0.  0.
         23    2    4    4    0    0 -0.51575713799E+03  0.68591566951E+03  0.10789517890E+04  0.13817035624E+04  0.92097992805E+02 0.  0.
         23    2    4    4    0    0  0.28400362470E+03  0.54833564908E+02  0.62853213255E+03  0.69819183020E+03  0.93565011734E+02 0.  0.
          3    1    3    3  502    0  0.22353726156E+03 -0.62013049404E+03  0.16612294826E+03  0.67979965496E+03  0.00000000000E+00 0. -1.
         -4    1    3    3    0  502  0.82162517210E+01 -0.12061874037E+03  0.21842744088E+02  0.12285557696E+03  0.00000000000E+00 0.  1.
         13    1    5    5    0    0 -0.81143447365E+02  0.17097112410E+03  0.23198492145E+03  0.29938668659E+03  0.00000000000E+00 0. -1.
        -13    1    5    5    0    0 -0.43461369062E+03  0.51494454541E+03  0.84696686751E+03  0.10823168758E+04  0.00000000000E+00 0.  1.
          4    1    6    6  503    0  0.83839845010E+02  0.56479570367E+02  0.25701918273E+03  0.27618457917E+03  0.00000000000E+00 0. -1.
         -4    1    6    6    0  503  0.20016377969E+03 -0.16460054586E+01  0.37151294981E+03  0.42200725102E+03  0.00000000000E+00 0.  1.
<mgrwt>
<rscale>  0 0.21717203E+04</rscale>
<asrwt>0</asrwt>
<pdfrwt beam="1">  1        1 0.75930848E-01 0.21717203E+04</pdfrwt>
<pdfrwt beam="2">  1       -2 0.36753847E+00 0.21717203E+04</pdfrwt>
<totfact> 0.43551361E-01</totfact>
</mgrwt>
</event>
<event>
12    5  0.5041746E-008  0.1155115E+04  0.7818608E-02  0.9153078E-01
         -2   -1    0    0    0  501 -0.00000000000E+00  0.00000000000E+00  0.52147012324E+03  0.52147012324E+03  0.00000000000E+00 0.  1.
          1   -1    0    0  501    0  0.00000000000E+00 -0.00000000000E+00 -0.63967710519E+03  0.63967710519E+03  0.00000000000E+00 0. -1.
        -24    2    1    2    0    0 -0.12461386755E+03 -0.17834317836E+03 -0.10288154031E+02  0.23257381862E+03  0.81546488226E+02 0.  0.
        254    2    1    2    0    0  0.12461386755E+03  0.17834317836E+03 -0.10791882792E+03  0.92857340980E+03  0.89625174963E+03 0.  0.
         23    2    4    4    0    0  0.50542635168E+03  0.11866673285E+03 -0.62992363281E+02  0.53080316287E+03  0.90809522766E+02 0.  0.
         23    2    4    4    0    0 -0.38081248413E+03  0.59676445508E+02 -0.44926464639E+02  0.39777024693E+03  0.87311831420E+02 0.  0.
          1    1    3    3  502    0 -0.13674471715E+03 -0.16243458713E+03 -0.10005350379E+02  0.21256580111E+03  0.00000000000E+00 0. -1.
         -2    1    3    3    0  502  0.12130849600E+02 -0.15908591229E+02 -0.28280365160E+00  0.20008017514E+02  0.00000000000E+00 0.  1.
         13    1    5    5    0    0  0.40293998112E+03  0.56175752804E+02 -0.54438619326E+02  0.41046303958E+03  0.00000000000E+00 0.  1.
        -13    1    5    5    0    0  0.10248637055E+03  0.62490980047E+02 -0.85537439547E+01  0.12034012328E+03  0.00000000000E+00 0. -1.
          2    1    6    6  503    0 -0.33654004843E+03  0.65519831461E+02 -0.64737146737E+02  0.34891682487E+03  0.00000000000E+00 0. -1.
         -2    1    6    6    0  503 -0.44272435698E+02 -0.58433859534E+01  0.19810682097E+02  0.48853422062E+02  0.00000000000E+00 0.  1.
<mgrwt>
<rscale>  0 0.11551147E+04</rscale>
<asrwt>0</asrwt>
<pdfrwt beam="1">  1        1 0.98411862E-01 0.11551147E+04</pdfrwt>
<pdfrwt beam="2">  1       -2 0.80226173E-01 0.11551147E+04</pdfrwt>
<totfact> 0.37244022E+01</totfact>
</mgrwt>
</event>
<event>
12    5  0.5041746E-008  0.1265303E+04  0.7818608E-02  0.9057542E-01
          1   -1    0    0  501    0  0.00000000000E+00  0.00000000000E+00  0.15100633969E+04  0.15100633969E+04  0.00000000000E+00 0. -1.
         -2   -1    0    0    0  501 -0.00000000000E+00 -0.00000000000E+00 -0.26505366849E+03  0.26505366849E+03  0.00000000000E+00 0.  1.
        -24    2    1    2    0    0 -0.17449664071E+03  0.10727638149E+03 -0.45357350703E+01  0.22088602499E+03  0.82539466307E+02 0.  0.
        254    2    1    2    0    0  0.17449664071E+03 -0.10727638149E+03  0.12495454635E+04  0.15542310404E+04  0.90128406288E+03 0.  0.
         23    2    4    4    0    0  0.38582491941E+02 -0.45966729144E+03  0.96296794481E+03  0.10713723887E+04  0.88027864745E+02 0.  0.
         23    2    4    4    0    0  0.13591414877E+03  0.35239090995E+03  0.28657751869E+03  0.48285865175E+03  0.91508437325E+02 0.  0.
          1    1    3    3  502    0 -0.18138336317E+02 -0.34765998514E+01 -0.21716732222E+02  0.28507936601E+02  0.00000000000E+00 0. -1.
         -2    1    3    3    0  502 -0.15635830439E+03  0.11075298134E+03  0.17180997151E+02  0.19237808839E+03  0.00000000000E+00 0.  1.
         13    1    5    5    0    0  0.10560426447E+02 -0.43981105166E+01  0.11504289081E+02  0.16223891338E+02  0.00000000000E+00 0. -1.
        -13    1    5    5    0    0  0.28022065494E+02 -0.45526918092E+03  0.95146365573E+03  0.10551484973E+04  0.00000000000E+00 0.  1.
          3    1    6    6  503    0  0.48927347530E+02  0.22811166087E+03  0.14093787446E+03  0.27256613806E+03  0.00000000000E+00 0. -1.
         -3    1    6    6    0  503  0.86986801237E+02  0.12427924907E+03  0.14563964423E+03  0.21029251368E+03  0.00000000000E+00 0.  1.
<mgrwt>
<rscale>  0 0.12653029E+04</rscale>
<asrwt>0</asrwt>
<pdfrwt beam="1">  1        1 0.23231744E+00 0.12653029E+04</pdfrwt>
<pdfrwt beam="2">  1       -2 0.40777488E-01 0.12653029E+04</pdfrwt>
<totfact> 0.31684411E+01</totfact>
</mgrwt>
</event>
<event>
12    5  0.5041746E-008  0.2087866E+04  0.7818608E-02  0.8566608E-01
         -2   -1    0    0    0  501 -0.00000000000E+00  0.00000000000E+00  0.51539767800E+03  0.51539767800E+03  0.00000000000E+00 0.  1.
          1   -1    0    0  501    0  0.00000000000E+00 -0.00000000000E+00 -0.21144753130E+04  0.21144753130E+04  0.00000000000E+00 0. -1.
        -24    2    1    2    0    0 -0.33840203468E+03  0.52622666046E+03  0.69259018815E+02  0.63446562689E+03  0.79494558103E+02 0.  0.
        254    2    1    2    0    0  0.33840203468E+03 -0.52622666046E+03 -0.16683366538E+04  0.19954073641E+04  0.89826105506E+03 0.  0.
         23    2    4    4    0    0  0.35522916891E+03  0.11549392564E+03 -0.96417036349E+03  0.10384800947E+04  0.96383649292E+02 0.  0.
         23    2    4    4    0    0 -0.16827134234E+02 -0.64172058609E+03 -0.70416629031E+03  0.95692726945E+03  0.88154248595E+02 0.  0.
          3    1    3    3  502    0 -0.10071379928E+02  0.12496972950E+02  0.15663611854E+02  0.22426675252E+02  0.00000000000E+00 0. -1.
         -4    1    3    3    0  502 -0.32833065475E+03  0.51372968751E+03  0.53595406962E+02  0.61203895164E+03  0.00000000000E+00 0.  1.
         13    1    5    5    0    0  0.28217843984E+03  0.48434864080E+02 -0.69789536911E+03  0.75433981347E+03  0.00000000000E+00 0. -1.
        -13    1    5    5    0    0  0.73050729069E+02  0.67059061556E+02 -0.26627499439E+03  0.28414028118E+03  0.00000000000E+00 0.  1.
          1    1    6    6  503    0 -0.41624297841E+02 -0.35532275372E+03 -0.34638437813E+03  0.49796483700E+03  0.00000000000E+00 0. -1.
         -1    1    6    6    0  503  0.24797163607E+02 -0.28639783237E+03 -0.35778191219E+03  0.45896243245E+03  0.00000000000E+00 0.  1.
<mgrwt>
<rscale>  0 0.20878656E+04</rscale>
<asrwt>0</asrwt>
<pdfrwt beam="1">  1        1 0.32530389E+00 0.20878656E+04</pdfrwt>
<pdfrwt beam="2">  1       -2 0.79291950E-01 0.20878656E+04</pdfrwt>
<totfact> 0.28410972E+00</totfact>
</mgrwt>
</event>
<event>
12    5  0.5041746E-008  0.1128894E+04  0.7818608E-02  0.9177478E-01
         -2   -1    0    0    0  501 -0.00000000000E+00  0.00000000000E+00  0.18840531201E+04  0.18840531201E+04  0.00000000000E+00 0.  1.
          1   -1    0    0  501    0  0.00000000000E+00 -0.00000000000E+00 -0.16910378767E+03  0.16910378767E+03  0.00000000000E+00 0. -1.
        -24    2    1    2    0    0 -0.13762058157E+03  0.13497157581E+03  0.40161999436E+03  0.45232895785E+03  0.78397165090E+02 0.  0.
        254    2    1    2    0    0  0.13762058157E+03 -0.13497157581E+03  0.13133293381E+04  0.16008279499E+04  0.89479574444E+03 0.  0.
         23    2    4    4    0    0 -0.18784575571E+03  0.69370917819E+01  0.11991440778E+04  0.12172358561E+04  0.91555769651E+02 0.  0.
         23    2    4    4    0    0  0.32546633728E+03 -0.14190866759E+03  0.11418526029E+03  0.38359209381E+03  0.89656088048E+02 0.  0.
          3    1    3    3  502    0 -0.20980495345E-01  0.42029293763E+02  0.83405351325E+02  0.93396544926E+02  0.00000000000E+00 0. -1.
         -4    1    3    3    0  502 -0.13759960107E+03  0.92942282048E+02  0.31821464304E+03  0.35893241293E+03  0.00000000000E+00 0.  1.
         13    1    5    5    0    0 -0.15785828330E+03  0.40284687831E+02  0.87965705095E+03  0.89461646585E+03  0.00000000000E+00 0. -1.
        -13    1    5    5    0    0 -0.29987472413E+02 -0.33347596049E+02  0.31948702685E+03  0.32261939029E+03  0.00000000000E+00 0.  1.
          3    1    6    6  503    0  0.24584816187E+03 -0.11226685734E+03  0.44917354067E+02  0.27397579208E+03  0.00000000000E+00 0. -1.
         -3    1    6    6    0  503  0.79618175409E+02 -0.29641810254E+02  0.69267906228E+02  0.10961630173E+03  0.00000000000E+00 0.  1.
<mgrwt>
<rscale>  0 0.11288942E+04</rscale>
<asrwt>0</asrwt>
<pdfrwt beam="1">  1        1 0.26015969E-01 0.11288942E+04</pdfrwt>
<pdfrwt beam="2">  1       -2 0.28985431E+00 0.11288942E+04</pdfrwt>
<totfact> 0.59392428E+00</totfact>
</mgrwt>
</event>
<event>
12    5  0.5041746E-008  0.2579476E+04  0.7818608E-02  0.8375206E-01
          1   -1    0    0  501    0  0.00000000000E+00  0.00000000000E+00  0.16738689331E+04  0.16738689331E+04  0.00000000000E+00 0. -1.
         -2   -1    0    0    0  501 -0.00000000000E+00 -0.00000000000E+00 -0.99375999543E+03  0.99375999543E+03  0.00000000000E+00 0.  1.
        -24    2    1    2    0    0  0.62826837019E+03  0.94230890894E+03  0.25179502912E+03  0.11629486713E+04  0.79885233372E+02 0.  0.
        254    2    1    2    0    0 -0.62826837019E+03 -0.94230890894E+03  0.42831390853E+03  0.15046802572E+04  0.89327635552E+03 0.  0.
         23    2    4    4    0    0 -0.77672860258E+03 -0.53491809197E+03  0.47782175439E+03  0.10610486745E+04  0.89810764633E+02 0.  0.
         23    2    4    4    0    0  0.14846023239E+03 -0.40739081697E+03 -0.49507845862E+02  0.44363158273E+03  0.79688368293E+02 0.  0.
          3    1    3    3  502    0  0.20872939994E+03  0.36204039768E+03  0.12087204448E+03  0.43503018641E+03  0.00000000000E+00 0. -1.
         -4    1    3    3    0  502  0.41953897025E+03  0.58026851126E+03  0.13092298464E+03  0.72791848488E+03  0.00000000000E+00 0.  1.
         13    1    5    5    0    0 -0.39335978661E+03 -0.21666118624E+03  0.22208468305E+03  0.50099460855E+03  0.00000000000E+00 0. -1.
        -13    1    5    5    0    0 -0.38336881597E+03 -0.31825690573E+03  0.25573707134E+03  0.56005406593E+03  0.00000000000E+00 0.  1.
          2    1    6    6  503    0 -0.68244976705E+01 -0.28449041517E+02 -0.14391825911E+02  0.32604392109E+02  0.00000000000E+00 0.  1.
         -2    1    6    6    0  503  0.15528473006E+03 -0.37894177546E+03 -0.35116019950E+02  0.41102719063E+03  0.00000000000E+00 0. -1.
<mgrwt>
<rscale>  0 0.25794759E+04</rscale>
<asrwt>0</asrwt>
<pdfrwt beam="1">  1        1 0.25751830E+00 0.25794759E+04</pdfrwt>
<pdfrwt beam="2">  1       -2 0.15288615E+00 0.25794759E+04</pdfrwt>
<totfact> 0.10961939E+00</totfact>
</mgrwt>
</event>
<event>
12    5  0.5041746E-008  0.1311232E+04  0.7818608E-02  0.9020705E-01
         -2   -1    0    0    0  501 -0.00000000000E+00  0.00000000000E+00  0.20377673246E+03  0.20377673246E+03  0.00000000000E+00 0.  1.
          1   -1    0    0  501    0  0.00000000000E+00 -0.00000000000E+00 -0.21093310952E+04  0.21093310952E+04  0.00000000000E+00 0. -1.
        -24    2    1    2    0    0 -0.12067878575E+03 -0.27723852850E+03 -0.24030576984E+03  0.39457117810E+03  0.80715429493E+02 0.  0.
        254    2    1    2    0    0  0.12067878575E+03  0.27723852850E+03 -0.16652485930E+04  0.19185366496E+04  0.90349622498E+03 0.  0.
         23    2    4    4    0    0  0.96097061500E+02  0.75255314010E+02  0.73260301238E+02  0.16581795979E+03  0.85032444013E+02 0.  0.
         23    2    4    4    0    0  0.24581724250E+02  0.20198321449E+03 -0.17385088942E+04  0.17527186898E+04  0.90598843090E+02 0.  0.
          3    1    3    3  502    0  0.27288821999E+01  0.45615166100E+01 -0.41344726526E+01  0.67340994913E+01  0.00000000000E+00 0. -1.
         -4    1    3    3    0  502 -0.12340766795E+03 -0.28180004511E+03 -0.23617129719E+03  0.38783707861E+03  0.00000000000E+00 0.  1.
         13    1    5    5    0    0  0.99730320502E+02  0.43715605040E+02  0.77686782227E+02  0.13376257729E+03  0.00000000000E+00 0. -1.
        -13    1    5    5    0    0 -0.36332590019E+01  0.31539708970E+02 -0.44264809890E+01  0.32055382494E+02  0.00000000000E+00 0.  1.
          4    1    6    6  503    0 -0.29108278344E+02  0.31229500445E+02 -0.27273960957E+03  0.27606062413E+03  0.00000000000E+00 0.  1.
         -4    1    6    6    0  503  0.53690002595E+02  0.17075371404E+03 -0.14657692846E+04  0.14766580657E+04  0.00000000000E+00 0. -1.
<mgrwt>
<rscale>  0 0.13112324E+04</rscale>
<asrwt>0</asrwt>
<pdfrwt beam="1">  1        1 0.32451249E+00 0.13112324E+04</pdfrwt>
<pdfrwt beam="2">  1       -2 0.31350265E-01 0.13112324E+04</pdfrwt>
<totfact> 0.20473997E+01</totfact>
</mgrwt>
</event>
<event>
12    5  0.5041746E-008  0.2314881E+04  0.7818608E-02  0.8472077E-01
          1   -1    0    0  501    0  0.00000000000E+00  0.00000000000E+00  0.71904439907E+03  0.71904439907E+03  0.00000000000E+00 0. -1.
         -2   -1    0    0    0  501 -0.00000000000E+00 -0.00000000000E+00 -0.18631241972E+04  0.18631241972E+04  0.00000000000E+00 0.  1.
        -24    2    1    2    0    0  0.84778895614E+03  0.44370334750E+03 -0.62273971122E+03  0.11444668351E+04  0.79879996996E+02 0.  0.
        254    2    1    2    0    0 -0.84778895614E+03 -0.44370334750E+03 -0.52134008689E+03  0.14377017612E+04  0.93785504912E+03 0.  0.
         23    2    4    4    0    0 -0.34735272366E+03  0.23346820493E+03 -0.39302701614E+03  0.58109819724E+03  0.89685907878E+02 0.  0.
         23    2    4    4    0    0 -0.50043623247E+03 -0.67717155243E+03 -0.12831307075E+03  0.85660356393E+03  0.91146516241E+02 0.  0.
          3    1    3    3  502    0  0.55414186476E+03  0.32197393161E+03 -0.38646170705E+03  0.74839365973E+03  0.00000000000E+00 0. -1.
         -4    1    3    3    0  502  0.29364709138E+03  0.12172941589E+03 -0.23627800417E+03  0.39607317534E+03  0.00000000000E+00 0.  1.
         13    1    5    5    0    0 -0.18815112117E+03  0.12614536847E+03 -0.27269400724E+03  0.35450743288E+03  0.00000000000E+00 0.  1.
        -13    1    5    5    0    0 -0.15920160249E+03  0.10732283646E+03 -0.12033300890E+03  0.22659076436E+03  0.00000000000E+00 0. -1.
          1    1    6    6  503    0 -0.20685899255E+03 -0.30222657562E+03 -0.99561098163E+02  0.37953123465E+03  0.00000000000E+00 0. -1.
         -1    1    6    6    0  503 -0.29357723992E+03 -0.37494497681E+03 -0.28751972589E+02  0.47707232928E+03  0.00000000000E+00 0.  1.
<mgrwt>
<rscale>  0 0.23148814E+04</rscale>
<asrwt>0</asrwt>
<pdfrwt beam="1">  1        1 0.11062222E+00 0.23148814E+04</pdfrwt>
<pdfrwt beam="2">  1       -2 0.28663449E+00 0.23148814E+04</pdfrwt>
<totfact> 0.79376836E-01</totfact>
</mgrwt>
</event>
<event>
12    5  0.5041746E-008  0.1386873E+04  0.7818608E-02  0.8963375E-01
         -2   -1    0    0    0  501 -0.00000000000E+00  0.00000000000E+00  0.20032270322E+03  0.20032270322E+03  0.00000000000E+00 0.  1.
          1   -1    0    0  501    0  0.00000000000E+00 -0.00000000000E+00 -0.24003995317E+04  0.24003995317E+04  0.00000000000E+00 0. -1.
        -24    2    1    2    0    0 -0.14796706068E+03  0.20134544123E+03 -0.66031775297E+02  0.27055883336E+03  0.80047793267E+02 0.  0.
        254    2    1    2    0    0  0.14796706068E+03 -0.20134544123E+03 -0.21340450532E+04  0.23301634016E+04  0.90170890604E+03 0.  0.
         23    2    4    4    0    0  0.89056808353E+02  0.12633412677E+03 -0.19098023388E+04  0.19183606118E+04  0.94186181941E+02 0.  0.
         23    2    4    4    0    0  0.58910252329E+02 -0.32767956801E+03 -0.22424271442E+03  0.41180278981E+03  0.91937074182E+02 0.  0.
          3    1    3    3  502    0 -0.45424650654E+02  0.12872609675E+03 -0.28855178446E+02  0.13952214231E+03  0.00000000000E+00 0. -1.
         -4    1    3    3    0  502 -0.10254241003E+03  0.72619344483E+02 -0.37176596851E+02  0.13103669105E+03  0.00000000000E+00 0.  1.
         13    1    5    5    0    0  0.10364107627E+03  0.78783032081E+02 -0.14705530607E+04  0.14763043532E+04  0.00000000000E+00 0. -1.
        -13    1    5    5    0    0 -0.14584267918E+02  0.47551094693E+02 -0.43924927808E+03  0.44205625860E+03  0.00000000000E+00 0.  1.
          1    1    6    6  503    0  0.61458574574E+02 -0.33257409875E+03 -0.21416017350E+03  0.40030896500E+03  0.00000000000E+00 0. -1.
         -1    1    6    6    0  503 -0.25483222441E+01  0.48945307416E+01 -0.10082540916E+02  0.11493824810E+02  0.00000000000E+00 0.  1.
<mgrwt>
<rscale>  0 0.13868735E+04</rscale>
<asrwt>0</asrwt>
<pdfrwt beam="1">  1        1 0.36929226E+00 0.13868735E+04</pdfrwt>
<pdfrwt beam="2">  1       -2 0.30818876E-01 0.13868735E+04</pdfrwt>
<totfact> 0.13305970E+01</totfact>
</mgrwt>
</event>
<event>
12    5  0.5041746E-008  0.1731541E+04  0.7818608E-02  0.8743577E-01
          1   -1    0    0  501    0  0.00000000000E+00  0.00000000000E+00  0.37590054975E+03  0.37590054975E+03  0.00000000000E+00 0. -1.
         -2   -1    0    0    0  501 -0.00000000000E+00 -0.00000000000E+00 -0.19940339244E+04  0.19940339244E+04  0.00000000000E+00 0.  1.
        -24    2    1    2    0    0  0.75769880369E+01  0.21255002541E+03  0.21940844983E+03  0.31453856832E+03  0.74562182470E+02 0.  0.
        254    2    1    2    0    0 -0.75769880369E+01 -0.21255002541E+03 -0.18375418245E+04  0.20553959059E+04  0.89602312973E+03 0.  0.
         23    2    4    4    0    0 -0.35227316463E+03  0.65437176683E+02 -0.38320548776E+03  0.53245498423E+03  0.91013503235E+02 0.  0.
         23    2    4    4    0    0  0.34469617660E+03 -0.27798720209E+03 -0.14543363368E+04  0.15229409216E+04  0.90346730618E+02 0.  0.
          3    1    3    3  502    0 -0.24158434106E+01  0.21505458879E+03  0.20888823859E+03  0.29981429032E+03  0.00000000000E+00 0. -1.
         -4    1    3    3    0  502  0.99928314475E+01 -0.25045633812E+01  0.10520211234E+02  0.14724277995E+02  0.00000000000E+00 0.  1.
         13    1    5    5    0    0 -0.15308656734E+03  0.52571086719E+02 -0.11695694435E+03  0.19969512536E+03  0.00000000000E+00 0.  1.
        -13    1    5    5    0    0 -0.19918659729E+03  0.12866089964E+02 -0.26624854341E+03  0.33275985888E+03  0.00000000000E+00 0. -1.
          1    1    6    6  503    0  0.34502232015E+03 -0.25617988153E+03 -0.13690364835E+04  0.14348970089E+04  0.00000000000E+00 0. -1.
         -1    1    6    6    0  503 -0.32614355832E+00 -0.21807320562E+02 -0.85299853259E+02  0.88043912713E+02  0.00000000000E+00 0.  1.
<mgrwt>
<rscale>  0 0.17315409E+04</rscale>
<asrwt>0</asrwt>
<pdfrwt beam="1">  1        1 0.57830855E-01 0.17315409E+04</pdfrwt>
<pdfrwt beam="2">  1       -2 0.30677444E+00 0.17315409E+04</pdfrwt>
<totfact> 0.15657046E+00</totfact>
</mgrwt>
</event>
<event>
12    5  0.5041746E-008  0.1640823E+04  0.7818608E-02  0.8795854E-01
          1   -1    0    0  501    0  0.00000000000E+00  0.00000000000E+00  0.65501759729E+03  0.65501759729E+03  0.00000000000E+00 0. -1.
         -2   -1    0    0    0  501 -0.00000000000E+00 -0.00000000000E+00 -0.10275674093E+04  0.10275674093E+04  0.00000000000E+00 0.  1.
        -24    2    1    2    0    0  0.36692435465E+03 -0.13092161707E+03  0.29697586348E+03  0.49643352280E+03  0.80483707774E+02 0.  0.
        254    2    1    2    0    0 -0.36692435465E+03  0.13092161707E+03 -0.66952567550E+03  0.11861514838E+04  0.89828545602E+03 0.  0.
         23    2    4    4    0    0  0.26089248965E+03  0.18455274387E+03 -0.31148596365E+03  0.45582162841E+03  0.92872196881E+02 0.  0.
         23    2    4    4    0    0 -0.62781684430E+03 -0.53631126791E+02 -0.35803971185E+03  0.73032985539E+03  0.90327042752E+02 0.  0.
          3    1    3    3  502    0  0.13716481097E+03 -0.87948803896E+02  0.14049518529E+03  0.21514663503E+03  0.00000000000E+00 0. -1.
         -4    1    3    3    0  502  0.22975954368E+03 -0.42972813178E+02  0.15648067819E+03  0.28128688777E+03  0.00000000000E+00 0.  1.
         13    1    5    5    0    0  0.16122300677E+03  0.58308162350E+02 -0.17319155778E+03  0.24369656418E+03  0.00000000000E+00 0. -1.
        -13    1    5    5    0    0  0.99669482883E+02  0.12624458152E+03 -0.13829440587E+03  0.21212506423E+03  0.00000000000E+00 0.  1.
          4    1    6    6  503    0 -0.32654750692E+03 -0.31363564265E+00 -0.22586166808E+03  0.39704768700E+03  0.00000000000E+00 0. -1.
         -4    1    6    6    0  503 -0.30126933738E+03 -0.53317491148E+02 -0.13217804378E+03  0.33328216838E+03  0.00000000000E+00 0.  1.
<mgrwt>
<rscale>  0 0.16408226E+04</rscale>
<asrwt>0</asrwt>
<pdfrwt beam="1">  1        1 0.10077194E+00 0.16408226E+04</pdfrwt>
<pdfrwt beam="2">  1       -2 0.15808729E+00 0.16408226E+04</pdfrwt>
<totfact> 0.65564162E+00</totfact>
</mgrwt>
</event>
<event>
12    5  0.5041746E-008  0.2006983E+04  0.7818608E-02  0.8603363E-01
         -2   -1    0    0    0  501 -0.00000000000E+00  0.00000000000E+00  0.92303965421E+03  0.92303965421E+03  0.00000000000E+00 0.  1.
          1   -1    0    0  501    0  0.00000000000E+00 -0.00000000000E+00 -0.10909556631E+04  0.10909556631E+04  0.00000000000E+00 0. -1.
        -24    2    1    2    0    0 -0.86838419072E+02 -0.19358783595E+03  0.70177709127E+03  0.73750343487E+03  0.80019181147E+02 0.  0.
        254    2    1    2    0    0  0.86838419072E+02  0.19358783595E+03 -0.86969310020E+03  0.12764918825E+04  0.90997157992E+03 0.  0.
         23    2    4    4    0    0 -0.28926997243E+03  0.38255048605E+03 -0.34447834156E+03  0.59745070515E+03  0.90884684906E+02 0.  0.
         23    2    4    4    0    0  0.37610839150E+03 -0.18896265011E+03 -0.52521475865E+03  0.67904117734E+03  0.89899791649E+02 0.  0.
          3    1    3    3  502    0 -0.21309574019E+01  0.75008134639E+01  0.15146544901E+02  0.17035874046E+02  0.00000000000E+00 0. -1.
         -4    1    3    3    0  502 -0.84707461670E+02 -0.20108864941E+03  0.68663054637E+03  0.72046756082E+03  0.00000000000E+00 0.  1.
         13    1    5    5    0    0 -0.14971863250E+03  0.14283754231E+03 -0.18458497132E+03  0.27729018022E+03  0.00000000000E+00 0.  1.
        -13    1    5    5    0    0 -0.13955133993E+03  0.23971294374E+03 -0.15989337024E+03  0.32016052492E+03  0.00000000000E+00 0. -1.
          3    1    6    6  503    0  0.25443902076E+03 -0.16966008024E+03 -0.39840709136E+03  0.50224691991E+03  0.00000000000E+00 0. -1.
         -3    1    6    6    0  503  0.12166937074E+03 -0.19302569864E+02 -0.12680766729E+03  0.17679425744E+03  0.00000000000E+00 0.  1.
<mgrwt>
<rscale>  0 0.20069831E+04</rscale>
<asrwt>0</asrwt>
<pdfrwt beam="1">  1        1 0.16783933E+00 0.20069831E+04</pdfrwt>
<pdfrwt beam="2">  1       -2 0.14200610E+00 0.20069831E+04</pdfrwt>
<totfact> 0.36237369E+00</totfact>
</mgrwt>
</event>
<event>
12    5  0.5041746E-008  0.1026033E+04  0.7818608E-02  0.9280444E-01
         -2   -1    0    0    0  501 -0.00000000000E+00  0.00000000000E+00  0.40548289313E+03  0.40548289313E+03  0.00000000000E+00 0.  1.
          3   -1    0    0  501    0  0.00000000000E+00 -0.00000000000E+00 -0.64906781709E+03  0.64906781709E+03  0.00000000000E+00 0. -1.
        -24    2    1    2    0    0 -0.22434628412E+03 -0.20561200948E+02  0.13873188777E+02  0.24801027306E+03  0.10277456881E+03 0.  0.
        254    2    1    2    0    0  0.22434628412E+03  0.20561200948E+02 -0.25745811273E+03  0.80654043716E+03  0.73038947061E+03 0.  0.
         23    2    4    4    0    0 -0.13233595111E+03  0.78589357571E+02 -0.37418908249E+03  0.41500130712E+03  0.92301269643E+02 0.  0.
         23    2    4    4    0    0  0.35668223523E+03 -0.58028156623E+02  0.11673096976E+03  0.39153913004E+03  0.95327263474E+02 0.  0.
          3    1    3    3  502    0 -0.14148441737E+03 -0.52070469247E+02 -0.22034341532E+02  0.15236366474E+03  0.00000000000E+00 0. -1.
         -4    1    3    3    0  502 -0.82861866748E+02  0.31509268299E+02  0.35907530309E+02  0.95646608318E+02  0.00000000000E+00 0.  1.
         13    1    5    5    0    0 -0.11450145465E+03  0.17511777305E+02 -0.23981118514E+03  0.26632057746E+03  0.00000000000E+00 0. -1.
        -13    1    5    5    0    0 -0.17834496453E+02  0.61077580267E+02 -0.13437789735E+03  0.14868072966E+03  0.00000000000E+00 0.  1.
          4    1    6    6  503    0  0.92626946982E+02 -0.33245167931E+02 -0.74431522728E+01  0.98693429435E+02  0.00000000000E+00 0.  1.
         -4    1    6    6    0  503  0.26405528825E+03 -0.24782988692E+02  0.12417412203E+03  0.29284570060E+03  0.00000000000E+00 0. -1.
<mgrwt>
<rscale>  0 0.10260329E+04</rscale>
<asrwt>0</asrwt>
<pdfrwt beam="1">  1        3 0.99856587E-01 0.10260329E+04</pdfrwt>
<pdfrwt beam="2">  1       -2 0.62381984E-01 0.10260329E+04</pdfrwt>
<totfact> 0.86400985E+00</totfact>
</mgrwt>
</event>
<event>
12    5  0.5041746E-008  0.2519731E+04  0.7818608E-02  0.8395990E-01
          1   -1    0    0  501    0  0.00000000000E+00  0.00000000000E+00  0.32157044349E+04  0.32157044349E+04  0.00000000000E+00 0. -1.
         -2   -1    0    0    0  501 -0.00000000000E+00 -0.00000000000E+00 -0.49359653030E+03  0.49359653030E+03  0.00000000000E+00 0.  1.
        -24    2    1    2    0    0 -0.10851912687E+04  0.91662206209E+02  0.94834549328E+03  0.14464300140E+04  0.82210469348E+02 0.  0.
        254    2    1    2    0    0  0.10851912687E+04 -0.91662206209E+02  0.17737624113E+04  0.22628709512E+04  0.88786812089E+03 0.  0.
         23    2    4    4    0    0  0.89861632900E+03  0.25563344050E+03  0.90105975593E+03  0.13011959172E+04  0.91336567962E+02 0.  0.
         23    2    4    4    0    0  0.18657493967E+03 -0.34729564671E+03  0.87270265540E+03  0.96167503391E+03  0.88229653565E+02 0.  0.
          1    1    3    3  502    0 -0.34926523108E+03  0.46187193568E+02  0.35332997506E+03  0.49896044910E+03  0.00000000000E+00 0. -1.
         -2    1    3    3    0  502 -0.73592603759E+03  0.45475012642E+02  0.59501551822E+03  0.94746956495E+03  0.00000000000E+00 0.  1.
         13    1    5    5    0    0  0.17768083286E+03  0.74277610976E+02  0.22721194671E+03  0.29784712620E+03  0.00000000000E+00 0.  1.
        -13    1    5    5    0    0  0.72093549614E+03  0.18135582953E+03  0.67384780923E+03  0.10033487910E+04  0.00000000000E+00 0. -1.
          3    1    6    6  503    0  0.72294233335E+02 -0.22046601352E+03  0.46494591721E+03  0.51962142490E+03  0.00000000000E+00 0. -1.
         -3    1    6    6    0  503  0.11428070634E+03 -0.12682963320E+03  0.40775673819E+03  0.44205360900E+03  0.00000000000E+00 0.  1.
<mgrwt>
<rscale>  0 0.25197306E+04</rscale>
<asrwt>0</asrwt>
<pdfrwt beam="1">  1        1 0.49472375E+00 0.25197306E+04</pdfrwt>
<pdfrwt beam="2">  1       -2 0.75937930E-01 0.25197306E+04</pdfrwt>
<totfact> 0.50125729E-01</totfact>
</mgrwt>
</event>
<event>
12    5  0.5041746E-008  0.1545387E+04  0.7818608E-02  0.8854819E-01
         -2   -1    0    0    0  501 -0.00000000000E+00  0.00000000000E+00  0.45717347094E+03  0.45717347094E+03  0.00000000000E+00 0.  1.
          1   -1    0    0  501    0  0.00000000000E+00 -0.00000000000E+00 -0.13059716968E+04  0.13059716968E+04  0.00000000000E+00 0. -1.
        -24    2    1    2    0    0  0.13527045662E+03 -0.40370183975E+03  0.20451317645E+02  0.43347924750E+03  0.78820871407E+02 0.  0.
        254    2    1    2    0    0 -0.13527045662E+03  0.40370183975E+03 -0.86924954355E+03  0.13296659203E+04  0.91167067449E+03 0.  0.
         23    2    4    4    0    0 -0.26949599526E+03  0.34487434879E+03 -0.10119757734E+04  0.11064414702E+04  0.92473526106E+02 0.  0.
         23    2    4    4    0    0  0.13422553864E+03  0.58827490964E+02  0.14272622987E+03  0.22322445009E+03  0.89337615298E+02 0.  0.
          3    1    3    3  502    0  0.10963561821E+02 -0.15026508685E+03  0.39385935166E+01  0.15071598633E+03  0.00000000000E+00 0. -1.
         -4    1    3    3    0  502  0.12430689480E+03 -0.25343675290E+03  0.16512724128E+02  0.28276326118E+03  0.00000000000E+00 0.  1.
         13    1    5    5    0    0 -0.71815328024E+02  0.35752803643E+02 -0.19446750560E+03  0.21036471910E+03  0.00000000000E+00 0. -1.
        -13    1    5    5    0    0 -0.19768066724E+03  0.30912154515E+03 -0.81750826783E+03  0.89607675109E+03  0.00000000000E+00 0.  1.
          4    1    6    6  503    0  0.17436658463E+02 -0.19722296246E+02  0.59988323957E+01  0.26999852179E+02  0.00000000000E+00 0. -1.
         -4    1    6    6    0  503  0.11678888018E+03  0.78549787210E+02  0.13672739748E+03  0.19622459791E+03  0.00000000000E+00 0.  1.
<mgrwt>
<rscale>  0 0.15453875E+04</rscale>
<asrwt>0</asrwt>
<pdfrwt beam="1">  1        1 0.20091872E+00 0.15453875E+04</pdfrwt>
<pdfrwt beam="2">  1       -2 0.70334380E-01 0.15453875E+04</pdfrwt>
<totfact> 0.13931478E+01</totfact>
</mgrwt>
</event>
<event>
12    5  0.5041746E-008  0.2569270E+04  0.7818608E-02  0.8378715E-01
          1   -1    0    0  501    0  0.00000000000E+00  0.00000000000E+00  0.58257742673E+03  0.58257742673E+03  0.00000000000E+00 0. -1.
         -2   -1    0    0    0  501 -0.00000000000E+00 -0.00000000000E+00 -0.28327350537E+04  0.28327350537E+04  0.00000000000E+00 0.  1.
        -24    2    1    2    0    0 -0.98572430168E+02  0.97898464021E+03 -0.16889330312E+04  0.19563756167E+04  0.82360913975E+02 0.  0.
        254    2    1    2    0    0  0.98572430168E+02 -0.97898464021E+03 -0.56122459580E+03  0.14589368637E+04  0.91945433580E+03 0.  0.
         23    2    4    4    0    0  0.25456315639E+03 -0.23666031345E+03 -0.59354157813E+03  0.69408810390E+03  0.93038628811E+02 0.  0.
         23    2    4    4    0    0 -0.15599072622E+03 -0.74232432676E+03  0.32316982330E+02  0.76484875982E+03  0.92578211726E+02 0.  0.
          1    1    3    3  502    0 -0.28601417594E+02  0.20120419280E+03 -0.28791334179E+03  0.35241347970E+03  0.00000000000E+00 0. -1.
         -2    1    3    3    0  502 -0.69971012575E+02  0.77778044741E+03 -0.14010196894E+04  0.16039621370E+04  0.00000000000E+00 0.  1.
         13    1    5    5    0    0  0.18955492488E+03 -0.15124502917E+03 -0.48036587072E+03  0.53810547121E+03  0.00000000000E+00 0.  1.
        -13    1    5    5    0    0  0.65008231510E+02 -0.85415284278E+02 -0.11317570741E+03  0.15598263269E+03  0.00000000000E+00 0. -1.
          3    1    6    6  503    0 -0.63277958420E+02 -0.12696535794E+03  0.65933457472E+01  0.14201328933E+03  0.00000000000E+00 0. -1.
         -3    1    6    6    0  503 -0.92712767799E+02 -0.61535896882E+03  0.25723636583E+02  0.62283547049E+03  0.00000000000E+00 0.  1.
<mgrwt>
<rscale>  0 0.25692703E+04</rscale>
<asrwt>0</asrwt>
<pdfrwt beam="1">  1        1 0.89627295E-01 0.25692703E+04</pdfrwt>
<pdfrwt beam="2">  1       -2 0.43580540E+00 0.25692703E+04</pdfrwt>
<totfact> 0.11912439E-01</totfact>
</mgrwt>
</event>
<event>
12    5  0.5041746E-008  0.1521462E+04  0.7818608E-02  0.8870305E-01
          1   -1    0    0  501    0  0.00000000000E+00  0.00000000000E+00  0.15332863525E+04  0.15332863525E+04  0.00000000000E+00 0. -1.
         -2   -1    0    0    0  501 -0.00000000000E+00 -0.00000000000E+00 -0.37743241079E+03  0.37743241079E+03  0.00000000000E+00 0.  1.
        -24    2    1    2    0    0  0.20241740640E+03 -0.38380593092E+03  0.66801261955E+03  0.80009045912E+03  0.74993892273E+02 0.  0.
        254    2    1    2    0    0 -0.20241740640E+03  0.38380593092E+03  0.48784132213E+03  0.11106283041E+04  0.89845772041E+03 0.  0.
         23    2    4    4    0    0  0.18999489969E+03  0.34285701478E+03  0.57004739683E+03  0.69759172042E+03  0.89616846992E+02 0.  0.
         23    2    4    4    0    0 -0.39241230609E+03  0.40948916141E+02 -0.82206074702E+02  0.41303658373E+03  0.90427590234E+02 0.  0.
          1    1    3    3  502    0  0.64168337700E+02 -0.12314162997E+03  0.28094549952E+03  0.31338763584E+03  0.00000000000E+00 0. -1.
         -2    1    3    3    0  502  0.13824906870E+03 -0.26066430095E+03  0.38706712003E+03  0.48670282328E+03  0.00000000000E+00 0.  1.
         13    1    5    5    0    0  0.17009346576E+03  0.34128593112E+03  0.55034872330E+03  0.66954580957E+03  0.00000000000E+00 0. -1.
        -13    1    5    5    0    0  0.19901433926E+02  0.15710836613E+01  0.19698673531E+02  0.28045910844E+02  0.00000000000E+00 0.  1.
          2    1    6    6  503    0 -0.31055925759E+03 -0.52758559751E+01 -0.68080601168E+02  0.31797775926E+03  0.00000000000E+00 0. -1.
         -2    1    6    6    0  503 -0.81853048504E+02  0.46224772117E+02 -0.14125473534E+02  0.95058824468E+02  0.00000000000E+00 0.  1.
<mgrwt>
<rscale>  0 0.15214624E+04</rscale>
<asrwt>0</asrwt>
<pdfrwt beam="1">  1        1 0.23589020E+00 0.15214624E+04</pdfrwt>
<pdfrwt beam="2">  1       -2 0.58066526E-01 0.15214624E+04</pdfrwt>
<totfact> 0.14588554E+01</totfact>
</mgrwt>
</event>
<event>
12    5  0.5041746E-008  0.2354818E+04  0.7818608E-02  0.8456615E-01
         -2   -1    0    0    0  501 -0.00000000000E+00  0.00000000000E+00  0.61275283482E+03  0.61275283482E+03  0.00000000000E+00 0.  1.
          1   -1    0    0  501    0  0.00000000000E+00 -0.00000000000E+00 -0.22623997217E+04  0.22623997217E+04  0.00000000000E+00 0. -1.
        -24    2    1    2    0    0  0.29528904747E+03 -0.95627429173E+03 -0.81074876087E+03  0.12905026015E+04  0.80170247471E+02 0.  0.
        254    2    1    2    0    0 -0.29528904747E+03  0.95627429173E+03 -0.83889812606E+03  0.15846499551E+04  0.89761309688E+03 0.  0.
         23    2    4    4    0    0 -0.57098490790E+03  0.56720061577E+03 -0.31168780224E+03  0.86792958634E+03  0.91717921974E+02 0.  0.
         23    2    4    4    0    0  0.27569586043E+03  0.38907367596E+03 -0.52721032382E+03  0.71672036875E+03  0.91382868513E+02 0.  0.
          3    1    3    3  502    0  0.29764480028E+03 -0.94395537952E+03 -0.79057985964E+03  0.12667520279E+04  0.00000000000E+00 0. -1.
         -4    1    3    3    0  502 -0.23557528144E+01 -0.12318912209E+02 -0.20168901231E+02  0.23750573597E+02  0.00000000000E+00 0.  1.
         13    1    5    5    0    0 -0.92172152857E+02  0.83727955792E+02 -0.84789815568E+02  0.15064988937E+03  0.00000000000E+00 0. -1.
        -13    1    5    5    0    0 -0.47881275504E+03  0.48347265997E+03 -0.22689798667E+03  0.71727969697E+03  0.00000000000E+00 0.  1.
          4    1    6    6  503    0  0.12963438064E+02 -0.31831486977E+01 -0.12668818369E+02  0.18403318204E+02  0.00000000000E+00 0. -1.
         -4    1    6    6    0  503  0.26273242236E+03  0.39225682466E+03 -0.51454150545E+03  0.69831705055E+03  0.00000000000E+00 0.  1.
<mgrwt>
<rscale>  0 0.23548179E+04</rscale>
<asrwt>0</asrwt>
<pdfrwt beam="1">  1        1 0.34806149E+00 0.23548179E+04</pdfrwt>
<pdfrwt beam="2">  1       -2 0.94269667E-01 0.23548179E+04</pdfrwt>
<totfact> 0.14814416E+00</totfact>
</mgrwt>
</event>
<event>
12    5  0.5041746E-008  0.2804406E+04  0.7818608E-02  0.8301902E-01
          1   -1    0    0  501    0  0.00000000000E+00  0.00000000000E+00  0.18086302507E+04  0.18086302507E+04  0.00000000000E+00 0. -1.
         -2   -1    0    0    0  501 -0.00000000000E+00 -0.00000000000E+00 -0.10871064972E+04  0.10871064972E+04  0.00000000000E+00 0.  1.
        -24    2    1    2    0    0 -0.40965680863E+03 -0.95135983733E+03 -0.40419661801E+03  0.11147945067E+04  0.80545919229E+02 0.  0.
        254    2    1    2    0    0  0.40965680863E+03  0.95135983733E+03  0.11257203715E+04  0.17809422413E+04  0.91192361037E+03 0.  0.
         23    2    4    4    0    0 -0.27869980597E+03  0.19097625243E+03  0.27019479963E+03  0.44223271707E+03  0.91755302085E+02 0.  0.
         23    2    4    4    0    0  0.68835661460E+03  0.76038358490E+03  0.85552557182E+03  0.13387095242E+04  0.90560262387E+02 0.  0.
          3    1    3    3  502    0 -0.58105893680E+02 -0.11078105788E+03 -0.23278907024E+02  0.12724246610E+03  0.00000000000E+00 0. -1.
         -4    1    3    3    0  502 -0.35155091495E+03 -0.84057877945E+03 -0.38091771098E+03  0.98755204055E+03  0.00000000000E+00 0.  1.
         13    1    5    5    0    0 -0.10900334291E+03  0.13028223292E+03  0.13089892370E+03  0.21445213267E+03  0.00000000000E+00 0. -1.
        -13    1    5    5    0    0 -0.16969646306E+03  0.60694019510E+02  0.13929587592E+03  0.22778058440E+03  0.00000000000E+00 0.  1.
          3    1    6    6  503    0  0.10985719021E+03  0.84121929417E+02  0.92397587980E+02  0.16638033391E+03  0.00000000000E+00 0. -1.
         -3    1    6    6    0  503  0.57849942440E+03  0.67626165548E+03  0.76312798384E+03  0.11723291903E+04  0.00000000000E+00 0.  1.
<mgrwt>
<rscale>  0 0.28044063E+04</rscale>
<asrwt>0</asrwt>
<pdfrwt beam="1">  1        1 0.27825081E+00 0.28044063E+04</pdfrwt>
<pdfrwt beam="2">  1       -2 0.16724715E+00 0.28044063E+04</pdfrwt>
<totfact> 0.68172648E-01</totfact>
</mgrwt>
</event>
<event>
12    5  0.5041746E-008  0.2308944E+04  0.7818608E-02  0.8474403E-01
          1   -1    0    0  501    0  0.00000000000E+00  0.00000000000E+00  0.21701061492E+04  0.21701061492E+04  0.00000000000E+00 0. -1.
         -2   -1    0    0    0  501 -0.00000000000E+00 -0.00000000000E+00 -0.61416629946E+03  0.61416629946E+03  0.00000000000E+00 0.  1.
        -24    2    1    2    0    0 -0.80078434305E+02 -0.47701062909E+03 -0.36178106315E+03  0.60934237604E+03  0.80379709302E+02 0.  0.
        254    2    1    2    0    0  0.80078434305E+02  0.47701062909E+03  0.19177209129E+04  0.21749300727E+04  0.90482905852E+03 0.  0.
         23    2    4    4    0    0 -0.30870191728E+03 -0.11864070345E+02  0.30787499534E+03  0.44563466779E+03  0.91463733129E+02 0.  0.
         23    2    4    4    0    0  0.38878035159E+03  0.48887469944E+03  0.16098459176E+04  0.17292954049E+04  0.93327838257E+02 0.  0.
          3    1    3    3  502    0  0.54828990915E+01 -0.34655972341E+01  0.11807274061E+01  0.65929252873E+01  0.00000000000E+00 0. -1.
         -4    1    3    3    0  502 -0.85561333396E+02 -0.47354503186E+03 -0.36296179056E+03  0.60274945075E+03  0.00000000000E+00 0.  1.
         13    1    5    5    0    0 -0.76745693098E+02 -0.51819159473E+01  0.27505173706E+02  0.81690196734E+02  0.00000000000E+00 0. -1.
        -13    1    5    5    0    0 -0.23195622419E+03 -0.66821543978E+01  0.28036982164E+03  0.36394447106E+03  0.00000000000E+00 0.  1.
          4    1    6    6  503    0  0.55565464963E+02  0.10781870536E+03  0.39512282807E+03  0.41332123510E+03  0.00000000000E+00 0. -1.
         -4    1    6    6    0  503  0.33321488663E+03  0.38105599408E+03  0.12147230895E+04  0.13159741698E+04  0.00000000000E+00 0.  1.
<mgrwt>
<rscale>  0 0.23089444E+04</rscale>
<asrwt>0</asrwt>
<pdfrwt beam="1">  1        1 0.33386248E+00 0.23089444E+04</pdfrwt>
<pdfrwt beam="2">  1       -2 0.94487124E-01 0.23089444E+04</pdfrwt>
<totfact> 0.17101559E+00</totfact>
</mgrwt>
</event>
<event>
12    5  0.5041746E-008  0.1802845E+04  0.7818608E-02  0.8704788E-01
          1   -1    0    0  501    0  0.00000000000E+00  0.00000000000E+00  0.17828493625E+04  0.17828493625E+04  0.00000000000E+00 0. -1.
         -2   -1    0    0    0  501 -0.00000000000E+00 -0.00000000000E+00 -0.45576629172E+03  0.45576629172E+03  0.00000000000E+00 0.  1.
        -24    2    1    2    0    0  0.15523045398E+03  0.35251643022E+03  0.12046572286E+04  0.12672367413E+04  0.79533594691E+02 0.  0.
        254    2    1    2    0    0 -0.15523045398E+03 -0.35251643022E+03  0.12242584213E+03  0.97137891287E+03  0.88330321981E+03 0.  0.
         23    2    4    4    0    0 -0.17835940167E+03 -0.63588370412E+03  0.60509619788E+02  0.66985158898E+03  0.94231501308E+02 0.  0.
         23    2    4    4    0    0  0.23128947693E+02  0.28336727391E+03  0.61916222341E+02  0.30152732388E+03  0.79076850707E+02 0.  0.
          1    1    3    3  502    0  0.15855116939E+03  0.30588363711E+03  0.10979417999E+04  0.11507299721E+04  0.00000000000E+00 0. -1.
         -2    1    3    3    0  502 -0.33207154190E+01  0.46632793104E+02  0.10671542872E+03  0.11650676920E+03  0.00000000000E+00 0.  1.
         13    1    5    5    0    0 -0.14351579765E+03 -0.53174412249E+03  0.14983949237E+02  0.55097469517E+03  0.00000000000E+00 0. -1.
        -13    1    5    5    0    0 -0.34843604020E+02 -0.10413958163E+03  0.45525670551E+02  0.11887689381E+03  0.00000000000E+00 0.  1.
          3    1    6    6  503    0  0.39864165763E+02  0.27168317783E+03  0.59600169875E+02  0.28098590904E+03  0.00000000000E+00 0. -1.
         -3    1    6    6    0  503 -0.16735218070E+02  0.11684096076E+02  0.23160524654E+01  0.20541414848E+02  0.00000000000E+00 0.  1.
<mgrwt>
<rscale>  0 0.18028451E+04</rscale>
<asrwt>0</asrwt>
<pdfrwt beam="1">  1        1 0.27428451E+00 0.18028451E+04</pdfrwt>
<pdfrwt beam="2">  1       -2 0.70117892E-01 0.18028451E+04</pdfrwt>
<totfact> 0.64190930E+00</totfact>
</mgrwt>
</event>
<event>
12    5  0.5041746E-008  0.2533311E+04  0.7818608E-02  0.8391214E-01
          1   -1    0    0  501    0  0.00000000000E+00  0.00000000000E+00  0.23579795902E+04  0.23579795902E+04  0.00000000000E+00 0. -1.
         -2   -1    0    0    0  501 -0.00000000000E+00 -0.00000000000E+00 -0.68041978189E+03  0.68041978189E+03  0.00000000000E+00 0.  1.
        -24    2    1    2    0    0  0.87524581444E+03 -0.17580973466E+02 -0.74415808349E+02  0.88197812145E+03  0.77352232473E+02 0.  0.
        254    2    1    2    0    0 -0.87524581444E+03  0.17580973466E+02  0.17519756167E+04  0.21564212507E+04  0.90242435836E+03 0.  0.
         23    2    4    4    0    0 -0.10157993574E+04  0.16385667624E+03  0.14770822836E+04  0.18024133830E+04  0.90689501765E+02 0.  0.
         23    2    4    4    0    0  0.14055354293E+03 -0.14627570278E+03  0.27489333306E+03  0.35400786770E+03  0.92754224581E+02 0.  0.
          1    1    3    3  502    0  0.73857717876E+02  0.56457214096E+01 -0.27042343542E+02  0.78855088639E+02  0.00000000000E+00 0. -1.
         -2    1    3    3    0  502  0.80138809656E+03 -0.23226694875E+02 -0.47373464806E+02  0.80312303281E+03  0.00000000000E+00 0.  1.
         13    1    5    5    0    0 -0.82873766623E+03  0.99664839577E+02  0.12144871735E+04  0.14736750979E+04  0.00000000000E+00 0.  1.
        -13    1    5    5    0    0 -0.18706169114E+03  0.64191836667E+02  0.26259511011E+03  0.32873828502E+03  0.00000000000E+00 0. -1.
          1    1    6    6  503    0  0.33256948664E+01 -0.58060579579E+02  0.92889698200E+02  0.10959282449E+03  0.00000000000E+00 0. -1.
         -1    1    6    6    0  503  0.13722784807E+03 -0.88215123199E+02  0.18200363486E+03  0.24441504322E+03  0.00000000000E+00 0.  1.
<mgrwt>
<rscale>  0 0.25333108E+04</rscale>
<asrwt>0</asrwt>
<pdfrwt beam="1">  1        1 0.36276609E+00 0.25333108E+04</pdfrwt>
<pdfrwt beam="2">  1       -2 0.10467997E+00 0.25333108E+04</pdfrwt>
<totfact> 0.97904537E-01</totfact>
</mgrwt>
</event>
<event>
12    5  0.5041746E-008  0.1232593E+04  0.7818608E-02  0.9084797E-01
         -2   -1    0    0    0  501 -0.00000000000E+00  0.00000000000E+00  0.40072316226E+03  0.40072316226E+03  0.00000000000E+00 0.  1.
          1   -1    0    0  501    0  0.00000000000E+00 -0.00000000000E+00 -0.94783918870E+03  0.94783918870E+03  0.00000000000E+00 0. -1.
        -24    2    1    2    0    0 -0.22077874404E+02 -0.11584924959E+03 -0.42319723946E+03  0.44729884563E+03  0.84094426936E+02 0.  0.
        254    2    1    2    0    0  0.22077874404E+02  0.11584924959E+03 -0.12391878699E+03  0.90126350534E+03  0.88487940371E+03 0.  0.
         23    2    4    4    0    0  0.14328210003E+03  0.38912165371E+03 -0.31938097459E+03  0.53269093550E+03  0.99045465635E+02 0.  0.
         23    2    4    4    0    0 -0.12120422563E+03 -0.27327240411E+03  0.19546218760E+03  0.36857256983E+03  0.90950543098E+02 0.  0.
          3    1    3    3  502    0 -0.26012180227E+02 -0.11817595594E+03 -0.42536392654E+03  0.44224050028E+03  0.00000000000E+00 0. -1.
         -4    1    3    3    0  502  0.39343058231E+01  0.23267063453E+01  0.21666870837E+01  0.50583453466E+01  0.00000000000E+00 0.  1.
         13    1    5    5    0    0  0.39895284266E+02  0.18659950206E+03 -0.19781734997E+03  0.27485034441E+03  0.00000000000E+00 0.  1.
        -13    1    5    5    0    0  0.10338681576E+03  0.20252215165E+03 -0.12156362462E+03  0.25784059109E+03  0.00000000000E+00 0. -1.
          4    1    6    6  503    0 -0.15283031060E+02 -0.13972274424E+03  0.70689575589E+02  0.15733096451E+03  0.00000000000E+00 0.  1.
         -4    1    6    6    0  503 -0.10592119457E+03 -0.13354965988E+03  0.12477261202E+03  0.21124160533E+03  0.00000000000E+00 0. -1.
<mgrwt>
<rscale>  0 0.12325926E+04</rscale>
<asrwt>0</asrwt>
<pdfrwt beam="1">  1        1 0.14582141E+00 0.12325926E+04</pdfrwt>
<pdfrwt beam="2">  1       -2 0.61649717E-01 0.12325926E+04</pdfrwt>
<totfact> 0.35218660E+01</totfact>
</mgrwt>
</event>
<event>
12    5  0.5041746E-008  0.1424416E+04  0.7818608E-02  0.8936332E-01
         -2   -1    0    0    0  501 -0.00000000000E+00  0.00000000000E+00  0.60277020116E+03  0.60277020116E+03  0.00000000000E+00 0.  1.
          1   -1    0    0  501    0  0.00000000000E+00 -0.00000000000E+00 -0.84151548389E+03  0.84151548389E+03  0.00000000000E+00 0. -1.
        -24    2    1    2    0    0  0.30530291442E+03  0.23726808246E+03 -0.24812286948E+03  0.46653006378E+03  0.81113066422E+02 0.  0.
        254    2    1    2    0    0 -0.30530291442E+03 -0.23726808246E+03  0.93775867535E+01  0.97775562127E+03  0.89800451183E+03 0.  0.
         23    2    4    4    0    0  0.15287918857E+03  0.22252999326E+03 -0.12393974581E+03  0.31038936014E+03  0.89938034779E+02 0.  0.
         23    2    4    4    0    0 -0.45818210299E+03 -0.45979807572E+03  0.13331733256E+03  0.66736626113E+03  0.79114508107E+02 0.  0.
          3    1    3    3  502    0  0.26488068163E+03  0.23077711347E+03 -0.23805521045E+03  0.42437028033E+03  0.00000000000E+00 0. -1.
         -4    1    3    3    0  502  0.40422232796E+02  0.64909689896E+01 -0.10067659023E+02  0.42159783453E+02  0.00000000000E+00 0.  1.
         13    1    5    5    0    0  0.13349908590E+03  0.22160368694E+03 -0.95107596664E+02  0.27563681711E+03  0.00000000000E+00 0. -1.
        -13    1    5    5    0    0  0.19380102666E+02  0.92630631490E+00 -0.28832149143E+02  0.34752543028E+02  0.00000000000E+00 0.  1.
          1    1    6    6  503    0 -0.40993728312E+03 -0.40142719329E+03  0.91943697887E+02  0.58107315476E+03  0.00000000000E+00 0. -1.
         -1    1    6    6    0  503 -0.48244819874E+02 -0.58370882425E+02  0.41373634674E+02  0.86293106364E+02  0.00000000000E+00 0.  1.
<mgrwt>
<rscale>  0 0.14244163E+04</rscale>
<asrwt>0</asrwt>
<pdfrwt beam="1">  1        1 0.12946392E+00 0.14244163E+04</pdfrwt>
<pdfrwt beam="2">  1       -2 0.92733877E-01 0.14244163E+04</pdfrwt>
<totfact> 0.17121265E+01</totfact>
</mgrwt>
</event>
<event>
12    5  0.5041746E-008  0.1728742E+04  0.7818608E-02  0.8745139E-01
          1   -1    0    0  501    0  0.00000000000E+00  0.00000000000E+00  0.29460895577E+04  0.29460895577E+04  0.00000000000E+00 0. -1.
         -2   -1    0    0    0  501 -0.00000000000E+00 -0.00000000000E+00 -0.25360309824E+03  0.25360309824E+03  0.00000000000E+00 0.  1.
        -24    2    1    2    0    0  0.21636146912E+03 -0.20102076091E+03 -0.40336549077E+02  0.30954389756E+03  0.83479073346E+02 0.  0.
        254    2    1    2    0    0 -0.21636146912E+03  0.20102076091E+03  0.27328230085E+04  0.28901487583E+04  0.89298186874E+03 0.  0.
         23    2    4    4    0    0 -0.64705753740E+02  0.87022754313E+02  0.26656870247E+04  0.26692986305E+04  0.86649123068E+02 0.  0.
         23    2    4    4    0    0 -0.15165571538E+03  0.11399800660E+03  0.67135983793E+02  0.22085012788E+03  0.90953488941E+02 0.  0.
          3    1    3    3  502    0  0.93499612496E+02 -0.95626724054E+02 -0.59806163958E+02  0.14650401065E+03  0.00000000000E+00 0. -1.
         -4    1    3    3    0  502  0.12286185662E+03 -0.10539403686E+03  0.19469614881E+02  0.16303988690E+03  0.00000000000E+00 0.  1.
         13    1    5    5    0    0 -0.17838711514E+02  0.41872425721E+02  0.19817273313E+04  0.19822499175E+04  0.00000000000E+00 0.  1.
        -13    1    5    5    0    0 -0.46867042226E+02  0.45150328592E+02  0.68395969342E+03  0.68704871300E+03  0.00000000000E+00 0. -1.
          4    1    6    6  503    0 -0.29251573664E+02  0.77229155209E+02  0.25419263195E+02  0.86406804811E+02  0.00000000000E+00 0. -1.
         -4    1    6    6    0  503 -0.12240414171E+03  0.36768851389E+02  0.41716720598E+02  0.13444332307E+03  0.00000000000E+00 0.  1.
<mgrwt>
<rscale>  0 0.17287422E+04</rscale>
<asrwt>0</asrwt>
<pdfrwt beam="1">  1        1 0.45324452E+00 0.17287422E+04</pdfrwt>
<pdfrwt beam="2">  1       -2 0.39015863E-01 0.17287422E+04</pdfrwt>
<totfact> 0.33990931E+00</totfact>
</mgrwt>
</event>
<event>
12    5  0.5041746E-008  0.2085517E+04  0.7818608E-02  0.8567650E-01
         -2   -1    0    0    0  501 -0.00000000000E+00  0.00000000000E+00  0.97028955593E+03  0.97028955593E+03  0.00000000000E+00 0.  1.
          1   -1    0    0  501    0  0.00000000000E+00 -0.00000000000E+00 -0.11206399106E+04  0.11206399106E+04  0.00000000000E+00 0. -1.
        -24    2    1    2    0    0  0.25764916097E+03  0.12074091794E+03  0.74383760664E+03  0.80042588248E+03  0.80160768929E+02 0.  0.
        254    2    1    2    0    0 -0.25764916097E+03 -0.12074091794E+03 -0.89418796128E+03  0.12905035840E+04  0.88592659452E+03 0.  0.
         23    2    4    4    0    0  0.20025726950E+03  0.16578716482E+03 -0.48766024665E+02  0.28307518652E+03  0.10082201177E+03 0.  0.
         23    2    4    4    0    0 -0.45790643047E+03 -0.28652808277E+03 -0.84542193661E+03  0.10074283975E+04  0.91635603937E+02 0.  0.
          1    1    3    3  502    0  0.18623669222E+02  0.32063799823E+02  0.14316553538E+03  0.14788948182E+03  0.00000000000E+00 0. -1.
         -2    1    3    3    0  502  0.23902549175E+03  0.88677118121E+02  0.60067207126E+03  0.65253640065E+03  0.00000000000E+00 0.  1.
         13    1    5    5    0    0  0.33713322875E+02  0.28345670787E+02  0.29925607814E+02  0.53250419666E+02  0.00000000000E+00 0. -1.
        -13    1    5    5    0    0  0.16654394662E+03  0.13744149403E+03 -0.78691632479E+02  0.22982476686E+03  0.00000000000E+00 0.  1.
          1    1    6    6  503    0 -0.15615157719E+03 -0.69372322654E+02 -0.33387202753E+03  0.37505514924E+03  0.00000000000E+00 0. -1.
         -1    1    6    6    0  503 -0.30175485328E+03 -0.21715576011E+03 -0.51154990909E+03  0.63237324826E+03  0.00000000000E+00 0.  1.
<mgrwt>
<rscale>  0 0.20855169E+04</rscale>
<asrwt>0</asrwt>
<pdfrwt beam="1">  1        1 0.17240614E+00 0.20855169E+04</pdfrwt>
<pdfrwt beam="2">  1       -2 0.14927532E+00 0.20855169E+04</pdfrwt>
<totfact> 0.29983960E+00</totfact>
</mgrwt>
</event>
<event>
12    5  0.5041746E-008  0.1981918E+04  0.7818608E-02  0.8615122E-01
          1   -1    0    0  501    0  0.00000000000E+00  0.00000000000E+00  0.97498970232E+03  0.97498970232E+03  0.00000000000E+00 0. -1.
         -2   -1    0    0    0  501 -0.00000000000E+00 -0.00000000000E+00 -0.10071894306E+04  0.10071894306E+04  0.00000000000E+00 0.  1.
        -24    2    1    2    0    0 -0.33256177074E+03  0.27274348797E+03  0.63986791683E+03  0.77590002236E+03  0.87198349326E+02 0.  0.
        254    2    1    2    0    0  0.33256177074E+03 -0.27274348797E+03 -0.67206764512E+03  0.12062791106E+04  0.90468117665E+03 0.  0.
         23    2    4    4    0    0 -0.16591108253E+03 -0.19687711447E+03  0.89513286185E+02  0.28838884007E+03  0.94172231395E+02 0.  0.
         23    2    4    4    0    0  0.49847285326E+03 -0.75866373495E+02 -0.76158093131E+03  0.91789027049E+03  0.91028246515E+02 0.  0.
          3    1    3    3  502    0 -0.21200634257E+03  0.22473598368E+03  0.44179751898E+03  0.53910852287E+03  0.00000000000E+00 0. -1.
         -4    1    3    3    0  502 -0.12055542816E+03  0.48007504294E+02  0.19807039785E+03  0.23679149950E+03  0.00000000000E+00 0.  1.
         13    1    5    5    0    0 -0.99110963822E+02 -0.87300891777E+02  0.90402705254E+02  0.16005335976E+03  0.00000000000E+00 0.  1.
        -13    1    5    5    0    0 -0.66800118708E+02 -0.10957622270E+03 -0.88941906905E+00  0.12833548031E+03  0.00000000000E+00 0. -1.
          2    1    6    6  503    0  0.37268641475E+03 -0.68429098893E+02 -0.63380323675E+03  0.73843364511E+03  0.00000000000E+00 0. -1.
         -2    1    6    6    0  503  0.12578643851E+03 -0.74372746022E+01 -0.12777769456E+03  0.17945662538E+03  0.00000000000E+00 0.  1.
<mgrwt>
<rscale>  0 0.19819176E+04</rscale>
<asrwt>0</asrwt>
<pdfrwt beam="1">  1        1 0.14999842E+00 0.19819176E+04</pdfrwt>
<pdfrwt beam="2">  1       -2 0.15495222E+00 0.19819176E+04</pdfrwt>
<totfact> 0.35423015E+00</totfact>
</mgrwt>
</event>
<event>
12    5  0.5041746E-008  0.1536806E+04  0.7818608E-02  0.8860339E-01
         -2   -1    0    0    0  501 -0.00000000000E+00  0.00000000000E+00  0.73560354393E+03  0.73560354393E+03  0.00000000000E+00 0.  1.
          1   -1    0    0  501    0  0.00000000000E+00 -0.00000000000E+00 -0.80266522047E+03  0.80266522047E+03  0.00000000000E+00 0. -1.
        -24    2    1    2    0    0 -0.40722117440E+03 -0.93430745450E+02 -0.30128631525E+03  0.52132516766E+03  0.80300047352E+02 0.  0.
        254    2    1    2    0    0  0.40722117440E+03  0.93430745450E+02  0.23422463871E+03  0.10169435967E+04  0.89708121623E+03 0.  0.
         23    2    4    4    0    0 -0.11367197648E+03  0.14628432683E+03  0.40857383113E+03  0.45775323217E+03  0.91022104801E+02 0.  0.
         23    2    4    4    0    0  0.52089315087E+03 -0.52853581382E+02 -0.17434919242E+03  0.55919036457E+03  0.90404907184E+02 0.  0.
          1    1    3    3  502    0 -0.23060907033E+03 -0.33069218802E+02 -0.12404268128E+03  0.26393314178E+03  0.00000000000E+00 0. -1.
         -2    1    3    3    0  502 -0.17661210406E+03 -0.60361526648E+02 -0.17724363398E+03  0.25739202588E+03  0.00000000000E+00 0.  1.
         13    1    5    5    0    0 -0.96598764686E+02  0.10161012463E+03  0.20312351521E+03  0.24680984826E+03  0.00000000000E+00 0. -1.
        -13    1    5    5    0    0 -0.17073211789E+02  0.44674202206E+02  0.20545031592E+03  0.21094338391E+03  0.00000000000E+00 0.  1.
          4    1    6    6  503    0  0.33454427044E+03 -0.20880167407E+02 -0.15447184412E+03  0.36907641607E+03  0.00000000000E+00 0.  1.
         -4    1    6    6    0  503  0.18634888043E+03 -0.31973413975E+02 -0.19877348307E+02  0.19011394850E+03  0.00000000000E+00 0. -1.
<mgrwt>
<rscale>  0 0.15368063E+04</rscale>
<asrwt>0</asrwt>
<pdfrwt beam="1">  1        1 0.12348696E+00 0.15368063E+04</pdfrwt>
<pdfrwt beam="2">  1       -2 0.11316978E+00 0.15368063E+04</pdfrwt>
<totfact> 0.11392493E+01</totfact>
</mgrwt>
</event>
<event>
12    5  0.5041746E-008  0.4864030E+04  0.7818608E-02  0.7849831E-01
         -2   -1    0    0    0  501 -0.00000000000E+00  0.00000000000E+00  0.22388516197E+04  0.22388516197E+04  0.00000000000E+00 0.  1.
          1   -1    0    0  501    0  0.00000000000E+00 -0.00000000000E+00 -0.26418446406E+04  0.26418446406E+04  0.00000000000E+00 0. -1.
        -24    2    1    2    0    0 -0.14668149386E+04  0.11169749524E+04  0.12637914791E+04  0.22367386937E+04  0.81559628405E+02 0.  0.
        254    2    1    2    0    0  0.14668149386E+04 -0.11169749524E+04 -0.16667845000E+04  0.26439575666E+04  0.90175492014E+03 0.  0.
         23    2    4    4    0    0  0.12098097344E+04 -0.42719317135E+03 -0.85331806491E+03  0.15431962458E+04  0.84671920104E+02 0.  0.
         23    2    4    4    0    0  0.25700520420E+03 -0.68978178101E+03 -0.81346643511E+03  0.11007613208E+04  0.89984797796E+02 0.  0.
          3    1    3    3  502    0 -0.34031011029E+03  0.25097177672E+03  0.33130059670E+03  0.53717584574E+03  0.00000000000E+00 0. -1.
         -4    1    3    3    0  502 -0.11265048283E+04  0.86600317564E+03  0.93249088239E+03  0.16995628480E+04  0.00000000000E+00 0.  1.
         13    1    5    5    0    0  0.82825446615E+03 -0.26894500116E+03 -0.53901093876E+03  0.10241433818E+04  0.00000000000E+00 0. -1.
        -13    1    5    5    0    0  0.38155526828E+03 -0.15824817019E+03 -0.31430712615E+03  0.51905286404E+03  0.00000000000E+00 0.  1.
          4    1    6    6  503    0  0.25166929266E+03 -0.58783410464E+03 -0.70606089682E+03  0.95257984309E+03  0.00000000000E+00 0. -1.
         -4    1    6    6    0  503  0.53359115429E+01 -0.10194767637E+03 -0.10740553830E+03  0.14818147768E+03  0.00000000000E+00 0.  1.
<mgrwt>
<rscale>  0 0.48640305E+04</rscale>
<asrwt>0</asrwt>
<pdfrwt beam="1">  1        1 0.40643764E+00 0.48640305E+04</pdfrwt>
<pdfrwt beam="2">  1       -2 0.34443871E+00 0.48640305E+04</pdfrwt>
<totfact> 0.11672174E-02</totfact>
</mgrwt>
</event>
<event>
12    5  0.5041746E-008  0.1788786E+04  0.7818608E-02  0.8712286E-01
         -2   -1    0    0    0  501 -0.00000000000E+00  0.00000000000E+00  0.21682006081E+04  0.21682006081E+04  0.00000000000E+00 0.  1.
          1   -1    0    0  501    0  0.00000000000E+00 -0.00000000000E+00 -0.36894135858E+03  0.36894135858E+03  0.00000000000E+00 0. -1.
        -24    2    1    2    0    0 -0.15027497808E+03 -0.38104673809E+03  0.14270784248E+04  0.14868457474E+04  0.79864011114E+02 0.  0.
        254    2    1    2    0    0  0.15027497808E+03  0.38104673809E+03  0.37218082469E+03  0.10502962193E+04  0.89265020939E+03 0.  0.
         23    2    4    4    0    0 -0.31515567009E+03  0.31574726442E+03  0.21515671943E+02  0.45683492012E+03  0.95998899602E+02 0.  0.
         23    2    4    4    0    0  0.46543064817E+03  0.65299473669E+02  0.35066515274E+03  0.59346129916E+03  0.91326637610E+02 0.  0.
          3    1    3    3  502    0  0.97158841843E+01 -0.30018961958E+02  0.10711981198E+03  0.11167000762E+03  0.00000000000E+00 0. -1.
         -4    1    3    3    0  502 -0.15999086227E+03 -0.35102777614E+03  0.13199586128E+04  0.13751757397E+04  0.00000000000E+00 0.  1.
         13    1    5    5    0    0 -0.31986428214E+02  0.77967109033E+02 -0.13776940050E+02  0.85392070815E+02  0.00000000000E+00 0. -1.
        -13    1    5    5    0    0 -0.28316924187E+03  0.23778015539E+03  0.35292611993E+02  0.37144284931E+03  0.00000000000E+00 0.  1.
          3    1    6    6  503    0  0.77871685340E+01  0.46545068607E+01  0.30084836052E+02  0.31422950023E+02  0.00000000000E+00 0. -1.
         -3    1    6    6    0  503  0.45764347964E+03  0.60644966808E+02  0.32058031669E+03  0.56203834914E+03  0.00000000000E+00 0.  1.
<mgrwt>
<rscale>  0 0.17887860E+04</rscale>
<asrwt>0</asrwt>
<pdfrwt beam="1">  1        1 0.56760210E-01 0.17887860E+04</pdfrwt>
<pdfrwt beam="2">  1       -2 0.33356932E+00 0.17887860E+04</pdfrwt>
<totfact> 0.10916015E+00</totfact>
</mgrwt>
</event>
<event>
12    5  0.5041746E-008  0.1997950E+04  0.7818608E-02  0.8607579E-01
         -2   -1    0    0    0  501 -0.00000000000E+00  0.00000000000E+00  0.52854188365E+03  0.52854188365E+03  0.00000000000E+00 0.  1.
          1   -1    0    0  501    0  0.00000000000E+00 -0.00000000000E+00 -0.18881219473E+04  0.18881219473E+04  0.00000000000E+00 0. -1.
        -24    2    1    2    0    0  0.24025251964E+02  0.27573469104E+03 -0.14421863527E+04  0.14705999148E+04  0.78458912339E+02 0.  0.
        254    2    1    2    0    0 -0.24025251964E+02 -0.27573469104E+03  0.82606289085E+02  0.94606391612E+03  0.90089194791E+03 0.  0.
         23    2    4    4    0    0  0.24734402086E+03 -0.33875590008E+03 -0.25307258488E+03  0.49860645880E+03  0.92887259863E+02 0.  0.
         23    2    4    4    0    0 -0.27136927283E+03  0.63021209036E+02  0.33567887396E+03  0.44745745732E+03  0.99623865926E+02 0.  0.
          3    1    3    3  502    0  0.23037729506E+02  0.26910766555E+03 -0.12756902772E+04  0.13039690779E+04  0.00000000000E+00 0. -1.
         -4    1    3    3    0  502  0.98752245756E+00  0.66270254909E+01 -0.16649607548E+03  0.16663083694E+03  0.00000000000E+00 0.  1.
         13    1    5    5    0    0  0.14008985897E+03 -0.15394749238E+03 -0.17217735769E+03  0.27012967534E+03  0.00000000000E+00 0. -1.
        -13    1    5    5    0    0  0.10725416189E+03 -0.18480840770E+03 -0.80895227186E+02  0.22847678346E+03  0.00000000000E+00 0.  1.
          1    1    6    6  503    0 -0.84331988343E+02 -0.16040629443E+02  0.58605583059E+02  0.10394133161E+03  0.00000000000E+00 0. -1.
         -1    1    6    6    0  503 -0.18703728449E+03  0.79061838479E+02  0.27707329090E+03  0.34351612571E+03  0.00000000000E+00 0.  1.
<mgrwt>
<rscale>  0 0.19979505E+04</rscale>
<asrwt>0</asrwt>
<pdfrwt beam="1">  1        1 0.29048030E+00 0.19979505E+04</pdfrwt>
<pdfrwt beam="2">  1       -2 0.81314136E-01 0.19979505E+04</pdfrwt>
<totfact> 0.38530453E+00</totfact>
</mgrwt>
</event>
<event>
12    5  0.5041746E-008  0.3148350E+04  0.7818608E-02  0.8202593E-01
         -2   -1    0    0    0  501 -0.00000000000E+00  0.00000000000E+00  0.21104699075E+04  0.21104699075E+04  0.00000000000E+00 0.  1.
          1   -1    0    0  501    0  0.00000000000E+00 -0.00000000000E+00 -0.11741589356E+04  0.11741589356E+04  0.00000000000E+00 0. -1.
        -24    2    1    2    0    0  0.11965403456E+02  0.41323410072E+03 -0.10130934944E+04  0.10971506308E+04  0.80470400830E+02 0.  0.
        254    2    1    2    0    0 -0.11965403456E+02 -0.41323410072E+03  0.19494044663E+04  0.21874782123E+04  0.90220705113E+03 0.  0.
         23    2    4    4    0    0  0.16776061754E+03 -0.25396850069E+03  0.18992789750E+04  0.19256736498E+04  0.91185286407E+02 0.  0.
         23    2    4    4    0    0 -0.17972602099E+03 -0.15926560003E+03  0.50125491314E+02  0.26180456251E+03  0.91444464555E+02 0.  0.
          3    1    3    3  502    0  0.86937460102E+01  0.25581191863E+03 -0.52098731550E+03  0.58046800243E+03  0.00000000000E+00 0. -1.
         -4    1    3    3    0  502  0.32716574458E+01  0.15742218209E+03 -0.49210617891E+03  0.51668262839E+03  0.00000000000E+00 0.  1.
         13    1    5    5    0    0  0.38085946326E+02 -0.30017893134E+02  0.15813891402E+03  0.16540716231E+03  0.00000000000E+00 0. -1.
        -13    1    5    5    0    0  0.12967467121E+03 -0.22395060756E+03  0.17411400610E+04  0.17602664875E+04  0.00000000000E+00 0.  1.
          1    1    6    6  503    0 -0.46596151372E+02 -0.68472833222E+02  0.56956279390E+02  0.10051740135E+03  0.00000000000E+00 0. -1.
         -1    1    6    6    0  503 -0.13312986962E+03 -0.90792766808E+02 -0.68307880767E+01  0.16128716116E+03  0.00000000000E+00 0.  1.
<mgrwt>
<rscale>  0 0.31483501E+04</rscale>
<asrwt>0</asrwt>
<pdfrwt beam="1">  1        1 0.18063984E+00 0.31483501E+04</pdfrwt>
<pdfrwt beam="2">  1       -2 0.32468768E+00 0.31483501E+04</pdfrwt>
<totfact> 0.18438316E-01</totfact>
</mgrwt>
</event>
<event>
12    5  0.5041746E-008  0.1189560E+04  0.7818608E-02  0.9122044E-01
         -2   -1    0    0    0  501 -0.00000000000E+00  0.00000000000E+00  0.35309951881E+03  0.35309951881E+03  0.00000000000E+00 0.  1.
          1   -1    0    0  501    0  0.00000000000E+00 -0.00000000000E+00 -0.10018790987E+04  0.10018790987E+04  0.00000000000E+00 0. -1.
        -24    2    1    2    0    0  0.27416422556E+02  0.19526342063E+03  0.12768237852E+02  0.21404085840E+03  0.82286071131E+02 0.  0.
        254    2    1    2    0    0 -0.27416422556E+02 -0.19526342063E+03 -0.66154781774E+03  0.11409377591E+04  0.90841289696E+03 0.  0.
         23    2    4    4    0    0  0.31945925231E+03 -0.33304611285E+03 -0.58152620149E+03  0.74845311175E+03  0.95054775274E+02 0.  0.
         23    2    4    4    0    0 -0.34687567487E+03  0.13778269222E+03 -0.80021616251E+02  0.39248464736E+03  0.91290389739E+02 0.  0.
          1    1    3    3  502    0  0.28988350633E+02  0.23450213442E+02  0.19522837071E+02  0.42087743467E+02  0.00000000000E+00 0. -1.
         -2    1    3    3    0  502 -0.15719280764E+01  0.17181320719E+03 -0.67545992192E+01  0.17195311493E+03  0.00000000000E+00 0.  1.
         13    1    5    5    0    0  0.73776190719E+01 -0.32922798815E+02 -0.74016732592E+02  0.81343817519E+02  0.00000000000E+00 0. -1.
        -13    1    5    5    0    0  0.31208163324E+03 -0.30012331404E+03 -0.50750946890E+03  0.66710929424E+03  0.00000000000E+00 0.  1.
          4    1    6    6  503    0 -0.74324701871E+02 -0.30737209452E+01 -0.35669726891E+02  0.82498112010E+02  0.00000000000E+00 0. -1.
         -4    1    6    6    0  503 -0.27255097300E+03  0.14085641317E+03 -0.44351889360E+02  0.30998653535E+03  0.00000000000E+00 0.  1.
<mgrwt>
<rscale>  0 0.11895596E+04</rscale>
<asrwt>0</asrwt>
<pdfrwt beam="1">  1        1 0.15413524E+00 0.11895596E+04</pdfrwt>
<pdfrwt beam="2">  1       -2 0.54323005E-01 0.11895596E+04</pdfrwt>
<totfact> 0.41769550E+01</totfact>
</mgrwt>
</event>
<event>
12    5  0.5041746E-008  0.3028097E+04  0.7818608E-02  0.8235753E-01
         -2   -1    0    0    0  501 -0.00000000000E+00  0.00000000000E+00  0.97467837604E+03  0.97467837604E+03  0.00000000000E+00 0.  1.
          1   -1    0    0  501    0  0.00000000000E+00 -0.00000000000E+00 -0.23518961761E+04  0.23518961761E+04  0.00000000000E+00 0. -1.
        -24    2    1    2    0    0 -0.10363974821E+03  0.13456405296E+04 -0.94956430338E+03  0.16521552431E+04  0.80342695436E+02 0.  0.
        254    2    1    2    0    0  0.10363974821E+03 -0.13456405296E+04 -0.42765349666E+03  0.16744193091E+04  0.89403740249E+03 0.  0.
         23    2    4    4    0    0  0.42707904860E+03 -0.40094524507E+03 -0.29740939480E+03  0.66329091591E+03  0.91372248097E+02 0.  0.
         23    2    4    4    0    0 -0.32343930039E+03 -0.94469528452E+03 -0.13024410186E+03  0.10111283931E+04  0.91405359383E+02 0.  0.
          1    1    3    3  502    0 -0.98836187274E+02  0.13172386240E+04 -0.91369835294E+03  0.16061540601E+04  0.00000000000E+00 0. -1.
         -2    1    3    3    0  502 -0.48035609351E+01  0.28401905584E+02 -0.35865950437E+02  0.46001183020E+02  0.00000000000E+00 0.  1.
         13    1    5    5    0    0  0.33642601047E+02 -0.47139306879E+02 -0.34987540744E+01  0.58018791251E+02  0.00000000000E+00 0. -1.
        -13    1    5    5    0    0  0.39343644755E+03 -0.35380593819E+03 -0.29391064072E+03  0.60527212466E+03  0.00000000000E+00 0.  1.
          1    1    6    6  503    0 -0.28159854511E+03 -0.80100705185E+03 -0.78101619631E+02  0.85264875577E+03  0.00000000000E+00 0.  1.
         -1    1    6    6    0  503 -0.41840755275E+02 -0.14368823267E+03 -0.52142482233E+02  0.15847963737E+03  0.00000000000E+00 0. -1.
<mgrwt>
<rscale>  0 0.30280967E+04</rscale>
<asrwt>0</asrwt>
<pdfrwt beam="1">  1        1 0.36183018E+00 0.30280967E+04</pdfrwt>
<pdfrwt beam="2">  1       -2 0.14995052E+00 0.30280967E+04</pdfrwt>
<totfact> 0.38391207E-01</totfact>
</mgrwt>
</event>
<event>
12    5  0.5041746E-008  0.1113947E+04  0.7818608E-02  0.9191704E-01
         -2   -1    0    0    0  501 -0.00000000000E+00  0.00000000000E+00  0.11714344529E+04  0.11714344529E+04  0.00000000000E+00 0.  1.
          1   -1    0    0  501    0  0.00000000000E+00 -0.00000000000E+00 -0.26482029040E+03  0.26482029040E+03  0.00000000000E+00 0. -1.
        -24    2    1    2    0    0 -0.95059168913E+01 -0.14305867447E+03  0.12723605157E+02  0.16466792975E+03  0.79984311986E+02 0.  0.
        254    2    1    2    0    0  0.95059168913E+01  0.14305867447E+03  0.89389055733E+03  0.12715868135E+04  0.89293703534E+03 0.  0.
         23    2    4    4    0    0  0.24247141451E+03  0.30991715990E+03  0.88405059773E+03  0.97184396149E+03  0.89967734673E+02 0.  0.
         23    2    4    4    0    0 -0.23296549762E+03 -0.16685848543E+03  0.98399595983E+01  0.29974285205E+03  0.87374340117E+02 0.  0.
          1    1    3    3  502    0  0.16240165792E+01 -0.13578357582E+03 -0.12281257121E+02  0.13634751985E+03  0.00000000000E+00 0. -1.
         -2    1    3    3    0  502 -0.11129933470E+02 -0.72750986439E+01  0.25004862277E+02  0.28320409899E+02  0.00000000000E+00 0.  1.
         13    1    5    5    0    0  0.24041527796E+03  0.28313166322E+03  0.77325726232E+03  0.85784021725E+03  0.00000000000E+00 0.  1.
        -13    1    5    5    0    0  0.20561365464E+01  0.26785496674E+02  0.11079333541E+03  0.11400374424E+03  0.00000000000E+00 0. -1.
          3    1    6    6  503    0  0.23926782986E+01 -0.77421159507E+01  0.13357594052E+02  0.15623398724E+02  0.00000000000E+00 0. -1.
         -3    1    6    6    0  503 -0.23535817591E+03 -0.15911636948E+03 -0.35176344537E+01  0.28411945333E+03  0.00000000000E+00 0.  1.
<mgrwt>
<rscale>  0 0.11139472E+04</rscale>
<asrwt>0</asrwt>
<pdfrwt beam="1">  1        1 0.40741584E-01 0.11139472E+04</pdfrwt>
<pdfrwt beam="2">  1       -2 0.18022068E+00 0.11139472E+04</pdfrwt>
<totfact> 0.16173106E+01</totfact>
</mgrwt>
</event>
<event>
12    5  0.5041746E-008  0.1317435E+04  0.7818608E-02  0.9015852E-01
          1   -1    0    0  501    0  0.00000000000E+00  0.00000000000E+00  0.15226158533E+04  0.15226158533E+04  0.00000000000E+00 0. -1.
         -2   -1    0    0    0  501 -0.00000000000E+00 -0.00000000000E+00 -0.28497567801E+03  0.28497567801E+03  0.00000000000E+00 0.  1.
        -24    2    1    2    0    0  0.82493892067E+02 -0.14467159768E+03  0.75050853292E+03  0.77278120809E+03  0.78693228348E+02 0.  0.
        254    2    1    2    0    0 -0.82493892067E+02  0.14467159768E+03  0.48713164240E+03  0.10348103232E+04  0.89766366456E+03 0.  0.
         23    2    4    4    0    0 -0.16738349827E+03 -0.33477393538E+03  0.35032810406E+03  0.52078449504E+03  0.91629070027E+02 0.  0.
         23    2    4    4    0    0  0.84889606201E+02  0.47944553306E+03  0.13680353834E+03  0.51402582821E+03  0.91831800342E+02 0.  0.
          1    1    3    3  502    0  0.69483454327E+02 -0.12388151458E+03  0.71877652657E+03  0.73267610527E+03  0.00000000000E+00 0. -1.
         -2    1    3    3    0  502  0.13010437740E+02 -0.20790083099E+02  0.31732006346E+02  0.40105102820E+02  0.00000000000E+00 0.  1.
         13    1    5    5    0    0 -0.10952546495E+03 -0.16601800339E+03  0.23715510419E+03  0.30951631357E+03  0.00000000000E+00 0. -1.
        -13    1    5    5    0    0 -0.57858033319E+02 -0.16875593199E+03  0.11317299988E+03  0.21126818148E+03  0.00000000000E+00 0.  1.
          3    1    6    6  503    0  0.32578467840E+02  0.69993086988E+02 -0.55136691761E+01  0.77400189539E+02  0.00000000000E+00 0. -1.
         -3    1    6    6    0  503  0.52311138362E+02  0.40945244607E+03  0.14231720752E+03  0.43662563867E+03  0.00000000000E+00 0.  1.
<mgrwt>
<rscale>  0 0.13174346E+04</rscale>
<asrwt>0</asrwt>
<pdfrwt beam="1">  1        1 0.23424859E+00 0.13174346E+04</pdfrwt>
<pdfrwt beam="2">  1       -2 0.43842413E-01 0.13174346E+04</pdfrwt>
<totfact> 0.26802065E+01</totfact>
</mgrwt>
</event>
<event>
12    5  0.5041746E-008  0.1586758E+04  0.7818608E-02  0.8828724E-01
         -2   -1    0    0    0  501 -0.00000000000E+00  0.00000000000E+00  0.35357465710E+03  0.35357465710E+03  0.00000000000E+00 0.  1.
          1   -1    0    0  501    0  0.00000000000E+00 -0.00000000000E+00 -0.17802475922E+04  0.17802475922E+04  0.00000000000E+00 0. -1.
        -24    2    1    2    0    0  0.47968036907E+03  0.12852216045E+03 -0.24896042249E+03  0.56164668305E+03  0.82791922377E+02 0.  0.
        254    2    1    2    0    0 -0.47968036907E+03 -0.12852216045E+03 -0.11777125126E+04  0.15721755663E+04  0.91548787353E+03 0.  0.
         23    2    4    4    0    0  0.80064189399E+02  0.13156334717E+03  0.57721797080E+02  0.18820377139E+03  0.91485873033E+02 0.  0.
         23    2    4    4    0    0 -0.55974455847E+03 -0.26008550762E+03 -0.12354343097E+04  0.13839717949E+04  0.90119661625E+02 0.  0.
          3    1    3    3  502    0  0.10215202350E+03  0.42574792148E+02 -0.91764270282E+02  0.14376484317E+03  0.00000000000E+00 0. -1.
         -4    1    3    3    0  502  0.37752834557E+03  0.85947368305E+02 -0.15719615220E+03  0.41788183988E+03  0.00000000000E+00 0.  1.
         13    1    5    5    0    0  0.41896373256E+02  0.13508696285E+02 -0.12340330661E+02  0.45717335094E+02  0.00000000000E+00 0.  1.
        -13    1    5    5    0    0  0.38167816143E+02  0.11805465088E+03  0.70062127741E+02  0.14248643629E+03  0.00000000000E+00 0. -1.
          2    1    6    6  503    0 -0.23120694387E+03 -0.15044116740E+03 -0.59680886328E+03  0.65747244432E+03  0.00000000000E+00 0. -1.
         -2    1    6    6    0  503 -0.32853761460E+03 -0.10964434022E+03 -0.63862544644E+03  0.72649935058E+03  0.00000000000E+00 0.  1.
<mgrwt>
<rscale>  0 0.15867582E+04</rscale>
<asrwt>0</asrwt>
<pdfrwt beam="1">  1        1 0.27388424E+00 0.15867582E+04</pdfrwt>
<pdfrwt beam="2">  1       -2 0.54396101E-01 0.15867582E+04</pdfrwt>
<totfact> 0.11272288E+01</totfact>
</mgrwt>
</event>
<event>
12    5  0.5041746E-008  0.1378266E+04  0.7818608E-02  0.8969702E-01
         -2   -1    0    0    0  501 -0.00000000000E+00  0.00000000000E+00  0.84179349869E+03  0.84179349869E+03  0.00000000000E+00 0.  1.
          1   -1    0    0  501    0  0.00000000000E+00 -0.00000000000E+00 -0.56415808559E+03  0.56415808559E+03  0.00000000000E+00 0. -1.
        -24    2    1    2    0    0 -0.34524618386E+03 -0.13445637452E+03  0.18842455357E+03  0.42305040878E+03  0.78704458948E+02 0.  0.
        254    2    1    2    0    0  0.34524618386E+03  0.13445637452E+03  0.89210859531E+02  0.98290117550E+03  0.90601473455E+03 0.  0.
         23    2    4    4    0    0  0.22650322537E+03 -0.36952985419E+03  0.10925234173E+03  0.45651604893E+03  0.92815971264E+02 0.  0.
         23    2    4    4    0    0  0.11874295849E+03  0.50398622871E+03 -0.20041482203E+02  0.52638512656E+03  0.92615503762E+02 0.  0.
          1    1    3    3  502    0 -0.10143799544E+02 -0.16819551609E+02  0.25829651122E+02  0.32449420066E+02  0.00000000000E+00 0. -1.
         -2    1    3    3    0  502 -0.33510238432E+03 -0.11763682291E+03  0.16259490245E+03  0.39060098871E+03  0.00000000000E+00 0.  1.
         13    1    5    5    0    0  0.15702221983E+03 -0.20569899275E+03  0.26108943064E+02  0.26009561713E+03  0.00000000000E+00 0. -1.
        -13    1    5    5    0    0  0.69481005536E+02 -0.16383086144E+03  0.83143398670E+02  0.19642043181E+03  0.00000000000E+00 0.  1.
          1    1    6    6  503    0  0.10880034685E+03  0.47581404072E+03  0.38842241652E+01  0.48811023757E+03  0.00000000000E+00 0. -1.
         -1    1    6    6    0  503  0.99426116448E+01  0.28172187992E+02 -0.23925706368E+02  0.38274888998E+02  0.00000000000E+00 0.  1.
<mgrwt>
<rscale>  0 0.13782665E+04</rscale>
<asrwt>0</asrwt>
<pdfrwt beam="1">  1        1 0.86793552E-01 0.13782665E+04</pdfrwt>
<pdfrwt beam="2">  1       -2 0.12950669E+00 0.13782665E+04</pdfrwt>
<totfact> 0.14013729E+01</totfact>
</mgrwt>
</event>
<event>
12    5  0.5041746E-008  0.1511476E+04  0.7818608E-02  0.8876857E-01
         -2   -1    0    0    0  501 -0.00000000000E+00  0.00000000000E+00  0.29617929194E+03  0.29617929194E+03  0.00000000000E+00 0.  1.
          1   -1    0    0  501    0  0.00000000000E+00 -0.00000000000E+00 -0.19283592675E+04  0.19283592675E+04  0.00000000000E+00 0. -1.
        -24    2    1    2    0    0 -0.28870540727E+02 -0.15973189519E+03  0.14064646755E+03  0.22903844074E+03  0.79557476322E+02 0.  0.
        254    2    1    2    0    0  0.28870540727E+02  0.15973189519E+03 -0.17728264431E+04  0.19955001187E+04  0.90153166326E+03 0.  0.
         23    2    4    4    0    0 -0.33873398426E+03 -0.28120665753E+02 -0.13604178634E+04  0.14053310453E+04  0.93204612595E+02 0.  0.
         23    2    4    4    0    0  0.36760452499E+03  0.18785256095E+03 -0.41240857967E+03  0.59016907339E+03  0.88300776614E+02 0.  0.
          1    1    3    3  502    0 -0.42107099639E+01 -0.38941048157E+02  0.85379140781E+02  0.93934727287E+02  0.00000000000E+00 0. -1.
         -2    1    3    3    0  502 -0.24659830763E+02 -0.12079084704E+03  0.55267326772E+02  0.13510371346E+03  0.00000000000E+00 0.  1.
         13    1    5    5    0    0 -0.18263753902E+03  0.58375180763E+01 -0.88889177929E+03  0.90747955490E+03  0.00000000000E+00 0. -1.
        -13    1    5    5    0    0 -0.15609644524E+03 -0.33958183829E+02 -0.47152608411E+03  0.49785149037E+03  0.00000000000E+00 0.  1.
          4    1    6    6  503    0  0.19020686911E+03  0.12278848684E+03 -0.27677671488E+03  0.35757658684E+03  0.00000000000E+00 0.  1.
         -4    1    6    6    0  503  0.17739765588E+03  0.65064074105E+02 -0.13563186479E+03  0.23259248655E+03  0.00000000000E+00 0. -1.
<mgrwt>
<rscale>  0 0.15114762E+04</rscale>
<asrwt>0</asrwt>
<pdfrwt beam="1">  1        1 0.29667066E+00 0.15114762E+04</pdfrwt>
<pdfrwt beam="2">  1       -2 0.45566044E-01 0.15114762E+04</pdfrwt>
<totfact> 0.12920801E+01</totfact>
</mgrwt>
</event>
<event>
12    5  0.5041746E-008  0.1386584E+04  0.7818608E-02  0.8963587E-01
          1   -1    0    0  501    0  0.00000000000E+00  0.00000000000E+00  0.27004919722E+04  0.27004919722E+04  0.00000000000E+00 0. -1.
         -2   -1    0    0    0  501 -0.00000000000E+00 -0.00000000000E+00 -0.17798749956E+03  0.17798749956E+03  0.00000000000E+00 0.  1.
        -24    2    1    2    0    0 -0.34426185921E+03  0.16802626814E+03  0.92410146690E+03  0.10033424232E+04  0.77352715718E+02 0.  0.
        254    2    1    2    0    0  0.34426185921E+03 -0.16802626814E+03  0.15984030057E+04  0.18751370485E+04  0.90249527840E+03 0.  0.
         23    2    4    4    0    0  0.48527534861E+03 -0.19138096593E+03  0.39708143563E+03  0.66181181809E+03  0.90566980488E+02 0.  0.
         23    2    4    4    0    0 -0.14101348940E+03  0.23354697792E+02  0.12013215701E+04  0.12133252304E+04  0.92489750403E+02 0.  0.
          3    1    3    3  502    0  0.20102727434E+01  0.76309492382E+01  0.33639316227E+02  0.34552513353E+02  0.00000000000E+00 0. -1.
         -4    1    3    3    0  502 -0.34627213195E+03  0.16039531890E+03  0.89046215067E+03  0.96878990987E+03  0.00000000000E+00 0.  1.
         13    1    5    5    0    0  0.42142759457E+03 -0.18672006988E+03  0.37459837827E+03  0.59396089683E+03  0.00000000000E+00 0.  1.
        -13    1    5    5    0    0  0.63847754042E+02 -0.46608960560E+01  0.22483057362E+02  0.67850921266E+02  0.00000000000E+00 0. -1.
          2    1    6    6  503    0 -0.12191232990E+03  0.38589204670E+02  0.71184585155E+03  0.72324011176E+03  0.00000000000E+00 0.  1.
         -2    1    6    6    0  503 -0.19101159499E+02 -0.15234506878E+02  0.48947571853E+03  0.49008511865E+03  0.00000000000E+00 0. -1.
<mgrwt>
<rscale>  0 0.13865840E+04</rscale>
<asrwt>0</asrwt>
<pdfrwt beam="1">  1        1 0.41546027E+00 0.13865840E+04</pdfrwt>
<pdfrwt beam="2">  1       -2 0.27382694E-01 0.13865840E+04</pdfrwt>
<totfact> 0.10261790E+01</totfact>
</mgrwt>
</event>
<event>
12    5  0.5041746E-008  0.1452787E+04  0.7818608E-02  0.8916471E-01
          1   -1    0    0  501    0  0.00000000000E+00  0.00000000000E+00  0.23196826113E+04  0.23196826113E+04  0.00000000000E+00 0. -1.
         -2   -1    0    0    0  501 -0.00000000000E+00 -0.00000000000E+00 -0.22746540565E+03  0.22746540565E+03  0.00000000000E+00 0.  1.
        -24    2    1    2    0    0 -0.50237102313E+02  0.34456518971E+03  0.16374455457E+03  0.39315173127E+03  0.80666400904E+02 0.  0.
        254    2    1    2    0    0  0.50237102313E+02 -0.34456518971E+03  0.19284726511E+04  0.21539962857E+04  0.89411648930E+03 0.  0.
         23    2    4    4    0    0 -0.41106706722E+03 -0.13647899016E+03  0.81756208790E+03  0.92969469860E+03  0.91223990992E+02 0.  0.
         23    2    4    4    0    0  0.46130416953E+03 -0.20808619955E+03  0.11109105632E+04  0.12243015871E+04  0.93223889126E+02 0.  0.
          1    1    3    3  502    0  0.20671578452E+01 -0.13274670738E+01 -0.43813979753E+01  0.50231423040E+01  0.00000000000E+00 0. -1.
         -4    1    3    3    0  502 -0.52304260158E+02  0.34589265679E+03  0.16812595255E+03  0.38812858896E+03  0.00000000000E+00 0.  1.
         13    1    5    5    0    0 -0.36480239116E+03 -0.97172515549E+02  0.65277926485E+03  0.75408490967E+03  0.00000000000E+00 0.  1.
        -13    1    5    5    0    0 -0.46264676064E+02 -0.39306474613E+02  0.16478282305E+03  0.17560978893E+03  0.00000000000E+00 0. -1.
          4    1    6    6  503    0 -0.26517201455E+01 -0.78389438322E+01  0.10176883396E+02  0.13116768497E+02  0.00000000000E+00 0. -1.
         -4    1    6    6    0  503  0.46395588968E+03 -0.20024725572E+03  0.11007336798E+04  0.12111848186E+04  0.00000000000E+00 0.  1.
<mgrwt>
<rscale>  0 0.14527870E+04</rscale>
<asrwt>0</asrwt>
<pdfrwt beam="1">  1        1 0.35687423E+00 0.14527870E+04</pdfrwt>
<pdfrwt beam="2">  1       -2 0.34994679E-01 0.14527870E+04</pdfrwt>
<totfact> 0.11811166E+01</totfact>
</mgrwt>
</event>
<event>
12    5  0.5041746E-008  0.1137236E+04  0.7818608E-02  0.9169640E-01
          1   -1    0    0  501    0  0.00000000000E+00  0.00000000000E+00  0.38690487120E+03  0.38690487120E+03  0.00000000000E+00 0. -1.
         -2   -1    0    0    0  501 -0.00000000000E+00 -0.00000000000E+00 -0.83567464990E+03  0.83567464990E+03  0.00000000000E+00 0.  1.
        -24    2    1    2    0    0  0.15639863328E+01 -0.54855491557E+02 -0.30743291966E+03  0.32217217104E+03  0.79172828015E+02 0.  0.
        254    2    1    2    0    0 -0.15639863328E+01  0.54855491557E+02 -0.14133685904E+03  0.90040735007E+03  0.88755040269E+03 0.  0.
         23    2    4    4    0    0 -0.35602386430E+03  0.52551862409E+02 -0.32194549592E+03  0.49194291933E+03  0.94043837341E+02 0.  0.
         23    2    4    4    0    0  0.35445987797E+03  0.23036291478E+01  0.18060863689E+03  0.40846443073E+03  0.92609932848E+02 0.  0.
          3    1    3    3  502    0  0.31810758027E+02 -0.43715670933E+02 -0.11520140705E+03  0.12725701709E+03  0.00000000000E+00 0. -1.
         -4    1    3    3    0  502 -0.30246771694E+02 -0.11139820624E+02 -0.19223151260E+03  0.19491515395E+03  0.00000000000E+00 0.  1.
         13    1    5    5    0    0 -0.22929230986E+03  0.34877533246E+02 -0.14481212110E+03  0.27342632665E+03  0.00000000000E+00 0. -1.
        -13    1    5    5    0    0 -0.12673155444E+03  0.17674329164E+02 -0.17713337482E+03  0.21851659268E+03  0.00000000000E+00 0.  1.
          3    1    6    6  503    0  0.27834570569E+03  0.32127009212E+02  0.11203052553E+03  0.30176036063E+03  0.00000000000E+00 0. -1.
         -3    1    6    6    0  503  0.76114172273E+02 -0.29823380065E+02  0.68578111351E+02  0.10670407010E+03  0.00000000000E+00 0.  1.
<mgrwt>
<rscale>  0 0.11372363E+04</rscale>
<asrwt>0</asrwt>
<pdfrwt beam="1">  1        1 0.59523828E-01 0.11372363E+04</pdfrwt>
<pdfrwt beam="2">  1       -2 0.12856533E+00 0.11372363E+04</pdfrwt>
<totfact> 0.24310092E+01</totfact>
</mgrwt>
</event>
<event>
12    5  0.5041746E-008  0.1500677E+04  0.7818608E-02  0.8884003E-01
          1   -1    0    0  501    0  0.00000000000E+00  0.00000000000E+00  0.15666464969E+04  0.15666464969E+04  0.00000000000E+00 0. -1.
         -2   -1    0    0    0  501 -0.00000000000E+00 -0.00000000000E+00 -0.35937148049E+03  0.35937148049E+03  0.00000000000E+00 0.  1.
        -24    2    1    2    0    0 -0.31126603414E+03  0.33565900224E+03  0.55518083885E+03  0.72428907946E+03  0.82555417816E+02 0.  0.
        254    2    1    2    0    0  0.31126603414E+03 -0.33565900224E+03  0.65209417757E+03  0.12017288979E+04  0.89965105341E+03 0.  0.
         23    2    4    4    0    0  0.45364655022E+02 -0.28147498936E+03  0.81783607827E+03  0.87076040886E+03  0.89898371331E+02 0.  0.
         23    2    4    4    0    0  0.26590137912E+03 -0.54184012880E+02 -0.16574190069E+03  0.33096848907E+03  0.91816732911E+02 0.  0.
          3    1    3    3  502    0 -0.16438850431E+03  0.23371401570E+03  0.32302545301E+03  0.43126704578E+03  0.00000000000E+00 0. -1.
         -4    1    3    3    0  502 -0.14687752983E+03  0.10194498654E+03  0.23215538584E+03  0.29302203368E+03  0.00000000000E+00 0.  1.
         13    1    5    5    0    0 -0.46498244487E+01 -0.63316789791E+02  0.29968414278E+03  0.30633514681E+03  0.00000000000E+00 0. -1.
        -13    1    5    5    0    0  0.50014479471E+02 -0.21815819957E+03  0.51815193549E+03  0.56442526205E+03  0.00000000000E+00 0.  1.
          2    1    6    6  503    0  0.72009901516E+02 -0.99744988310E+01 -0.96246581117E+00  0.72703802402E+02  0.00000000000E+00 0. -1.
         -2    1    6    6    0  503  0.19389147760E+03 -0.44209514049E+02 -0.16477943488E+03  0.25826468667E+03  0.00000000000E+00 0.  1.
<mgrwt>
<rscale>  0 0.15006773E+04</rscale>
<asrwt>0</asrwt>
<pdfrwt beam="1">  1        1 0.24102254E+00 0.15006773E+04</pdfrwt>
<pdfrwt beam="2">  1       -2 0.55287921E-01 0.15006773E+04</pdfrwt>
<totfact> 0.15357587E+01</totfact>
</mgrwt>
</event>
<event>
12    5  0.5041746E-008  0.4025540E+04  0.7818608E-02  0.7999414E-01
         -2   -1    0    0    0  501 -0.00000000000E+00  0.00000000000E+00  0.16330952950E+04  0.16330952950E+04  0.00000000000E+00 0.  1.
          1   -1    0    0  501    0  0.00000000000E+00 -0.00000000000E+00 -0.24807150385E+04  0.24807150385E+04  0.00000000000E+00 0. -1.
        -24    2    1    2    0    0  0.13707112942E+04  0.19029249591E+03  0.94401745187E+03  0.16769532899E+04  0.77088916048E+02 0.  0.
        254    2    1    2    0    0 -0.13707112942E+04 -0.19029249591E+03 -0.17916371954E+04  0.24368570436E+04  0.90180248664E+03 0.  0.
         23    2    4    4    0    0 -0.10842098383E+04 -0.35756525527E+02 -0.69942314583E+03  0.12932653787E+04  0.80951220799E+02 0.  0.
         23    2    4    4    0    0 -0.28650145587E+03 -0.15453597039E+03 -0.10922140495E+04  0.11435916649E+04  0.94371158770E+02 0.  0.
          1    1    3    3  502    0  0.70143033663E+03  0.65527009979E+02  0.50684802036E+03  0.86786705314E+03  0.00000000000E+00 0. -1.
         -2    1    3    3    0  502  0.66928095760E+03  0.12476548594E+03  0.43716943151E+03  0.80908623677E+03  0.00000000000E+00 0.  1.
         13    1    5    5    0    0 -0.68318023282E+03 -0.54591904029E+02 -0.41432259932E+03  0.80086123817E+03  0.00000000000E+00 0. -1.
        -13    1    5    5    0    0 -0.40102960553E+03  0.18835378502E+02 -0.28510054651E+03  0.49240414054E+03  0.00000000000E+00 0.  1.
          3    1    6    6  503    0 -0.21215039166E+03 -0.78552000094E+02 -0.83904650055E+03  0.86900934142E+03  0.00000000000E+00 0. -1.
         -3    1    6    6    0  503 -0.74351064217E+02 -0.75983970294E+02 -0.25316754898E+03  0.27458232345E+03  0.00000000000E+00 0.  1.
<mgrwt>
<rscale>  0 0.40255405E+04</rscale>
<asrwt>0</asrwt>
<pdfrwt beam="1">  1        1 0.38164847E+00 0.40255405E+04</pdfrwt>
<pdfrwt beam="2">  1       -2 0.25124543E+00 0.40255405E+04</pdfrwt>
<totfact> 0.60612631E-02</totfact>
</mgrwt>
</event>
<event>
12    5  0.5041746E-008  0.3255328E+04  0.7818608E-02  0.8174356E-01
         -2   -1    0    0    0  501 -0.00000000000E+00  0.00000000000E+00  0.10481478989E+04  0.10481478989E+04  0.00000000000E+00 0.  1.
          1   -1    0    0  501    0  0.00000000000E+00 -0.00000000000E+00 -0.25275924790E+04  0.25275924790E+04  0.00000000000E+00 0. -1.
        -24    2    1    2    0    0  0.14491434945E+03  0.16325504507E+03 -0.23133663948E+04  0.23250832399E+04  0.81826753081E+02 0.  0.
        254    2    1    2    0    0 -0.14491434945E+03 -0.16325504507E+03  0.83392181479E+03  0.12506571380E+04  0.90612653930E+03 0.  0.
         23    2    4    4    0    0  0.34185564629E+03 -0.55860060322E+02  0.12382223615E+03  0.37755713708E+03  0.85040086737E+02 0.  0.
         23    2    4    4    0    0 -0.48676999574E+03 -0.10739498475E+03  0.71009957863E+03  0.87310000092E+03  0.97895293654E+02 0.  0.
          1    1    3    3  502    0  0.14842939450E+03  0.13424982471E+03 -0.18493165794E+04  0.18601145425E+04  0.00000000000E+00 0. -1.
         -2    1    3    3    0  502 -0.35150450403E+01  0.29005220360E+02 -0.46404981542E+03  0.46496869738E+03  0.00000000000E+00 0.  1.
         13    1    5    5    0    0  0.31930482165E+03 -0.28010271355E+02  0.11602147291E+03  0.34088286347E+03  0.00000000000E+00 0.  1.
        -13    1    5    5    0    0  0.22550824638E+02 -0.27849788967E+02  0.78007632413E+01  0.36674273605E+02  0.00000000000E+00 0. -1.
          4    1    6    6  503    0 -0.44189022751E+03 -0.11007869155E+03  0.59313797844E+03  0.74779472649E+03  0.00000000000E+00 0.  1.
         -4    1    6    6    0  503 -0.44879768236E+02  0.26837067971E+01  0.11696160020E+03  0.12530527443E+03  0.00000000000E+00 0. -1.
<mgrwt>
<rscale>  0 0.32553284E+04</rscale>
<asrwt>0</asrwt>
<pdfrwt beam="1">  1        1 0.38886038E+00 0.32553284E+04</pdfrwt>
<pdfrwt beam="2">  1       -2 0.16125352E+00 0.32553284E+04</pdfrwt>
<totfact> 0.23414253E-01</totfact>
</mgrwt>
</event>
<event>
12    5  0.5041746E-008  0.1226079E+04  0.7818608E-02  0.9090331E-01
         -2   -1    0    0    0  501 -0.00000000000E+00  0.00000000000E+00  0.36069234193E+03  0.36069234193E+03  0.00000000000E+00 0.  1.
          1   -1    0    0  501    0  0.00000000000E+00 -0.00000000000E+00 -0.10419336831E+04  0.10419336831E+04  0.00000000000E+00 0. -1.
        -24    2    1    2    0    0 -0.80257179519E+02 -0.25011893697E+03 -0.88557312786E+02  0.28861425768E+03  0.80343603285E+02 0.  0.
        254    2    1    2    0    0  0.80257179519E+02  0.25011893697E+03 -0.59268402835E+03  0.11140117673E+04  0.90595097151E+03 0.  0.
         23    2    4    4    0    0  0.28177630571E+03  0.26710364498E+03 -0.74485967921E+03  0.84500645861E+03  0.92074588093E+02 0.  0.
         23    2    4    4    0    0 -0.20151912619E+03 -0.16984708003E+02  0.15217565086E+03  0.26900530871E+03  0.91148169890E+02 0.  0.
          1    1    3    3  502    0 -0.73198785229E+02 -0.21913967912E+03 -0.10390220502E+03  0.25332968506E+03  0.00000000000E+00 0. -1.
         -2    1    3    3    0  502 -0.70583942901E+01 -0.30979257858E+02  0.15344892234E+02  0.35284572621E+02  0.00000000000E+00 0.  1.
         13    1    5    5    0    0  0.18884725856E+03  0.15382601232E+03 -0.37473569712E+03  0.44693687678E+03  0.00000000000E+00 0.  1.
        -13    1    5    5    0    0  0.92929047151E+02  0.11327763266E+03 -0.37012398209E+03  0.39806958183E+03  0.00000000000E+00 0. -1.
          3    1    6    6  503    0 -0.78230058936E+02  0.30876838072E+02  0.31004467241E+02  0.89635920475E+02  0.00000000000E+00 0. -1.
         -3    1    6    6    0  503 -0.12328906725E+03 -0.47861546075E+02  0.12117118362E+03  0.17936938824E+03  0.00000000000E+00 0.  1.
<mgrwt>
<rscale>  0 0.12260791E+04</rscale>
<asrwt>0</asrwt>
<pdfrwt beam="1">  1        1 0.16029749E+00 0.12260791E+04</pdfrwt>
<pdfrwt beam="2">  1       -2 0.55491130E-01 0.12260791E+04</pdfrwt>
<totfact> 0.37107355E+01</totfact>
</mgrwt>
</event>
<event>
12    5  0.5041746E-008  0.1523269E+04  0.7818608E-02  0.8869125E-01
         -2   -1    0    0    0  501 -0.00000000000E+00  0.00000000000E+00  0.54636464637E+03  0.54636464637E+03  0.00000000000E+00 0.  1.
          1   -1    0    0  501    0  0.00000000000E+00 -0.00000000000E+00 -0.10617212530E+04  0.10617212530E+04  0.00000000000E+00 0. -1.
        -24    2    1    2    0    0 -0.34762125689E+03 -0.87512480873E+02  0.17312141364E+03  0.40636508682E+03  0.81624673826E+02 0.  0.
        254    2    1    2    0    0  0.34762125689E+03  0.87512480873E+02 -0.68847802030E+03  0.12017208126E+04  0.91740501110E+03 0.  0.
         23    2    4    4    0    0  0.19462816657E+03 -0.33017586659E+03 -0.22124063986E+02  0.39535898307E+03  0.94461765724E+02 0.  0.
         23    2    4    4    0    0  0.15299309031E+03  0.41768834747E+03 -0.66635395631E+03  0.80636182950E+03  0.91221508954E+02 0.  0.
          3    1    3    3  502    0 -0.12784708963E+02 -0.18559863496E+02 -0.13061558382E+01  0.22574839076E+02  0.00000000000E+00 0. -1.
         -4    1    3    3    0  502 -0.33483654792E+03 -0.68952617377E+02  0.17442756948E+03  0.38379024774E+03  0.00000000000E+00 0.  1.
         13    1    5    5    0    0  0.16188859410E+03 -0.28303200310E+03 -0.52754845471E+02  0.33030002331E+03  0.00000000000E+00 0. -1.
        -13    1    5    5    0    0  0.32739572474E+02 -0.47143863494E+02  0.30630781484E+02  0.65058959762E+02  0.00000000000E+00 0.  1.
          3    1    6    6  503    0  0.15459360844E+03  0.41393956206E+03 -0.62846063224E+03  0.76824990145E+03  0.00000000000E+00 0. -1.
         -3    1    6    6    0  503 -0.16005181292E+01  0.37487854041E+01 -0.37893324075E+02  0.38111928050E+02  0.00000000000E+00 0.  1.
<mgrwt>
<rscale>  0 0.15232688E+04</rscale>
<asrwt>0</asrwt>
<pdfrwt beam="1">  1        1 0.16334173E+00 0.15232688E+04</pdfrwt>
<pdfrwt beam="2">  1       -2 0.84056100E-01 0.15232688E+04</pdfrwt>
<totfact> 0.14184457E+01</totfact>
</mgrwt>
</event>
<event>
12    5  0.5041746E-008  0.2171648E+04  0.7818608E-02  0.8530323E-01
         -4   -1    0    0    0  501 -0.00000000000E+00  0.00000000000E+00  0.67092900566E+03  0.67092900566E+03  0.00000000000E+00 0.  1.
          3   -1    0    0  501    0  0.00000000000E+00 -0.00000000000E+00 -0.17572846408E+04  0.17572846408E+04  0.00000000000E+00 0. -1.
        -24    2    1    2    0    0 -0.30823971972E+03 -0.28590016496E+03  0.43523459611E+03  0.61125005599E+03  0.86295122445E+02 0.  0.
        254    2    1    2    0    0  0.30823971972E+03  0.28590016496E+03 -0.15215902312E+04  0.18169635905E+04  0.89964950294E+03 0.  0.
         23    2    4    4    0    0  0.49845877832E+03  0.14403482212E+03 -0.14652877145E+04  0.15571045048E+04  0.91099774793E+02 0.  0.
         23    2    4    4    0    0 -0.19021905859E+03  0.14186534285E+03 -0.56302516752E+02  0.25985908567E+03  0.89709003221E+02 0.  0.
          3    1    3    3  502    0 -0.75622439752E+02 -0.11748842712E+03  0.17278081237E+03  0.22220596982E+03  0.00000000000E+00 0. -1.
         -4    1    3    3    0  502 -0.23261727997E+03 -0.16841173784E+03  0.26245378374E+03  0.38904408617E+03  0.00000000000E+00 0.  1.
         13    1    5    5    0    0  0.46222682594E+03  0.15462153684E+03 -0.13240976548E+04  0.14109557250E+04  0.00000000000E+00 0.  1.
        -13    1    5    5    0    0  0.36231952373E+02 -0.10586714721E+02 -0.14119005964E+03  0.14614877982E+03  0.00000000000E+00 0. -1.
          3    1    6    6  503    0  0.52008643103E+01  0.13014778641E+02 -0.17771801846E+02  0.22633391118E+02  0.00000000000E+00 0. -1.
         -3    1    6    6    0  503 -0.19541992291E+03  0.12885056420E+03 -0.38530714905E+02  0.23722569455E+03  0.00000000000E+00 0.  1.
<mgrwt>
<rscale>  0 0.21716475E+04</rscale>
<asrwt>0</asrwt>
<pdfrwt beam="1">  1        3 0.27035148E+00 0.21716475E+04</pdfrwt>
<pdfrwt beam="2">  1       -4 0.10321985E+00 0.21716475E+04</pdfrwt>
<totfact> 0.90853731E-02</totfact>
</mgrwt>
</event>
<event>
12    5  0.5041746E-008  0.2341960E+04  0.7818608E-02  0.8461558E-01
          1   -1    0    0  501    0  0.00000000000E+00  0.00000000000E+00  0.85105452565E+03  0.85105452565E+03  0.00000000000E+00 0. -1.
         -2   -1    0    0    0  501 -0.00000000000E+00 -0.00000000000E+00 -0.16111709934E+04  0.16111709934E+04  0.00000000000E+00 0.  1.
        -24    2    1    2    0    0 -0.40558103693E+03 -0.55904686551E+03  0.42840752667E+03  0.81792532113E+03  0.91866461092E+02 0.  0.
        254    2    1    2    0    0  0.40558103693E+03  0.55904686551E+03 -0.11885239944E+04  0.16443001979E+04  0.90227738540E+03 0.  0.
         23    2    4    4    0    0 -0.48880654083E+02 -0.18150704876E+03 -0.45617286987E+03  0.50390898251E+03  0.10245217593E+03 0.  0.
         23    2    4    4    0    0  0.45446169101E+03  0.74055391427E+03 -0.73235112453E+03  0.11403912154E+04  0.95908425073E+02 0.  0.
          1    1    3    3  502    0 -0.32768106976E+03 -0.42157212155E+03  0.28863962046E+03  0.60696850631E+03  0.00000000000E+00 0. -1.
         -2    1    3    3    0  502 -0.77899967172E+02 -0.13747474396E+03  0.13976790621E+03  0.21095681482E+03  0.00000000000E+00 0.  1.
         13    1    5    5    0    0 -0.75707793804E+02 -0.10908486469E+03 -0.33335155394E+03  0.35882368409E+03  0.00000000000E+00 0.  1.
        -13    1    5    5    0    0  0.26827139721E+02 -0.72422184077E+02 -0.12282131593E+03  0.14508529843E+03  0.00000000000E+00 0. -1.
          3    1    6    6  503    0  0.35510426941E+02  0.11905818799E+03 -0.11642713659E+03  0.17026779109E+03  0.00000000000E+00 0. -1.
         -3    1    6    6    0  503  0.41895126407E+03  0.62149572629E+03 -0.61592398794E+03  0.97012342430E+03  0.00000000000E+00 0.  1.
<mgrwt>
<rscale>  0 0.23419602E+04</rscale>
<asrwt>0</asrwt>
<pdfrwt beam="1">  1        1 0.13093147E+00 0.23419602E+04</pdfrwt>
<pdfrwt beam="2">  1       -2 0.24787246E+00 0.23419602E+04</pdfrwt>
<totfact> 0.10449930E+00</totfact>
</mgrwt>
</event>
<event>
12    5  0.5041746E-008  0.2472168E+04  0.7818608E-02  0.8412969E-01
         -2   -1    0    0    0  501 -0.00000000000E+00  0.00000000000E+00  0.15828499549E+04  0.15828499549E+04  0.00000000000E+00 0.  1.
          1   -1    0    0  501    0  0.00000000000E+00 -0.00000000000E+00 -0.96528623348E+03  0.96528623348E+03  0.00000000000E+00 0. -1.
        -24    2    1    2    0    0 -0.55286575054E+02  0.88616877501E+03 -0.34588959254E+03  0.95680929162E+03  0.86560424733E+02 0.  0.
        254    2    1    2    0    0  0.55286575054E+02 -0.88616877501E+03  0.96345331400E+03  0.15913268968E+04  0.90317622923E+03 0.  0.
         23    2    4    4    0    0 -0.38706241306E+03 -0.26372039056E+03  0.23512130493E+03  0.53223158747E+03  0.92858379646E+02 0.  0.
         23    2    4    4    0    0  0.44234898811E+03 -0.62244838445E+03  0.72833200907E+03  0.10590953093E+04  0.90004112324E+02 0.  0.
          3    1    3    3  502    0 -0.35369962178E+02  0.44697959649E+03 -0.12890989080E+03  0.46653998098E+03  0.00000000000E+00 0. -1.
         -4    1    3    3    0  502 -0.19916612876E+02  0.43918917852E+03 -0.21697970174E+03  0.49026931065E+03  0.00000000000E+00 0.  1.
         13    1    5    5    0    0 -0.39242051610E+03 -0.25929250122E+03  0.22983230948E+03  0.52349723316E+03  0.00000000000E+00 0.  1.
        -13    1    5    5    0    0  0.53581030483E+01 -0.44278893425E+01  0.52889954490E+01  0.87343543073E+01  0.00000000000E+00 0. -1.
          3    1    6    6  503    0  0.96642304173E+02 -0.13669934919E+03  0.21392536009E+03  0.27164408095E+03  0.00000000000E+00 0. -1.
         -3    1    6    6    0  503  0.34570668394E+03 -0.48574903526E+03  0.51440664898E+03  0.78745122839E+03  0.00000000000E+00 0.  1.
<mgrwt>
<rscale>  0 0.24721677E+04</rscale>
<asrwt>0</asrwt>
<pdfrwt beam="1">  1        1 0.14850557E+00 0.24721677E+04</pdfrwt>
<pdfrwt beam="2">  1       -2 0.24351538E+00 0.24721677E+04</pdfrwt>
<totfact> 0.88671573E-01</totfact>
</mgrwt>
</event>
<event>
12    5  0.5041746E-008  0.1590021E+04  0.7818608E-02  0.8826702E-01
          1   -1    0    0  501    0  0.00000000000E+00  0.00000000000E+00  0.23593563091E+04  0.23593563091E+04  0.00000000000E+00 0. -1.
         -2   -1    0    0    0  501 -0.00000000000E+00 -0.00000000000E+00 -0.26788747350E+03  0.26788747350E+03  0.00000000000E+00 0.  1.
        -24    2    1    2    0    0 -0.67521182356E+02 -0.52926254720E+03  0.79598693503E+03  0.96181251873E+03  0.82523733005E+02 0.  0.
        254    2    1    2    0    0  0.67521182356E+02  0.52926254720E+03  0.12954819006E+04  0.16654312639E+04  0.90039435031E+03 0.  0.
         23    2    4    4    0    0  0.45856662668E+03  0.39024260411E+03  0.88708826064E+03  0.10760333314E+04  0.91375635902E+02 0.  0.
         23    2    4    4    0    0 -0.39104544432E+03  0.13901994308E+03  0.40839363997E+03  0.58939793256E+03  0.91441093815E+02 0.  0.
          3    1    3    3  502    0 -0.12216777698E+02 -0.17291062542E+03  0.32816339028E+03  0.37113143866E+03  0.00000000000E+00 0. -1.
         -4    1    3    3    0  502 -0.55304404658E+02 -0.35635192177E+03  0.46782354475E+03  0.59068108006E+03  0.00000000000E+00 0.  1.
         13    1    5    5    0    0  0.42193605549E+03  0.38563712571E+03  0.84304546029E+03  0.10185635355E+04  0.00000000000E+00 0.  1.
        -13    1    5    5    0    0  0.36630571188E+02  0.46054784030E+01  0.44042800349E+02  0.57469795888E+02  0.00000000000E+00 0. -1.
          4    1    6    6  503    0 -0.79368258578E+02  0.38845850452E+02  0.41334094022E+02  0.97554230537E+02  0.00000000000E+00 0. -1.
         -4    1    6    6    0  503 -0.31167718575E+03  0.10017409263E+03  0.36705954595E+03  0.49184370203E+03  0.00000000000E+00 0.  1.
<mgrwt>
<rscale>  0 0.15900214E+04</rscale>
<asrwt>0</asrwt>
<pdfrwt beam="1">  1        1 0.36297788E+00 0.15900214E+04</pdfrwt>
<pdfrwt beam="2">  1       -2 0.41213459E-01 0.15900214E+04</pdfrwt>
<totfact> 0.79801409E+00</totfact>
</mgrwt>
</event>
<event>
12    5  0.5041746E-008  0.1618027E+04  0.7818608E-02  0.8809549E-01
          1   -1    0    0  501    0  0.00000000000E+00  0.00000000000E+00  0.94886747852E+03  0.94886747852E+03  0.00000000000E+00 0. -1.
         -2   -1    0    0    0  501 -0.00000000000E+00 -0.00000000000E+00 -0.68977266270E+03  0.68977266270E+03  0.00000000000E+00 0.  1.
        -24    2    1    2    0    0 -0.27197692631E+03  0.32360621043E+03 -0.26106621808E+03  0.50325527002E+03  0.80111601562E+02 0.  0.
        254    2    1    2    0    0  0.27197692631E+03 -0.32360621043E+03  0.52016103391E+03  0.11353848712E+04  0.91642723481E+03 0.  0.
         23    2    4    4    0    0 -0.23578391637E+03 -0.11727645274E+03  0.50831739831E+03  0.57967212242E+03  0.91024010608E+02 0.  0.
         23    2    4    4    0    0  0.50776084268E+03 -0.20632975769E+03  0.11843635602E+02  0.55571274878E+03  0.91012884732E+02 0.  0.
          1    1    3    3  502    0 -0.12051338792E+02  0.36669490300E+02 -0.47124885549E+02  0.60915032000E+02  0.00000000000E+00 0. -1.
         -4    1    3    3    0  502 -0.25992558751E+03  0.28693672013E+03 -0.21394133253E+03  0.44234023801E+03  0.00000000000E+00 0.  1.
         13    1    5    5    0    0 -0.10606914183E+03 -0.80080467946E+02  0.17253085298E+03  0.21778530580E+03  0.00000000000E+00 0.  1.
        -13    1    5    5    0    0 -0.12971477454E+03 -0.37195984790E+02  0.33578654533E+03  0.36188681662E+03  0.00000000000E+00 0. -1.
          3    1    6    6  503    0  0.39590667139E+03 -0.18308045289E+03  0.40092123015E+02  0.43802730852E+03  0.00000000000E+00 0. -1.
         -3    1    6    6    0  503  0.11185417129E+03 -0.23249304804E+02 -0.28248487414E+02  0.11768544027E+03  0.00000000000E+00 0.  1.
<mgrwt>
<rscale>  0 0.16180270E+04</rscale>
<asrwt>0</asrwt>
<pdfrwt beam="1">  1        1 0.14597961E+00 0.16180270E+04</pdfrwt>
<pdfrwt beam="2">  1       -2 0.10611887E+00 0.16180270E+04</pdfrwt>
<totfact> 0.99950536E+00</totfact>
</mgrwt>
</event>
<event>
12    5  0.5041746E-008  0.1421253E+04  0.7818608E-02  0.8938577E-01
          1   -1    0    0  501    0  0.00000000000E+00  0.00000000000E+00  0.27121242401E+04  0.27121242401E+04  0.00000000000E+00 0. -1.
         -2   -1    0    0    0  501 -0.00000000000E+00 -0.00000000000E+00 -0.18619712479E+03  0.18619712479E+03  0.00000000000E+00 0.  1.
        -24    2    1    2    0    0  0.83931243393E+02 -0.28017633215E+03  0.13542438330E+04  0.13879457339E+04  0.82908203074E+02 0.  0.
        254    2    1    2    0    0 -0.83931243393E+02  0.28017633215E+03  0.11716832822E+04  0.15103756310E+04  0.90711057874E+03 0.  0.
         23    2    4    4    0    0 -0.39169304897E+03  0.55115348271E+02  0.10035995264E+04  0.10825643925E+04  0.90953330460E+02 0.  0.
         23    2    4    4    0    0  0.30776180557E+03  0.22506098388E+03  0.16808375583E+03  0.42781123846E+03  0.96956337312E+02 0.  0.
          1    1    3    3  502    0  0.80563862747E+02 -0.14238282321E+03  0.64426175249E+03  0.66470791334E+03  0.00000000000E+00 0. -1.
         -2    1    3    3    0  502  0.33673806458E+01 -0.13779350893E+03  0.70998208055E+03  0.72323782054E+03  0.00000000000E+00 0.  1.
         13    1    5    5    0    0 -0.98664776610E+02 -0.18055148237E+02  0.19263554861E+03  0.21718467052E+03  0.00000000000E+00 0.  1.
        -13    1    5    5    0    0 -0.29302827236E+03  0.73170496508E+02  0.81096397778E+03  0.86537972199E+03  0.00000000000E+00 0. -1.
          3    1    6    6  503    0  0.26765102649E+03  0.18336427513E+03  0.10225404770E+03  0.34016969242E+03  0.00000000000E+00 0. -1.
         -3    1    6    6    0  503  0.40110779088E+02  0.41696708750E+02  0.65829708127E+02  0.87641546037E+02  0.00000000000E+00 0.  1.
<mgrwt>
<rscale>  0 0.14212526E+04</rscale>
<asrwt>0</asrwt>
<pdfrwt beam="1">  1        1 0.41724985E+00 0.14212526E+04</pdfrwt>
<pdfrwt beam="2">  1       -2 0.28645713E-01 0.14212526E+04</pdfrwt>
<totfact> 0.92360167E+00</totfact>
</mgrwt>
</event>
<event>
12    5  0.5041746E-008  0.1872346E+04  0.7818608E-02  0.8668745E-01
         -2   -1    0    0    0  501 -0.00000000000E+00  0.00000000000E+00  0.67573853547E+03  0.67573853547E+03  0.00000000000E+00 0.  1.
          3   -1    0    0  501    0  0.00000000000E+00 -0.00000000000E+00 -0.12969808811E+04  0.12969808811E+04  0.00000000000E+00 0. -1.
        -24    2    1    2    0    0  0.58059655712E+03  0.35663414841E+03 -0.48375956246E+03  0.83964797703E+03  0.81884877208E+02 0.  0.
        254    2    1    2    0    0 -0.58059655712E+03 -0.35663414841E+03 -0.13748278314E+03  0.11330714395E+04  0.89480114743E+03 0.  0.
         23    2    4    4    0    0 -0.37191481180E+03 -0.64959027732E+03 -0.80182926069E+02  0.75745739990E+03  0.83810831117E+02 0.  0.
         23    2    4    4    0    0 -0.20868174532E+03  0.29295612891E+03 -0.57299857075E+02  0.37561403962E+03  0.91821940944E+02 0.  0.
          1    1    3    3  502    0  0.57173815185E+03  0.33481920875E+03 -0.46356684537E+03  0.80863009897E+03  0.00000000000E+00 0. -1.
         -2    1    3    3    0  502  0.88584052661E+01  0.21814939656E+02 -0.20192717095E+02  0.31017878067E+02  0.00000000000E+00 0.  1.
         13    1    5    5    0    0 -0.12562510021E+03 -0.18691994789E+03  0.10837360761E+02  0.22547323812E+03  0.00000000000E+00 0. -1.
        -13    1    5    5    0    0 -0.24628971158E+03 -0.46267032943E+03 -0.91020286830E+02  0.53198416178E+03  0.00000000000E+00 0.  1.
          3    1    6    6  503    0 -0.17467883760E+03  0.25445213134E+03 -0.14887058777E+02  0.30899871839E+03  0.00000000000E+00 0. -1.
         -3    1    6    6    0  503 -0.34002907724E+02  0.38503997576E+02 -0.42412798298E+02  0.66615321229E+02  0.00000000000E+00 0.  1.
<mgrwt>
<rscale>  0 0.18723461E+04</rscale>
<asrwt>0</asrwt>
<pdfrwt beam="1">  1        3 0.19953552E+00 0.18723461E+04</pdfrwt>
<pdfrwt beam="2">  1       -2 0.10395977E+00 0.18723461E+04</pdfrwt>
<totfact> 0.43146220E-01</totfact>
</mgrwt>
</event>
<event>
12    5  0.5041746E-008  0.1552063E+04  0.7818608E-02  0.8850551E-01
         -2   -1    0    0    0  501 -0.00000000000E+00  0.00000000000E+00  0.69039608791E+03  0.69039608791E+03  0.00000000000E+00 0.  1.
          1   -1    0    0  501    0  0.00000000000E+00 -0.00000000000E+00 -0.87228936122E+03  0.87228936122E+03  0.00000000000E+00 0. -1.
        -24    2    1    2    0    0 -0.25345659690E+03  0.14749604968E+03 -0.48023849396E+03  0.56892689993E+03  0.83984970041E+02 0.  0.
        254    2    1    2    0    0  0.25345659690E+03 -0.14749604968E+03  0.29834522065E+03  0.99375854920E+03  0.90141602618E+03 0.  0.
         23    2    4    4    0    0 -0.20784028282E+03  0.69744922115E+02  0.39983849534E+03  0.46541343957E+03  0.93149933177E+02 0.  0.
         23    2    4    4    0    0  0.46129687972E+03 -0.21724097180E+03 -0.10149327469E+03  0.52834510963E+03  0.94123424258E+02 0.  0.
          1    1    3    3  502    0 -0.22313547395E+03  0.15221656937E+03 -0.39667018943E+03  0.47990265983E+03  0.00000000000E+00 0. -1.
         -2    1    3    3    0  502 -0.30321122953E+02 -0.47205196899E+01 -0.83568304528E+02  0.89024240098E+02  0.00000000000E+00 0.  1.
         13    1    5    5    0    0 -0.90837219648E+02  0.77049291534E+02  0.17250274202E+03  0.20963108024E+03  0.00000000000E+00 0. -1.
        -13    1    5    5    0    0 -0.11700306317E+03 -0.73043694195E+01  0.22733575332E+03  0.25578235933E+03  0.00000000000E+00 0.  1.
          3    1    6    6  503    0  0.43128032810E+03 -0.17471729728E+03 -0.10162443930E+03  0.47629442789E+03  0.00000000000E+00 0. -1.
         -3    1    6    6    0  503  0.30016551619E+02 -0.42523674513E+02  0.13116460744E+00  0.52050681738E+02  0.00000000000E+00 0.  1.
<mgrwt>
<rscale>  0 0.15520634E+04</rscale>
<asrwt>0</asrwt>
<pdfrwt beam="1">  1        1 0.13419836E+00 0.15520634E+04</pdfrwt>
<pdfrwt beam="2">  1       -2 0.10621478E+00 0.15520634E+04</pdfrwt>
<totfact> 0.11577946E+01</totfact>
</mgrwt>
</event>
<event>
12    5  0.5041746E-008  0.1202437E+04  0.7818608E-02  0.9110726E-01
         -2   -1    0    0    0  501 -0.00000000000E+00  0.00000000000E+00  0.25262997224E+03  0.25262997224E+03  0.00000000000E+00 0.  1.
          1   -1    0    0  501    0  0.00000000000E+00 -0.00000000000E+00 -0.14308029374E+04  0.14308029374E+04  0.00000000000E+00 0. -1.
        -24    2    1    2    0    0  0.71008888416E+01  0.18480226985E+03 -0.31961115449E+02  0.20323990424E+03  0.77991308551E+02 0.  0.
        254    2    1    2    0    0 -0.71008888416E+01 -0.18480226985E+03 -0.11462118497E+04  0.14801930054E+04  0.91813257607E+03 0.  0.
         23    2    4    4    0    0  0.16303177434E+03 -0.49128019049E+03 -0.90650721626E+03  0.10479534660E+04  0.92279731260E+02 0.  0.
         23    2    4    4    0    0 -0.17013266318E+03  0.30647792064E+03 -0.23970463346E+03  0.43223953938E+03  0.80615564154E+02 0.  0.
          3    1    3    3  502    0  0.18092900089E+02  0.12392296378E+03 -0.55586304723E+02  0.13701857997E+03  0.00000000000E+00 0. -1.
         -4    1    3    3    0  502 -0.10992011247E+02  0.60879306078E+02  0.23625189274E+02  0.66221324269E+02  0.00000000000E+00 0.  1.
         13    1    5    5    0    0  0.91755258528E+02 -0.39772916043E+03 -0.70329738073E+03  0.81316340195E+03  0.00000000000E+00 0. -1.
        -13    1    5    5    0    0  0.71276515812E+02 -0.93551030053E+02 -0.20320983553E+03  0.23479006407E+03  0.00000000000E+00 0.  1.
          3    1    6    6  503    0 -0.13369281616E+03  0.25304465645E+03 -0.22932492636E+03  0.36673599374E+03  0.00000000000E+00 0. -1.
         -3    1    6    6    0  503 -0.36439847023E+02  0.53433264183E+02 -0.10379707095E+02  0.65503545642E+02  0.00000000000E+00 0.  1.
<mgrwt>
<rscale>  0 0.12024370E+04</rscale>
<asrwt>0</asrwt>
<pdfrwt beam="1">  1        1 0.22012353E+00 0.12024370E+04</pdfrwt>
<pdfrwt beam="2">  1       -2 0.38866150E-01 0.12024370E+04</pdfrwt>
<totfact> 0.39698651E+01</totfact>
</mgrwt>
</event>
<event>
12    5  0.5041746E-008  0.1265359E+04  0.7818608E-02  0.9057496E-01
         -2   -1    0    0    0  501 -0.00000000000E+00  0.00000000000E+00  0.37882885602E+03  0.37882885602E+03  0.00000000000E+00 0.  1.
          1   -1    0    0  501    0  0.00000000000E+00 -0.00000000000E+00 -0.10566333926E+04  0.10566333926E+04  0.00000000000E+00 0. -1.
        -24    2    1    2    0    0  0.21500340581E+03  0.16952462657E+03 -0.62927130048E+02  0.29173961654E+03  0.78658226771E+02 0.  0.
        254    2    1    2    0    0 -0.21500340581E+03 -0.16952462657E+03 -0.61487740655E+03  0.11437226321E+04  0.92469571783E+03 0.  0.
         23    2    4    4    0    0 -0.50880082637E+01 -0.19035282475E+03  0.20386001623E+03  0.29329649754E+03  0.90575071250E+02 0.  0.
         23    2    4    4    0    0 -0.20991539755E+03  0.20828198183E+02 -0.81873742278E+03  0.85042613456E+03  0.91626169328E+02 0.  0.
          3    1    3    3  502    0  0.24781953568E+02  0.57317410042E+02 -0.13258869732E+01  0.62459496418E+02  0.00000000000E+00 0. -1.
         -4    1    3    3    0  502  0.19022145225E+03  0.11220721653E+03 -0.61601243075E+02  0.22928012012E+03  0.00000000000E+00 0.  1.
         13    1    5    5    0    0  0.25879833780E+02 -0.46507652624E+02  0.99708991771E+02  0.11302482289E+03  0.00000000000E+00 0. -1.
        -13    1    5    5    0    0 -0.30967842043E+02 -0.14384517213E+03  0.10415102446E+03  0.18027167465E+03  0.00000000000E+00 0.  1.
          4    1    6    6  503    0 -0.15478690218E+03 -0.82217762979E+01 -0.43790315957E+03  0.46452745867E+03  0.00000000000E+00 0. -1.
         -4    1    6    6    0  503 -0.55128495367E+02  0.29049974480E+02 -0.38083426321E+03  0.38589867589E+03  0.00000000000E+00 0.  1.
<mgrwt>
<rscale>  0 0.12653588E+04</rscale>
<asrwt>0</asrwt>
<pdfrwt beam="1">  1        1 0.16255898E+00 0.12653588E+04</pdfrwt>
<pdfrwt beam="2">  1       -2 0.58281363E-01 0.12653588E+04</pdfrwt>
<totfact> 0.32532199E+01</totfact>
</mgrwt>
</event>
<event>
12    5  0.5041746E-008  0.1525263E+04  0.7818608E-02  0.8867825E-01
          1   -1    0    0  501    0  0.00000000000E+00  0.00000000000E+00  0.18541507899E+04  0.18541507899E+04  0.00000000000E+00 0. -1.
         -2   -1    0    0    0  501 -0.00000000000E+00 -0.00000000000E+00 -0.31367811181E+03  0.31367811181E+03  0.00000000000E+00 0.  1.
        -24    2    1    2    0    0  0.79290813756E+02  0.42111105769E+03  0.16072127218E+03  0.46436703631E+03  0.78637529392E+02 0.  0.
        254    2    1    2    0    0 -0.79290813756E+02 -0.42111105769E+03  0.13797514059E+04  0.17034618654E+04  0.90246707904E+03 0.  0.
         23    2    4    4    0    0 -0.36426425382E+03 -0.16591262152E+03  0.19411293243E+03  0.45412452199E+03  0.91289683678E+02 0.  0.
         23    2    4    4    0    0  0.28497344007E+03 -0.25519843617E+03  0.11856384735E+04  0.12493373435E+04  0.93643496809E+02 0.  0.
          3    1    3    3  502    0 -0.96061682010E+01  0.47537819131E+02  0.11082557660E+01  0.48511348632E+02  0.00000000000E+00 0. -1.
         -4    1    3    3    0  502  0.88896981957E+02  0.37357323856E+03  0.15961301642E+03  0.41585568768E+03  0.00000000000E+00 0.  1.
         13    1    5    5    0    0 -0.22939654220E+03 -0.67485984383E+02  0.81048788335E+02  0.25247977692E+03  0.00000000000E+00 0. -1.
        -13    1    5    5    0    0 -0.13486771162E+03 -0.98426637136E+02  0.11306414409E+03  0.20164474507E+03  0.00000000000E+00 0.  1.
          1    1    6    6  503    0  0.24180524796E+03 -0.24736693216E+03  0.98552612442E+03  0.10444720767E+04  0.00000000000E+00 0. -1.
         -1    1    6    6    0  503  0.43168192102E+02 -0.78315040039E+01  0.20011234910E+03  0.20486526676E+03  0.00000000000E+00 0.  1.
<mgrwt>
<rscale>  0 0.15252626E+04</rscale>
<asrwt>0</asrwt>
<pdfrwt beam="1">  1        1 0.28525396E+00 0.15252626E+04</pdfrwt>
<pdfrwt beam="2">  1       -2 0.48258172E-01 0.15252626E+04</pdfrwt>
<totfact> 0.12905389E+01</totfact>
</mgrwt>
</event>
<event>
12    5  0.5041746E-008  0.1657603E+04  0.7818608E-02  0.8785921E-01
         -2   -1    0    0    0  501 -0.00000000000E+00  0.00000000000E+00  0.14848362613E+04  0.14848362613E+04  0.00000000000E+00 0.  1.
          1   -1    0    0  501    0  0.00000000000E+00 -0.00000000000E+00 -0.46261778082E+03  0.46261778082E+03  0.00000000000E+00 0. -1.
        -24    2    1    2    0    0 -0.38063530095E+03 -0.20521141862E+03  0.75215243879E+03  0.87119723278E+03  0.79097209535E+02 0.  0.
        254    2    1    2    0    0  0.38063530095E+03  0.20521141862E+03  0.27006604171E+03  0.10762568094E+04  0.94783864352E+03 0.  0.
         23    2    4    4    0    0  0.89911088470E+02 -0.27337907268E+03  0.39187260520E+03  0.49567765282E+03  0.96499096308E+02 0.  0.
         23    2    4    4    0    0  0.29072421248E+03  0.47859049130E+03 -0.12180656349E+03  0.58057915654E+03  0.93090772962E+02 0.  0.
          3    1    3    3  502    0 -0.36094416971E+03 -0.20936094784E+03  0.73283187739E+03  0.84330021976E+03  0.00000000000E+00 0. -1.
         -4    1    3    3    0  502 -0.19691131243E+02  0.41495292240E+01  0.19320561402E+02  0.27897013018E+02  0.00000000000E+00 0.  1.
         13    1    5    5    0    0  0.67090238729E+02 -0.23486956633E+03  0.37561562962E+03  0.44805347285E+03  0.00000000000E+00 0.  1.
        -13    1    5    5    0    0  0.22820849742E+02 -0.38509506355E+02  0.16256975580E+02  0.47624179968E+02  0.00000000000E+00 0. -1.
          2    1    6    6  503    0  0.23518090108E+02  0.99105903014E+02 -0.49734358644E+01  0.10197948636E+03  0.00000000000E+00 0. -1.
         -2    1    6    6    0  503  0.26720612237E+03  0.37948458829E+03 -0.11683312763E+03  0.47859967017E+03  0.00000000000E+00 0.  1.
<mgrwt>
<rscale>  0 0.16576027E+04</rscale>
<asrwt>0</asrwt>
<pdfrwt beam="1">  1        1 0.71171967E-01 0.16576027E+04</pdfrwt>
<pdfrwt beam="2">  1       -2 0.22843635E+00 0.16576027E+04</pdfrwt>
<totfact> 0.36004088E+00</totfact>
</mgrwt>
</event>
<event>
12    5  0.5041746E-008  0.1469960E+04  0.7818608E-02  0.8904679E-01
          1   -1    0    0  501    0  0.00000000000E+00  0.00000000000E+00  0.80869856952E+03  0.80869856952E+03  0.00000000000E+00 0. -1.
         -2   -1    0    0    0  501 -0.00000000000E+00 -0.00000000000E+00 -0.66798111049E+03  0.66798111049E+03  0.00000000000E+00 0.  1.
        -24    2    1    2    0    0  0.41591595276E+03 -0.15992416221E+02 -0.13388701898E+03  0.44508719529E+03  0.83276890076E+02 0.  0.
        254    2    1    2    0    0 -0.41591595276E+03  0.15992416221E+02  0.27460447802E+03  0.10315924847E+04  0.90306898853E+03 0.  0.
         23    2    4    4    0    0 -0.38361330468E+02  0.12983430853E+03  0.52898113835E+03  0.55363902405E+03  0.91469037733E+02 0.  0.
         23    2    4    4    0    0 -0.37755462230E+03 -0.11384189231E+03 -0.25437666034E+03  0.47795346068E+03  0.90689337786E+02 0.  0.
          3    1    3    3  502    0  0.95595123317E+02  0.17184009337E+02 -0.61679474661E+02  0.11505683540E+03  0.00000000000E+00 0. -1.
         -4    1    3    3    0  502  0.32032082945E+03 -0.33176425557E+02 -0.72207544322E+02  0.33003035989E+03  0.00000000000E+00 0.  1.
         13    1    5    5    0    0 -0.55469093134E+01  0.10414421631E+03  0.24016992786E+03  0.26183655253E+03  0.00000000000E+00 0. -1.
        -13    1    5    5    0    0 -0.32814421155E+02  0.25690092224E+02  0.28881121050E+03  0.29180247152E+03  0.00000000000E+00 0.  1.
          3    1    6    6  503    0 -0.27320684879E+03 -0.92710564006E+02 -0.13667755978E+03  0.31924596513E+03  0.00000000000E+00 0. -1.
         -3    1    6    6    0  503 -0.10434777351E+03 -0.21131328306E+02 -0.11769910056E+03  0.15870749555E+03  0.00000000000E+00 0.  1.
<mgrwt>
<rscale>  0 0.14699597E+04</rscale>
<asrwt>0</asrwt>
<pdfrwt beam="1">  1        1 0.12441516E+00 0.14699597E+04</pdfrwt>
<pdfrwt beam="2">  1       -2 0.10276632E+00 0.14699597E+04</pdfrwt>
<totfact> 0.14285706E+01</totfact>
</mgrwt>
</event>
<event>
12    5  0.5041746E-008  0.1768268E+04  0.7818608E-02  0.8723358E-01
         -2   -1    0    0    0  501 -0.00000000000E+00  0.00000000000E+00  0.16803578403E+04  0.16803578403E+04  0.00000000000E+00 0.  1.
          1   -1    0    0  501    0  0.00000000000E+00 -0.00000000000E+00 -0.46519444590E+03  0.46519444590E+03  0.00000000000E+00 0. -1.
        -24    2    1    2    0    0  0.18562957841E+03 -0.30542847607E+03 -0.21068683554E+03  0.42271020216E+03  0.80932551967E+02 0.  0.
        254    2    1    2    0    0 -0.18562957841E+03  0.30542847607E+03  0.14258502300E+04  0.17228420841E+04  0.89854942766E+03 0.  0.
         23    2    4    4    0    0  0.57809363264E+02  0.46742427554E+03  0.32279172929E+03  0.57828633900E+03  0.91614483207E+02 0.  0.
         23    2    4    4    0    0 -0.24343894167E+03 -0.16199579947E+03  0.11030585007E+04  0.11445557451E+04  0.88117196196E+02 0.  0.
          3    1    3    3  502    0  0.14594907802E+03 -0.21291577227E+03 -0.18848842888E+03  0.31962813906E+03  0.00000000000E+00 0. -1.
         -4    1    3    3    0  502  0.39680500391E+02 -0.92512703801E+02 -0.22198406658E+02  0.10308206311E+03  0.00000000000E+00 0.  1.
         13    1    5    5    0    0 -0.12741133268E+02  0.13788844566E+03  0.59919890195E+02  0.15088390625E+03  0.00000000000E+00 0.  1.
        -13    1    5    5    0    0  0.70550496532E+02  0.32953582988E+03  0.26287183909E+03  0.42740243275E+03  0.00000000000E+00 0. -1.
          4    1    6    6  503    0 -0.18972307386E+03 -0.78788278156E+02  0.70127418273E+03  0.73074476864E+03  0.00000000000E+00 0. -1.
         -4    1    6    6    0  503 -0.53715867809E+02 -0.83207521313E+02  0.40178431793E+03  0.41381097641E+03  0.00000000000E+00 0.  1.
<mgrwt>
<rscale>  0 0.17682682E+04</rscale>
<asrwt>0</asrwt>
<pdfrwt beam="1">  1        1 0.71568377E-01 0.17682682E+04</pdfrwt>
<pdfrwt beam="2">  1       -2 0.25851659E+00 0.17682682E+04</pdfrwt>
<totfact> 0.23085766E+00</totfact>
</mgrwt>
</event>
<event>
12    5  0.5041746E-008  0.2215872E+04  0.7818608E-02  0.8511851E-01
          1   -1    0    0  501    0  0.00000000000E+00  0.00000000000E+00  0.20387373510E+04  0.20387373510E+04  0.00000000000E+00 0. -1.
         -2   -1    0    0    0  501 -0.00000000000E+00 -0.00000000000E+00 -0.60209930580E+03  0.60209930580E+03  0.00000000000E+00 0.  1.
        -24    2    1    2    0    0 -0.61356634536E+03  0.99650748329E+02 -0.21322116885E+03  0.66193041980E+03  0.79339032003E+02 0.  0.
        254    2    1    2    0    0  0.61356634536E+03 -0.99650748329E+02  0.16498592141E+04  0.19789062370E+04  0.89868823117E+03 0.  0.
         23    2    4    4    0    0 -0.10374220860E+03  0.72625459600E+02 -0.12079732660E+02  0.15831606772E+03  0.94239875474E+02 0.  0.
         23    2    4    4    0    0  0.71730855396E+03 -0.17227620793E+03  0.16619389467E+04  0.18205901693E+04  0.91087037875E+02 0.  0.
          3    1    3    3  502    0 -0.45868358360E+03  0.69579990044E+02 -0.12208682729E+03  0.47972617010E+03  0.00000000000E+00 0. -1.
         -4    1    3    3    0  502 -0.15488276176E+03  0.30070758285E+02 -0.91134341570E+02  0.18220424969E+03  0.00000000000E+00 0.  1.
         13    1    5    5    0    0 -0.79569639313E+02 -0.16467077056E+01 -0.25212937780E+01  0.79626604028E+02  0.00000000000E+00 0.  1.
        -13    1    5    5    0    0 -0.24172569289E+02  0.74272167305E+02 -0.95584388825E+01  0.78689463692E+02  0.00000000000E+00 0. -1.
          4    1    6    6  503    0  0.61243666911E+03 -0.11294970090E+03  0.13843645211E+04  0.15179925678E+04  0.00000000000E+00 0.  1.
         -4    1    6    6    0  503  0.10487188485E+03 -0.59326507031E+02  0.27757442566E+03  0.30259760153E+03  0.00000000000E+00 0. -1.
<mgrwt>
<rscale>  0 0.22158721E+04</rscale>
<asrwt>0</asrwt>
<pdfrwt beam="1">  1        1 0.31365190E+00 0.22158721E+04</pdfrwt>
<pdfrwt beam="2">  1       -2 0.92630664E-01 0.22158721E+04</pdfrwt>
<totfact> 0.22175694E+00</totfact>
</mgrwt>
</event>
<event>
12    5  0.5041746E-008  0.2045422E+04  0.7818608E-02  0.8585674E-01
         -2   -1    0    0    0  501 -0.00000000000E+00  0.00000000000E+00  0.63963101403E+03  0.63963101403E+03  0.00000000000E+00 0.  1.
          1   -1    0    0  501    0  0.00000000000E+00 -0.00000000000E+00 -0.16352197692E+04  0.16352197692E+04  0.00000000000E+00 0. -1.
        -24    2    1    2    0    0  0.29000384621E+03 -0.57574095279E+03 -0.95889260833E+03  0.11581573735E+04  0.79206009843E+02 0.  0.
        254    2    1    2    0    0 -0.29000384621E+03  0.57574095279E+03 -0.36696146812E+02  0.11166934097E+04  0.91108599402E+03 0.  0.
         23    2    4    4    0    0  0.65946127783E+01  0.69869217324E+03 -0.21714566092E+03  0.73729803788E+03  0.90785002878E+02 0.  0.
         23    2    4    4    0    0 -0.29659845899E+03 -0.12295122045E+03  0.18044951411E+03  0.37939537180E+03  0.91055875779E+02 0.  0.
          3    1    3    3  502    0  0.27392758774E+03 -0.51848970917E+03 -0.90200639672E+03  0.10758640442E+04  0.00000000000E+00 0. -1.
         -4    1    3    3    0  502  0.16076258475E+02 -0.57251243619E+02 -0.56886211610E+02  0.82293329339E+02  0.00000000000E+00 0.  1.
         13    1    5    5    0    0 -0.29234384897E+02  0.37915027840E+03 -0.85006332328E+02  0.38966095443E+03  0.00000000000E+00 0. -1.
        -13    1    5    5    0    0  0.35828997675E+02  0.31954189484E+03 -0.13213932859E+03  0.34763708345E+03  0.00000000000E+00 0.  1.
          4    1    6    6  503    0 -0.80631161455E+02 -0.63613297367E+02  0.21973639504E+02  0.10502798024E+03  0.00000000000E+00 0. -1.
         -4    1    6    6    0  503 -0.21596729754E+03 -0.59337923085E+02  0.15847587461E+03  0.27436739156E+03  0.00000000000E+00 0.  1.
<mgrwt>
<rscale>  0 0.20454215E+04</rscale>
<asrwt>0</asrwt>
<pdfrwt beam="1">  1        1 0.25157227E+00 0.20454215E+04</pdfrwt>
<pdfrwt beam="2">  1       -2 0.98404771E-01 0.20454215E+04</pdfrwt>
<totfact> 0.36737374E+00</totfact>
</mgrwt>
</event>
<event>
12    5  0.5041746E-008  0.3121441E+04  0.7818608E-02  0.8209878E-01
         -2   -1    0    0    0  501 -0.00000000000E+00  0.00000000000E+00  0.13339794226E+04  0.13339794226E+04  0.00000000000E+00 0.  1.
          1   -1    0    0  501    0  0.00000000000E+00 -0.00000000000E+00 -0.18260011050E+04  0.18260011050E+04  0.00000000000E+00 0. -1.
        -24    2    1    2    0    0 -0.12087087557E+04  0.27690563687E+03  0.49380033527E+03  0.13372307486E+04  0.81815134252E+02 0.  0.
        254    2    1    2    0    0  0.12087087557E+04 -0.27690563687E+03 -0.98582201772E+03  0.18227497789E+04  0.90161971927E+03 0.  0.
         23    2    4    4    0    0  0.92278110020E+03 -0.58830365762E+03 -0.65520930691E+03  0.12787072789E+04  0.90370994976E+02 0.  0.
         23    2    4    4    0    0  0.28592765549E+03  0.31139802075E+03 -0.33061271081E+03  0.54404250006E+03  0.89185905945E+02 0.  0.
          3    1    3    3  502    0 -0.51664898629E+03  0.98328178565E+02  0.24754840460E+03  0.58127000469E+03  0.00000000000E+00 0. -1.
         -4    1    3    3    0  502 -0.69205976941E+03  0.17857745831E+03  0.24625193067E+03  0.75596074396E+03  0.00000000000E+00 0.  1.
         13    1    5    5    0    0  0.90812164653E+03 -0.56848719849E+03 -0.65111604679E+03  0.12537203540E+04  0.00000000000E+00 0. -1.
        -13    1    5    5    0    0  0.14659453673E+02 -0.19816459131E+02 -0.40932601167E+01  0.24986924838E+02  0.00000000000E+00 0.  1.
          3    1    6    6  503    0  0.12277018326E+03  0.16646107936E+03 -0.20972439773E+03  0.29456091363E+03  0.00000000000E+00 0. -1.
         -3    1    6    6    0  503  0.16315747223E+03  0.14493694139E+03 -0.12088831308E+03  0.24948158643E+03  0.00000000000E+00 0.  1.
<mgrwt>
<rscale>  0 0.31214406E+04</rscale>
<asrwt>0</asrwt>
<pdfrwt beam="1">  1        1 0.28092325E+00 0.31214406E+04</pdfrwt>
<pdfrwt beam="2">  1       -2 0.20522760E+00 0.31214406E+04</pdfrwt>
<totfact> 0.35600879E-01</totfact>
</mgrwt>
</event>
<event>
12    5  0.5041746E-008  0.1359805E+04  0.7818608E-02  0.8983439E-01
          1   -1    0    0  501    0  0.00000000000E+00  0.00000000000E+00  0.10909514572E+04  0.10909514572E+04  0.00000000000E+00 0. -1.
         -4   -1    0    0    0  501 -0.00000000000E+00 -0.00000000000E+00 -0.42372839389E+03  0.42372839389E+03  0.00000000000E+00 0.  1.
        -24    2    1    2    0    0  0.16951900480E+03  0.26919962117E+03  0.41832650851E+03  0.53166785827E+03  0.80427077356E+02 0.  0.
        254    2    1    2    0    0 -0.16951900480E+03 -0.26919962117E+03  0.24889655479E+03  0.98301199281E+03  0.89619080223E+03 0.  0.
         23    2    4    4    0    0 -0.50410015561E+03 -0.27584816175E+03  0.25616019181E+03  0.63683103684E+03  0.98623275068E+02 0.  0.
         23    2    4    4    0    0  0.33458115081E+03  0.66485405855E+01 -0.72636370236E+01  0.34618095597E+03  0.88316160936E+02 0.  0.
          1    1    3    3  502    0  0.15306842887E+03  0.24127031816E+03  0.40709998663E+03  0.49736476500E+03  0.00000000000E+00 0. -1.
         -2    1    3    3    0  502  0.16450575924E+02  0.27929303006E+02  0.11226521874E+02  0.34303093272E+02  0.00000000000E+00 0.  1.
         13    1    5    5    0    0 -0.30244194504E+03 -0.17065393274E+03  0.20650496565E+03  0.40402746901E+03  0.00000000000E+00 0. -1.
        -13    1    5    5    0    0 -0.20165821057E+03 -0.10519422901E+03  0.49655226166E+02  0.23280356783E+03  0.00000000000E+00 0.  1.
          3    1    6    6  503    0  0.18102516921E+03  0.26765394356E+02 -0.41348172211E+02  0.18760642198E+03  0.00000000000E+00 0. -1.
         -3    1    6    6    0  503  0.15355598160E+03 -0.20116853771E+02  0.34084535187E+02  0.15857453399E+03  0.00000000000E+00 0.  1.
<mgrwt>
<rscale>  0 0.13598046E+04</rscale>
<asrwt>0</asrwt>
<pdfrwt beam="1">  1        1 0.16783868E+00 0.13598046E+04</pdfrwt>
<pdfrwt beam="2">  1       -4 0.65188984E-01 0.13598046E+04</pdfrwt>
<totfact> 0.13462079E+01</totfact>
</mgrwt>
</event>
<event>
12    5  0.5041746E-008  0.1418105E+04  0.7818608E-02  0.8940817E-01
          1   -1    0    0  501    0  0.00000000000E+00  0.00000000000E+00  0.69542489400E+03  0.69542489400E+03  0.00000000000E+00 0. -1.
         -2   -1    0    0    0  501 -0.00000000000E+00 -0.00000000000E+00 -0.72294707090E+03  0.72294707090E+03  0.00000000000E+00 0.  1.
        -24    2    1    2    0    0  0.35022868841E+03 -0.16566805642E+02  0.21704946120E+03  0.42039592894E+03  0.81778207508E+02 0.  0.
        254    2    1    2    0    0 -0.35022868841E+03  0.16566805642E+02 -0.24457163810E+03  0.99797603596E+03  0.90177951238E+03 0.  0.
         23    2    4    4    0    0  0.13408437559E+03  0.16750713537E+03  0.20847334727E+03  0.31234940911E+03  0.89798422435E+02 0.  0.
         23    2    4    4    0    0 -0.48431306400E+03 -0.15094032973E+03 -0.45304498537E+03  0.68562662685E+03  0.86556256689E+02 0.  0.
          1    1    3    3  502    0  0.26031761478E+03 -0.40061546948E+02  0.13283189471E+03  0.29498220347E+03  0.00000000000E+00 0. -1.
         -2    1    3    3    0  502  0.89911073627E+02  0.23494741306E+02  0.84217566499E+02  0.12541372547E+03  0.00000000000E+00 0.  1.
         13    1    5    5    0    0  0.86083422112E+02  0.14327890638E+03  0.10983333594E+03  0.20000640554E+03  0.00000000000E+00 0.  1.
        -13    1    5    5    0    0  0.48000953475E+02  0.24228228998E+02  0.98640011334E+02  0.11234300357E+03  0.00000000000E+00 0. -1.
          1    1    6    6  503    0 -0.50270276954E+02  0.52550439354E+01 -0.68155054046E+02  0.84851797999E+02  0.00000000000E+00 0. -1.
         -1    1    6    6    0  503 -0.43404278704E+03 -0.15619537367E+03 -0.38488993133E+03  0.60077482885E+03  0.00000000000E+00 0.  1.
<mgrwt>
<rscale>  0 0.14181049E+04</rscale>
<asrwt>0</asrwt>
<pdfrwt beam="1">  1        1 0.10698845E+00 0.14181049E+04</pdfrwt>
<pdfrwt beam="2">  1       -2 0.11122263E+00 0.14181049E+04</pdfrwt>
<totfact> 0.15004344E+01</totfact>
</mgrwt>
</event>
<event>
12    5  0.5041746E-008  0.3087304E+04  0.7818608E-02  0.8219231E-01
          1   -1    0    0  501    0  0.00000000000E+00  0.00000000000E+00  0.21149732602E+04  0.21149732602E+04  0.00000000000E+00 0. -1.
         -2   -1    0    0    0  501 -0.00000000000E+00 -0.00000000000E+00 -0.11266625084E+04  0.11266625084E+04  0.00000000000E+00 0.  1.
        -24    2    1    2    0    0  0.12152891501E+04  0.53165491726E+03 -0.50091564034E+02  0.13295656931E+04  0.75173785989E+02 0.  0.
        254    2    1    2    0    0 -0.12152891501E+04 -0.53165491726E+03  0.10384023158E+04  0.19120700755E+04  0.90451530380E+03 0.  0.
         23    2    4    4    0    0 -0.67898030712E+03 -0.66594768786E+03  0.94608572954E+03  0.13446982957E+04  0.92923186098E+02 0.  0.
         23    2    4    4    0    0 -0.53630884293E+03  0.13429277060E+03  0.92316586266E+02  0.56737177974E+03  0.87901428321E+02 0.  0.
          3    1    3    3  502    0  0.53917202809E+03  0.24579342155E+03  0.13894530088E+02  0.59271741996E+03  0.00000000000E+00 0. -1.
         -4    1    3    3    0  502  0.67611712196E+03  0.28586149570E+03 -0.63986094122E+02  0.73684827310E+03  0.00000000000E+00 0.  1.
         13    1    5    5    0    0 -0.23368339745E+03 -0.16950456830E+03  0.28432670142E+03  0.40519304295E+03  0.00000000000E+00 0.  1.
        -13    1    5    5    0    0 -0.44529690967E+03 -0.49644311956E+03  0.66175902812E+03  0.93950525279E+03  0.00000000000E+00 0. -1.
          1    1    6    6  503    0 -0.51458083321E+03  0.14474246790E+03  0.95624229699E+02  0.54303573476E+03  0.00000000000E+00 0. -1.
         -1    1    6    6    0  503 -0.21728009728E+02 -0.10449697299E+02 -0.33076434324E+01  0.24336044984E+02  0.00000000000E+00 0.  1.
<mgrwt>
<rscale>  0 0.30873037E+04</rscale>
<asrwt>0</asrwt>
<pdfrwt beam="1">  1        1 0.32538050E+00 0.30873037E+04</pdfrwt>
<pdfrwt beam="2">  1       -2 0.17333269E+00 0.30873037E+04</pdfrwt>
<totfact> 0.37326832E-01</totfact>
</mgrwt>
</event>
<event>
12    5  0.5041746E-008  0.1412673E+04  0.7818608E-02  0.8944696E-01
         -2   -1    0    0    0  501 -0.00000000000E+00  0.00000000000E+00  0.15765076002E+03  0.15765076002E+03  0.00000000000E+00 0.  1.
          1   -1    0    0  501    0  0.00000000000E+00 -0.00000000000E+00 -0.31646617412E+04  0.31646617412E+04  0.00000000000E+00 0. -1.
        -24    2    1    2    0    0  0.34788711760E+03  0.14935601052E+03 -0.13185847824E+04  0.13741621781E+04  0.79518542967E+02 0.  0.
        254    2    1    2    0    0 -0.34788711760E+03 -0.14935601052E+03 -0.16884261987E+04  0.19481503231E+04  0.89508322994E+03 0.  0.
         23    2    4    4    0    0 -0.49455935015E+03 -0.41185781637E+03 -0.12678224888E+04  0.14246635917E+04  0.89870321140E+02 0.  0.
         23    2    4    4    0    0  0.14667223255E+03  0.26250180584E+03 -0.42060370993E+03  0.52348673146E+03  0.81920298690E+02 0.  0.
          3    1    3    3  502    0  0.19526046229E+03  0.95502259318E+02 -0.88650667084E+03  0.91276580080E+03  0.00000000000E+00 0. -1.
         -4    1    3    3    0  502  0.15262665531E+03  0.53853751206E+02 -0.43207811159E+03  0.46139637726E+03  0.00000000000E+00 0.  1.
         13    1    5    5    0    0 -0.47673102011E+03 -0.40419085028E+03 -0.12530375476E+04  0.14002663335E+04  0.00000000000E+00 0. -1.
        -13    1    5    5    0    0 -0.17828330043E+02 -0.76669660844E+01 -0.14784941188E+02  0.24397258186E+02  0.00000000000E+00 0.  1.
          1    1    6    6  503    0  0.10186745591E+03  0.21154873443E+03 -0.37246009869E+03  0.44029123399E+03  0.00000000000E+00 0. -1.
         -1    1    6    6    0  503  0.44804776637E+02  0.50953071415E+02 -0.48143611234E+02  0.83195497467E+02  0.00000000000E+00 0.  1.
<mgrwt>
<rscale>  0 0.14126731E+04</rscale>
<asrwt>0</asrwt>
<pdfrwt beam="1">  1        1 0.48687094E+00 0.14126731E+04</pdfrwt>
<pdfrwt beam="2">  1       -2 0.24253968E-01 0.14126731E+04</pdfrwt>
<totfact> 0.59128802E+00</totfact>
</mgrwt>
</event>
<event>
12    5  0.5041746E-008  0.1480823E+04  0.7818608E-02  0.8897306E-01
         -2   -1    0    0    0  501 -0.00000000000E+00  0.00000000000E+00  0.83358287991E+03  0.83358287991E+03  0.00000000000E+00 0.  1.
          1   -1    0    0  501    0  0.00000000000E+00 -0.00000000000E+00 -0.65765431452E+03  0.65765431452E+03  0.00000000000E+00 0. -1.
        -24    2    1    2    0    0  0.43880653764E+03 -0.23325831224E+02 -0.96256589649E+02  0.45774738389E+03  0.84688042392E+02 0.  0.
        254    2    1    2    0    0 -0.43880653764E+03  0.23325831224E+02  0.27218515504E+03  0.10334898105E+04  0.89494198583E+03 0.  0.
         23    2    4    4    0    0 -0.55598840874E+03 -0.30078733122E+03  0.14064934419E+03  0.65363076668E+03  0.88627376399E+02 0.  0.
         23    2    4    4    0    0  0.11718187110E+03  0.32411316245E+03  0.13153581085E+03  0.37985904387E+03  0.90610654382E+02 0.  0.
          3    1    3    3  502    0  0.39633780629E+03 -0.40822188356E+02 -0.10246239177E+03  0.41139840725E+03  0.00000000000E+00 0. -1.
         -4    1    3    3    0  502  0.42468731349E+02  0.17496357132E+02  0.62058021239E+01  0.46348976637E+02  0.00000000000E+00 0.  1.
         13    1    5    5    0    0 -0.45034198879E+03 -0.21609855064E+03  0.13794138467E+03  0.51820296802E+03  0.00000000000E+00 0. -1.
        -13    1    5    5    0    0 -0.10564641995E+03 -0.84688780583E+02  0.27079595154E+01  0.13542779866E+03  0.00000000000E+00 0.  1.
          1    1    6    6  503    0  0.13256995544E+03  0.28497771194E+03  0.11559510849E+03  0.33488702348E+03  0.00000000000E+00 0. -1.
         -1    1    6    6    0  503 -0.15388084343E+02  0.39135450508E+02  0.15940702365E+02  0.44972020391E+02  0.00000000000E+00 0.  1.
<mgrwt>
<rscale>  0 0.14808233E+04</rscale>
<asrwt>0</asrwt>
<pdfrwt beam="1">  1        1 0.10117759E+00 0.14808233E+04</pdfrwt>
<pdfrwt beam="2">  1       -2 0.12824352E+00 0.14808233E+04</pdfrwt>
<totfact> 0.11406849E+01</totfact>
</mgrwt>
</event>
<event>
12    5  0.5041746E-008  0.2263081E+04  0.7818608E-02  0.8492622E-01
          1   -1    0    0  501    0  0.00000000000E+00  0.00000000000E+00  0.12742882189E+04  0.12742882189E+04  0.00000000000E+00 0. -1.
         -2   -1    0    0    0  501 -0.00000000000E+00 -0.00000000000E+00 -0.10047837999E+04  0.10047837999E+04  0.00000000000E+00 0.  1.
        -24    2    1    2    0    0  0.10510718852E+03 -0.76072215030E+03  0.58976538677E+03  0.97163941819E+03  0.80710820228E+02 0.  0.
        254    2    1    2    0    0 -0.10510718852E+03  0.76072215030E+03 -0.32026096775E+03  0.13074326006E+04  0.10084974995E+04 0.  0.
         23    2    4    4    0    0 -0.20792611905E+03 -0.19292424779E+03 -0.13285901194E+03  0.32588161075E+03  0.89968165484E+02 0.  0.
         23    2    4    4    0    0  0.10281893053E+03  0.95364639810E+03 -0.18740195581E+03  0.98155098985E+03  0.91157377944E+02 0.  0.
          3    1    3    3  502    0  0.77887836182E+01 -0.19864218955E+03  0.19063042727E+03  0.27542575119E+03  0.00000000000E+00 0. -1.
         -4    1    3    3    0  502  0.97318404901E+02 -0.56207996075E+03  0.39913495950E+03  0.69621366700E+03  0.00000000000E+00 0.  1.
         13    1    5    5    0    0 -0.98941228956E+02 -0.74481384704E+02 -0.10535656865E+03  0.16259412662E+03  0.00000000000E+00 0. -1.
        -13    1    5    5    0    0 -0.10898489009E+03 -0.11844286309E+03 -0.27502443294E+02  0.16328748413E+03  0.00000000000E+00 0.  1.
          3    1    6    6  503    0  0.63797311949E+02  0.64659739432E+03 -0.83616159954E+02  0.65509537440E+03  0.00000000000E+00 0. -1.
         -3    1    6    6    0  503  0.39021618578E+02  0.30704900377E+03 -0.10378579586E+03  0.32645561545E+03  0.00000000000E+00 0.  1.
<mgrwt>
<rscale>  0 0.22630812E+04</rscale>
<asrwt>0</asrwt>
<pdfrwt beam="1">  1        1 0.19604434E+00 0.22630812E+04</pdfrwt>
<pdfrwt beam="2">  1       -2 0.15458212E+00 0.22630812E+04</pdfrwt>
<totfact> 0.20766278E+00</totfact>
</mgrwt>
</event>
<event>
12    5  0.5041746E-008  0.2895661E+04  0.7818608E-02  0.8274170E-01
          1   -1    0    0  501    0  0.00000000000E+00  0.00000000000E+00  0.21919476412E+04  0.21919476412E+04  0.00000000000E+00 0. -1.
         -2   -1    0    0    0  501 -0.00000000000E+00 -0.00000000000E+00 -0.95632446791E+03  0.95632446791E+03  0.00000000000E+00 0.  1.
        -24    2    1    2    0    0  0.70697573783E+03  0.10386064613E+03  0.17442816785E+04  0.18866191445E+04  0.78813035418E+02 0.  0.
        254    2    1    2    0    0 -0.70697573783E+03 -0.10386064613E+03 -0.50865850527E+03  0.12616529646E+04  0.90688091855E+03 0.  0.
         23    2    4    4    0    0 -0.41262783706E+03  0.35043067259E+02 -0.73840938214E+03  0.85162379956E+03  0.92330557589E+02 0.  0.
         23    2    4    4    0    0 -0.29434790077E+03 -0.13890371338E+03  0.22975087686E+03  0.41002916505E+03  0.96971761318E+02 0.  0.
          3    1    3    3  502    0  0.40675221902E+03  0.87156662692E+02  0.10847689917E+04  0.11617949117E+04  0.00000000000E+00 0. -1.
         -4    1    3    3    0  502  0.30022351880E+03  0.16703983434E+02  0.65951268681E+03  0.72482423274E+03  0.00000000000E+00 0.  1.
         13    1    5    5    0    0 -0.37274797653E+03  0.32253677628E+02 -0.71010903816E+03  0.80264325812E+03  0.00000000000E+00 0.  1.
        -13    1    5    5    0    0 -0.39879860526E+02  0.27893896302E+01 -0.28300343975E+02  0.48980541434E+02  0.00000000000E+00 0. -1.
          3    1    6    6  503    0  0.47584276857E+01 -0.12416312993E+02  0.21692783257E+01  0.13472684618E+02  0.00000000000E+00 0. -1.
         -3    1    6    6    0  503 -0.29910632845E+03 -0.12648740039E+03  0.22758159854E+03  0.39655648043E+03  0.00000000000E+00 0.  1.
<mgrwt>
<rscale>  0 0.28956610E+04</rscale>
<asrwt>0</asrwt>
<pdfrwt beam="1">  1        1 0.33722271E+00 0.28956610E+04</pdfrwt>
<pdfrwt beam="2">  1       -2 0.14712684E+00 0.28956610E+04</pdfrwt>
<totfact> 0.52527895E-01</totfact>
</mgrwt>
</event>
<event>
12    5  0.5041746E-008  0.1227647E+04  0.7818608E-02  0.9088996E-01
          1   -1    0    0  501    0  0.00000000000E+00  0.00000000000E+00  0.12691287353E+04  0.12691287353E+04  0.00000000000E+00 0. -1.
         -2   -1    0    0    0  501 -0.00000000000E+00 -0.00000000000E+00 -0.29688023096E+03  0.29688023096E+03  0.00000000000E+00 0.  1.
        -24    2    1    2    0    0 -0.16079395503E+01 -0.27396197468E+03  0.14627235632E+03  0.32003220414E+03  0.77248044818E+02 0.  0.
        254    2    1    2    0    0  0.16079395503E+01  0.27396197468E+03  0.82597614806E+03  0.12459767622E+04  0.89171954428E+03 0.  0.
         23    2    4    4    0    0  0.42321278157E+03  0.57453808178E+02  0.28807856271E+03  0.52339150836E+03  0.92408950714E+02 0.  0.
         23    2    4    4    0    0 -0.42160484202E+03  0.21650816650E+03  0.53789758536E+03  0.72258525380E+03  0.90383669482E+02 0.  0.
          3    1    3    3  502    0  0.51238919891E+01 -0.23983022463E+03  0.94869261580E+02  0.25796311308E+03  0.00000000000E+00 0. -1.
         -4    1    3    3    0  502 -0.67318315394E+01 -0.34131750043E+02  0.51403094740E+02  0.62069091066E+02  0.00000000000E+00 0.  1.
         13    1    5    5    0    0  0.24092929116E+03 -0.13145973807E+02  0.15102543645E+03  0.28465491814E+03  0.00000000000E+00 0. -1.
        -13    1    5    5    0    0  0.18228349041E+03  0.70599781985E+02  0.13705312626E+03  0.23873659022E+03  0.00000000000E+00 0.  1.
          3    1    6    6  503    0 -0.38407384507E+03  0.16564193275E+03  0.48223541224E+03  0.63835801959E+03  0.00000000000E+00 0. -1.
         -3    1    6    6    0  503 -0.37530996949E+02  0.50866233751E+02  0.55662173111E+02  0.84227234215E+02  0.00000000000E+00 0.  1.
<mgrwt>
<rscale>  0 0.12276469E+04</rscale>
<asrwt>0</asrwt>
<pdfrwt beam="1">  1        1 0.19525057E+00 0.12276469E+04</pdfrwt>
<pdfrwt beam="2">  1       -2 0.45673882E-01 0.12276469E+04</pdfrwt>
<totfact> 0.37483558E+01</totfact>
</mgrwt>
</event>
<event>
12    5  0.5041746E-008  0.1720542E+04  0.7818608E-02  0.8749734E-01
         -2   -1    0    0    0  501 -0.00000000000E+00  0.00000000000E+00  0.50568613605E+03  0.50568613605E+03  0.00000000000E+00 0.  1.
          1   -1    0    0  501    0  0.00000000000E+00 -0.00000000000E+00 -0.14634899133E+04  0.14634899133E+04  0.00000000000E+00 0. -1.
        -24    2    1    2    0    0 -0.52369003686E+03 -0.52856646111E+02 -0.61809142724E+03  0.81576228346E+03  0.79912520555E+02 0.  0.
        254    2    1    2    0    0  0.52369003686E+03  0.52856646111E+02 -0.33971234997E+03  0.11534137659E+04  0.96845947504E+03 0.  0.
         23    2    4    4    0    0  0.44972464203E+03 -0.41387967773E+03 -0.13868077592E+03  0.63264875654E+03  0.86391262558E+02 0.  0.
         23    2    4    4    0    0  0.73965394824E+02  0.46673632384E+03 -0.20103157405E+03  0.52076500932E+03  0.86422367132E+02 0.  0.
          1    1    3    3  502    0 -0.15893924080E+03  0.67742907399E+01 -0.23182396205E+03  0.28115818085E+03  0.00000000000E+00 0. -1.
         -2    1    3    3    0  502 -0.36475079606E+03 -0.59630936851E+02 -0.38626746519E+03  0.53460410260E+03  0.00000000000E+00 0.  1.
         13    1    5    5    0    0  0.87571957523E+02 -0.71271755426E+02  0.74083580335E+01  0.11315208630E+03  0.00000000000E+00 0.  1.
        -13    1    5    5    0    0  0.36215268451E+03 -0.34260792230E+03 -0.14608913396E+03  0.51949667023E+03  0.00000000000E+00 0. -1.
          4    1    6    6  503    0  0.79674409123E+02  0.26911612368E+03 -0.14137056078E+03  0.31425647956E+03  0.00000000000E+00 0. -1.
         -4    1    6    6    0  503 -0.57090142988E+01  0.19762020017E+03 -0.59661013269E+02  0.20650852976E+03  0.00000000000E+00 0.  1.
<mgrwt>
<rscale>  0 0.17205424E+04</rscale>
<asrwt>0</asrwt>
<pdfrwt beam="1">  1        1 0.22515229E+00 0.17205424E+04</pdfrwt>
<pdfrwt beam="2">  1       -2 0.77797868E-01 0.17205424E+04</pdfrwt>
<totfact> 0.85081541E+00</totfact>
</mgrwt>
</event>
<event>
12    5  0.5041746E-008  0.1820042E+04  0.7818608E-02  0.8695713E-01
         -2   -1    0    0    0  501 -0.00000000000E+00  0.00000000000E+00  0.51749079506E+03  0.51749079506E+03  0.00000000000E+00 0.  1.
          1   -1    0    0  501    0  0.00000000000E+00 -0.00000000000E+00 -0.16002961536E+04  0.16002961536E+04  0.00000000000E+00 0. -1.
        -24    2    1    2    0    0  0.67500816882E+03  0.33749026761E+02 -0.49842410502E+03  0.84371056055E+03  0.81522369561E+02 0.  0.
        254    2    1    2    0    0 -0.67500816882E+03 -0.33749026761E+02 -0.58438125353E+03  0.12740763881E+04  0.90829189610E+03 0.  0.
         23    2    4    4    0    0 -0.30709612797E+03  0.15823372535E+03 -0.73930043084E+03  0.82185771711E+03  0.97667991085E+02 0.  0.
         23    2    4    4    0    0 -0.36791204085E+03 -0.19198275211E+03  0.15491917731E+03  0.45221867102E+03  0.91022678511E+02 0.  0.
          3    1    3    3  502    0  0.65729412955E+03  0.20946553397E+02 -0.49071876711E+03  0.82053594634E+03  0.00000000000E+00 0. -1.
         -4    1    3    3    0  502  0.17714039270E+02  0.12802473364E+02 -0.77053379040E+01  0.23174614209E+02  0.00000000000E+00 0.  1.
         13    1    5    5    0    0 -0.80547954593E+02  0.91465127812E+02 -0.22399274383E+03  0.25500312132E+03  0.00000000000E+00 0.  1.
        -13    1    5    5    0    0 -0.22654817337E+03  0.66768597541E+02 -0.51530768701E+03  0.56685459579E+03  0.00000000000E+00 0. -1.
          3    1    6    6  503    0 -0.34569838832E+03 -0.15089951888E+03  0.14709257718E+03  0.40486326919E+03  0.00000000000E+00 0. -1.
         -3    1    6    6    0  503 -0.22213652538E+02 -0.41083233235E+02  0.78266001314E+01  0.47355401822E+02  0.00000000000E+00 0.  1.
<mgrwt>
<rscale>  0 0.18200423E+04</rscale>
<asrwt>0</asrwt>
<pdfrwt beam="1">  1        1 0.24619940E+00 0.18200423E+04</pdfrwt>
<pdfrwt beam="2">  1       -2 0.79613971E-01 0.18200423E+04</pdfrwt>
<totfact> 0.64440432E+00</totfact>
</mgrwt>
</event>
<event>
12    5  0.5041746E-008  0.2787715E+04  0.7818608E-02  0.8307092E-01
         -2   -1    0    0    0  501 -0.00000000000E+00  0.00000000000E+00  0.14093015265E+04  0.14093015265E+04  0.00000000000E+00 0.  1.
          1   -1    0    0  501    0  0.00000000000E+00 -0.00000000000E+00 -0.13785831011E+04  0.13785831011E+04  0.00000000000E+00 0. -1.
        -24    2    1    2    0    0  0.36250763912E+03 -0.14200109596E+03  0.11900764662E+04  0.12549571459E+04  0.84019896858E+02 0.  0.
        254    2    1    2    0    0 -0.36250763912E+03  0.14200109596E+03 -0.11593580407E+04  0.15329274816E+04  0.92421831708E+03 0.  0.
         23    2    4    4    0    0 -0.41031573314E+02  0.39831085881E+03 -0.10010455982E+04  0.10823960119E+04  0.95675004873E+02 0.  0.
         23    2    4    4    0    0 -0.32147606581E+03 -0.25630976284E+03 -0.15831244250E+03  0.45053146973E+03  0.94203080374E+02 0.  0.
          1    1    3    3  502    0  0.91326059666E+02 -0.44144166167E+02  0.43612033303E+03  0.44776121031E+03  0.00000000000E+00 0. -1.
         -2    1    3    3    0  502  0.27118157945E+03 -0.97856929797E+02  0.75395613315E+03  0.80719593561E+03  0.00000000000E+00 0.  1.
         13    1    5    5    0    0 -0.66598262025E+02  0.31770826668E+03 -0.83912938643E+03  0.89972884715E+03  0.00000000000E+00 0. -1.
        -13    1    5    5    0    0  0.25566688711E+02  0.80602592130E+02 -0.16191621181E+03  0.18266716475E+03  0.00000000000E+00 0.  1.
          2    1    6    6  503    0 -0.31419672832E+03 -0.26060938960E+03 -0.16444228472E+03  0.44008874450E+03  0.00000000000E+00 0. -1.
         -2    1    6    6    0  503 -0.72793374900E+01  0.42996267563E+01  0.61298422224E+01  0.10442725229E+02  0.00000000000E+00 0.  1.
<mgrwt>
<rscale>  0 0.27877154E+04</rscale>
<asrwt>0</asrwt>
<pdfrwt beam="1">  1        1 0.21208971E+00 0.27877154E+04</pdfrwt>
<pdfrwt beam="2">  1       -2 0.21681562E+00 0.27877154E+04</pdfrwt>
<totfact> 0.62673458E-01</totfact>
</mgrwt>
</event>
<event>
12    5  0.5041746E-008  0.1625519E+04  0.7818608E-02  0.8805022E-01
         -2   -1    0    0    0  501 -0.00000000000E+00  0.00000000000E+00  0.20464438005E+03  0.20464438005E+03  0.00000000000E+00 0.  1.
          1   -1    0    0  501    0  0.00000000000E+00 -0.00000000000E+00 -0.32279302401E+04  0.32279302401E+04  0.00000000000E+00 0. -1.
        -24    2    1    2    0    0  0.45151346437E+01 -0.45073843013E+03 -0.35840701321E+03  0.58206906663E+03  0.84636235553E+02 0.  0.
        254    2    1    2    0    0 -0.45151346437E+01  0.45073843013E+03 -0.26648788469E+04  0.28505055536E+04  0.90587919916E+03 0.  0.
         23    2    4    4    0    0  0.25826228422E+03 -0.54411230582E+02 -0.27477330065E+03  0.39179638960E+03  0.91345797319E+02 0.  0.
         23    2    4    4    0    0 -0.26277741887E+03  0.50514966072E+03 -0.23901055462E+04  0.24587091640E+04  0.91750091125E+02 0.  0.
          3    1    3    3  502    0 -0.31528122562E+02 -0.14234092274E+03 -0.87713332552E+02  0.17014285029E+03  0.00000000000E+00 0. -1.
         -4    1    3    3    0  502  0.36043257205E+02 -0.30839750740E+03 -0.27069368066E+03  0.41192621634E+03  0.00000000000E+00 0.  1.
         13    1    5    5    0    0  0.25541751790E+03 -0.67550800887E+02 -0.26936730213E+03  0.37730619211E+03  0.00000000000E+00 0.  1.
        -13    1    5    5    0    0  0.28447663274E+01  0.13139570305E+02 -0.54059985191E+01  0.14490197488E+02  0.00000000000E+00 0. -1.
          1    1    6    6  503    0 -0.17799007773E+03  0.29162142098E+03 -0.15888080009E+04  0.16251259597E+04  0.00000000000E+00 0. -1.
         -1    1    6    6    0  503 -0.84787341139E+02  0.21352823973E+03 -0.80129754530E+03  0.83358320430E+03  0.00000000000E+00 0.  1.
<mgrwt>
<rscale>  0 0.16255187E+04</rscale>
<asrwt>0</asrwt>
<pdfrwt beam="1">  1        1 0.49660464E+00 0.16255187E+04</pdfrwt>
<pdfrwt beam="2">  1       -2 0.31483752E-01 0.16255187E+04</pdfrwt>
<totfact> 0.32111617E+00</totfact>
</mgrwt>
</event>
<event>
12    5  0.5041746E-008  0.2982112E+04  0.7818608E-02  0.8248857E-01
          1   -1    0    0  501    0  0.00000000000E+00  0.00000000000E+00  0.15791802447E+04  0.15791802447E+04  0.00000000000E+00 0. -1.
         -2   -1    0    0    0  501 -0.00000000000E+00 -0.00000000000E+00 -0.14078494393E+04  0.14078494393E+04  0.00000000000E+00 0.  1.
        -24    2    1    2    0    0  0.43215592395E+03 -0.32479711715E+03 -0.11658211122E+04  0.12878776126E+04  0.85076256940E+02 0.  0.
        254    2    1    2    0    0 -0.43215592395E+03  0.32479711715E+03  0.13371519176E+04  0.16991520715E+04  0.89827089527E+03 0.  0.
         23    2    4    4    0    0 -0.30444898454E+03  0.32884144585E+03  0.14402335934E+04  0.15114185892E+04  0.96371509076E+02 0.  0.
         23    2    4    4    0    0 -0.12770693941E+03 -0.40443287020E+01 -0.10308167576E+03  0.18773348222E+03  0.91063766128E+02 0.  0.
          1    1    3    3  502    0  0.12398044389E+03 -0.91117713892E+02 -0.24735114109E+03  0.29130083291E+03  0.00000000000E+00 0. -1.
         -2    1    3    3    0  502  0.30817548005E+03 -0.23367940326E+03 -0.91846997107E+03  0.99657677967E+03  0.00000000000E+00 0.  1.
         13    1    5    5    0    0 -0.29121077818E+03  0.29420612931E+03  0.12260125474E+04  0.12940122605E+04  0.00000000000E+00 0.  1.
        -13    1    5    5    0    0 -0.13238206363E+02  0.34635316541E+02  0.21422104596E+03  0.21740632877E+03  0.00000000000E+00 0. -1.
          1    1    6    6  503    0 -0.14156272468E+03 -0.68141030390E+01 -0.86882835894E+02  0.16623797458E+03  0.00000000000E+00 0. -1.
         -1    1    6    6    0  503  0.13855785278E+02  0.27697743370E+01 -0.16198839867E+02  0.21495507637E+02  0.00000000000E+00 0.  1.
<mgrwt>
<rscale>  0 0.29821120E+04</rscale>
<asrwt>0</asrwt>
<pdfrwt beam="1">  1        1 0.24295081E+00 0.29821120E+04</pdfrwt>
<pdfrwt beam="2">  1       -2 0.21659222E+00 0.29821120E+04</pdfrwt>
<totfact> 0.44862619E-01</totfact>
</mgrwt>
</event>
<event>
12    5  0.5041746E-008  0.1382279E+04  0.7818608E-02  0.8966747E-01
          1   -1    0    0  501    0  0.00000000000E+00  0.00000000000E+00  0.71518824589E+03  0.71518824589E+03  0.00000000000E+00 0. -1.
         -2   -1    0    0    0  501 -0.00000000000E+00 -0.00000000000E+00 -0.66789950135E+03  0.66789950135E+03  0.00000000000E+00 0.  1.
        -24    2    1    2    0    0 -0.34194200255E+03 -0.19055452548E+03 -0.24704940370E+02  0.39973372333E+03  0.77080186805E+02 0.  0.
        254    2    1    2    0    0  0.34194200255E+03  0.19055452548E+03  0.71993684910E+02  0.98335402392E+03  0.89920336154E+03 0.  0.
         23    2    4    4    0    0 -0.18286623758E+02  0.48797244589E+03  0.98408984022E+02  0.50625089703E+03  0.90300243888E+02 0.  0.
         23    2    4    4    0    0  0.36022862631E+03 -0.29741792041E+03 -0.26415299112E+02  0.47710312689E+03  0.93314216837E+02 0.  0.
          3    1    3    3  502    0 -0.14122627774E+02 -0.16222593026E+02  0.15151420537E+02  0.26309440968E+02  0.00000000000E+00 0. -1.
         -4    1    3    3    0  502 -0.32781937478E+03 -0.17433193245E+03 -0.39856360907E+02  0.37342428236E+03  0.00000000000E+00 0.  1.
         13    1    5    5    0    0  0.90161919932E+01  0.69737580114E+02  0.45606644727E+02  0.83812814303E+02  0.00000000000E+00 0. -1.
        -13    1    5    5    0    0 -0.27302815751E+02  0.41823486578E+03  0.52802339296E+02  0.42243808273E+03  0.00000000000E+00 0.  1.
          1    1    6    6  503    0  0.12613667782E+03 -0.69436973623E+02  0.25544474287E+02  0.14623431527E+03  0.00000000000E+00 0. -1.
         -1    1    6    6    0  503  0.23409194849E+03 -0.22798094679E+03 -0.51959773399E+02  0.33086881162E+03  0.00000000000E+00 0.  1.
<mgrwt>
<rscale>  0 0.13822791E+04</rscale>
<asrwt>0</asrwt>
<pdfrwt beam="1">  1        1 0.11002896E+00 0.13822791E+04</pdfrwt>
<pdfrwt beam="2">  1       -2 0.10275377E+00 0.13822791E+04</pdfrwt>
<totfact> 0.17452609E+01</totfact>
</mgrwt>
</event>
<event>
12    5  0.5041746E-008  0.1591560E+04  0.7818608E-02  0.8825750E-01
         -2   -1    0    0    0  501 -0.00000000000E+00  0.00000000000E+00  0.55184108495E+03  0.55184108495E+03  0.00000000000E+00 0.  1.
          1   -1    0    0  501    0  0.00000000000E+00 -0.00000000000E+00 -0.11475511357E+04  0.11475511357E+04  0.00000000000E+00 0. -1.
        -24    2    1    2    0    0  0.15732325415E+03 -0.14271499835E+03 -0.73014291145E+03  0.76459380322E+03  0.79855092115E+02 0.  0.
        254    2    1    2    0    0 -0.15732325415E+03  0.14271499835E+03  0.13443286074E+03  0.93479841738E+03  0.90036532032E+03 0.  0.
         23    2    4    4    0    0 -0.16907345617E+02 -0.20720509859E+03 -0.28432362738E+03  0.36408894881E+03  0.92201010505E+02 0.  0.
         23    2    4    4    0    0 -0.14041590853E+03  0.34992009694E+03  0.41875648812E+03  0.57070946857E+03  0.90507455841E+02 0.  0.
          1    1    3    3  502    0  0.14473567610E+03 -0.89701861652E+02 -0.50433263299E+03  0.53230277532E+03  0.00000000000E+00 0. -1.
         -2    1    3    3    0  502  0.12587578048E+02 -0.53013136698E+02 -0.22581027846E+03  0.23229102790E+03  0.00000000000E+00 0.  1.
         13    1    5    5    0    0 -0.50223743468E+02 -0.11010780404E+03 -0.12065304655E+03  0.17088976142E+03  0.00000000000E+00 0. -1.
        -13    1    5    5    0    0  0.33316397852E+02 -0.97097294553E+02 -0.16367058083E+03  0.19319918738E+03  0.00000000000E+00 0.  1.
          3    1    6    6  503    0 -0.40669073219E+02  0.22119123070E+03  0.24184580430E+03  0.33025585099E+03  0.00000000000E+00 0. -1.
         -3    1    6    6    0  503 -0.99746835315E+02  0.12872886624E+03  0.17691068382E+03  0.24045361758E+03  0.00000000000E+00 0.  1.
<mgrwt>
<rscale>  0 0.15915601E+04</rscale>
<asrwt>0</asrwt>
<pdfrwt beam="1">  1        1 0.17654633E+00 0.15915601E+04</pdfrwt>
<pdfrwt beam="2">  1       -2 0.84898629E-01 0.15915601E+04</pdfrwt>
<totfact> 0.11884424E+01</totfact>
</mgrwt>
</event>
<event>
12    5  0.5041746E-008  0.1814940E+04  0.7818608E-02  0.8698395E-01
         -2   -1    0    0    0  501 -0.00000000000E+00  0.00000000000E+00  0.11643648631E+04  0.11643648631E+04  0.00000000000E+00 0.  1.
          1   -1    0    0  501    0  0.00000000000E+00 -0.00000000000E+00 -0.70725370892E+03  0.70725370892E+03  0.00000000000E+00 0. -1.
        -24    2    1    2    0    0 -0.27576413725E+03  0.28784320221E+03  0.74584673679E+03  0.85064766190E+03  0.91730700803E+02 0.  0.
        254    2    1    2    0    0  0.27576413725E+03 -0.28784320221E+03 -0.28873558257E+03  0.10209709102E+04  0.89449080168E+03 0.  0.
         23    2    4    4    0    0  0.43232879878E+03 -0.17572021484E+03  0.17807174288E+03  0.50773250920E+03  0.91087711177E+02 0.  0.
         23    2    4    4    0    0 -0.15656466153E+03 -0.11212298737E+03 -0.46680732545E+03  0.51323840096E+03  0.91763389127E+02 0.  0.
          1    1    3    3  502    0 -0.89836198423E+02  0.14006654727E+03  0.24273624099E+03  0.29429587646E+03  0.00000000000E+00 0. -1.
         -2    1    3    3    0  502 -0.18592793883E+03  0.14777665494E+03  0.50311049580E+03  0.55635178544E+03  0.00000000000E+00 0.  1.
         13    1    5    5    0    0  0.14962632075E+03 -0.95375437214E+02  0.34989735052E+02  0.18085571996E+03  0.00000000000E+00 0.  1.
        -13    1    5    5    0    0  0.28270247803E+03 -0.80344777625E+02  0.14308200783E+03  0.32687678924E+03  0.00000000000E+00 0. -1.
          2    1    6    6  503    0 -0.15638718829E+03 -0.11030699556E+03 -0.47114669632E+03  0.50853101713E+03  0.00000000000E+00 0. -1.
         -2    1    6    6    0  503 -0.17747324690E+00 -0.18159918088E+01  0.43393708663E+01  0.47073838295E+01  0.00000000000E+00 0.  1.
<mgrwt>
<rscale>  0 0.18149395E+04</rscale>
<asrwt>0</asrwt>
<pdfrwt beam="1">  1        1 0.10880826E+00 0.18149395E+04</pdfrwt>
<pdfrwt beam="2">  1       -2 0.17913306E+00 0.18149395E+04</pdfrwt>
<totfact> 0.40667710E+00</totfact>
</mgrwt>
</event>
<event>
12    5  0.5041746E-008  0.1641754E+04  0.7818608E-02  0.8795300E-01
         -2   -1    0    0    0  501 -0.00000000000E+00  0.00000000000E+00  0.56014487730E+03  0.56014487730E+03  0.00000000000E+00 0.  1.
          1   -1    0    0  501    0  0.00000000000E+00 -0.00000000000E+00 -0.12029729587E+04  0.12029729587E+04  0.00000000000E+00 0. -1.
        -24    2    1    2    0    0  0.21963823500E+03 -0.37717030061E+03  0.15439091085E+03  0.46984053420E+03  0.80094845586E+02 0.  0.
        254    2    1    2    0    0 -0.21963823500E+03  0.37717030061E+03 -0.79721899228E+03  0.12932773018E+04  0.92005960014E+03 0.  0.
         23    2    4    4    0    0  0.31849276887E+03  0.88861487057E+02 -0.88796038280E+02  0.35367962906E+03  0.88716040759E+02 0.  0.
         23    2    4    4    0    0 -0.53813100387E+03  0.28830881356E+03 -0.70842295400E+03  0.93959767276E+03  0.90960186905E+02 0.  0.
          1    1    3    3  502    0  0.41740979213E+02 -0.13526073656E+03  0.29342254977E+02  0.14456397936E+03  0.00000000000E+00 0. -1.
         -2    1    3    3    0  502  0.17789725579E+03 -0.24190956405E+03  0.12504865587E+03  0.32527655484E+03  0.00000000000E+00 0.  1.
         13    1    5    5    0    0  0.99540076291E+02  0.96444594235E+01  0.10485248684E+02  0.10055437746E+03  0.00000000000E+00 0. -1.
        -13    1    5    5    0    0  0.21895269258E+03  0.79217027634E+02 -0.99281286964E+02  0.25312525160E+03  0.00000000000E+00 0.  1.
          4    1    6    6  503    0 -0.46237239310E+03  0.26522369453E+03 -0.65298754536E+03  0.84292619632E+03  0.00000000000E+00 0. -1.
         -4    1    6    6    0  503 -0.75758610775E+02  0.23085119024E+02 -0.55435408634E+02  0.96671476441E+02  0.00000000000E+00 0.  1.
<mgrwt>
<rscale>  0 0.16417541E+04</rscale>
<asrwt>0</asrwt>
<pdfrwt beam="1">  1        1 0.18507276E+00 0.16417541E+04</pdfrwt>
<pdfrwt beam="2">  1       -2 0.86176136E-01 0.16417541E+04</pdfrwt>
<totfact> 0.10412839E+01</totfact>
</mgrwt>
</event>
<event>
12    5  0.5041746E-008  0.1532241E+04  0.7818608E-02  0.8863292E-01
          1   -1    0    0  501    0  0.00000000000E+00  0.00000000000E+00  0.11777666230E+04  0.11777666230E+04  0.00000000000E+00 0. -1.
         -2   -1    0    0    0  501 -0.00000000000E+00 -0.00000000000E+00 -0.49835054625E+03  0.49835054625E+03  0.00000000000E+00 0.  1.
        -24    2    1    2    0    0  0.80831745308E+02  0.36710559478E+03  0.57981041380E+03  0.69652241352E+03  0.87538950297E+02 0.  0.
        254    2    1    2    0    0 -0.80831745308E+02 -0.36710559478E+03  0.99605662983E+02  0.97959475576E+03  0.89910194563E+03 0.  0.
         23    2    4    4    0    0 -0.46948749518E+03 -0.12801016785E+03 -0.20509809819E+02  0.49689400263E+03  0.98376248883E+02 0.  0.
         23    2    4    4    0    0  0.38865574987E+03 -0.23909542692E+03  0.12011547280E+03  0.48270075313E+03  0.10174662247E+03 0.  0.
          1    1    3    3  502    0  0.64371074405E+02  0.36309879437E+03  0.55920574186E+03  0.66984731948E+03  0.00000000000E+00 0. -1.
         -2    1    3    3    0  502  0.16460670903E+02  0.40068004096E+01  0.20604671943E+02  0.26675094038E+02  0.00000000000E+00 0.  1.
         13    1    5    5    0    0 -0.11260094594E+03 -0.13234388910E+02  0.33295420128E+02  0.11816389921E+03  0.00000000000E+00 0.  1.
        -13    1    5    5    0    0 -0.35688654924E+03 -0.11477577894E+03 -0.53805229947E+02  0.37873010341E+03  0.00000000000E+00 0. -1.
          3    1    6    6  503    0  0.33395487098E+03 -0.20531965917E+03  0.13860819080E+03  0.41580554211E+03  0.00000000000E+00 0. -1.
         -3    1    6    6    0  503  0.54700878895E+02 -0.33775767746E+02 -0.18492717996E+02  0.66895211021E+02  0.00000000000E+00 0.  1.
<mgrwt>
<rscale>  0 0.15322410E+04</rscale>
<asrwt>0</asrwt>
<pdfrwt beam="1">  1        1 0.18119486E+00 0.15322410E+04</pdfrwt>
<pdfrwt beam="2">  1       -2 0.76669315E-01 0.15322410E+04</pdfrwt>
<totfact> 0.14275251E+01</totfact>
</mgrwt>
</event>
<event>
12    5  0.5041746E-008  0.1440777E+04  0.7818608E-02  0.8924820E-01
          1   -1    0    0  501    0  0.00000000000E+00  0.00000000000E+00  0.14119836144E+04  0.14119836144E+04  0.00000000000E+00 0. -1.
         -2   -1    0    0    0  501 -0.00000000000E+00 -0.00000000000E+00 -0.36753943832E+03  0.36753943832E+03  0.00000000000E+00 0.  1.
        -24    2    1    2    0    0  0.21046902787E+03  0.31605150705E+03  0.52939467873E+02  0.39162119259E+03  0.79867417816E+02 0.  0.
        254    2    1    2    0    0 -0.21046902787E+03 -0.31605150705E+03  0.99150470818E+03  0.13879018601E+04  0.89387035979E+03 0.  0.
         23    2    4    4    0    0 -0.23328833977E+03  0.15557669328E+03  0.82851680243E+03  0.88046458793E+03  0.10074840802E+03 0.  0.
         23    2    4    4    0    0  0.22819311902E+02 -0.47162820033E+03  0.16298790575E+03  0.50743727216E+03  0.89295282208E+02 0.  0.
          1    1    3    3  502    0  0.62831734525E+02  0.13634596391E+03  0.52513892431E+02  0.15904640089E+03  0.00000000000E+00 0. -1.
         -2    1    3    3    0  502  0.14763729334E+03  0.17970554314E+03  0.42557544202E+00  0.23257479170E+03  0.00000000000E+00 0.  1.
         13    1    5    5    0    0 -0.73721086463E+02  0.10925126394E+03  0.36469470663E+03  0.38777940418E+03  0.00000000000E+00 0. -1.
        -13    1    5    5    0    0 -0.15956725330E+03  0.46325429336E+02  0.46382209580E+03  0.49268518374E+03  0.00000000000E+00 0.  1.
          2    1    6    6  503    0  0.26407701129E+02 -0.42626674552E+03  0.17308990752E+03  0.46082623743E+03  0.00000000000E+00 0. -1.
         -2    1    6    6    0  503 -0.35883892276E+01 -0.45361454804E+02 -0.10102001778E+02  0.46611034736E+02  0.00000000000E+00 0.  1.
<mgrwt>
<rscale>  0 0.14407771E+04</rscale>
<asrwt>0</asrwt>
<pdfrwt beam="1">  1        1 0.21722824E+00 0.14407771E+04</pdfrwt>
<pdfrwt beam="2">  1       -2 0.56544530E-01 0.14407771E+04</pdfrwt>
<totfact> 0.18854376E+01</totfact>
</mgrwt>
</event>
<event>
12    5  0.5041746E-008  0.1470098E+04  0.7818608E-02  0.8904585E-01
         -2   -1    0    0    0  501 -0.00000000000E+00  0.00000000000E+00  0.43492125390E+03  0.43492125390E+03  0.00000000000E+00 0.  1.
          1   -1    0    0  501    0  0.00000000000E+00 -0.00000000000E+00 -0.12422864679E+04  0.12422864679E+04  0.00000000000E+00 0. -1.
        -24    2    1    2    0    0 -0.73895809783E+01 -0.19731132099E+03  0.21328784886E+03  0.30161297102E+03  0.80574900047E+02 0.  0.
        254    2    1    2    0    0  0.73895809783E+01  0.19731132099E+03 -0.10206530629E+04  0.13755947508E+04  0.90085619293E+03 0.  0.
         23    2    4    4    0    0 -0.20797996258E+03 -0.27562460486E+03 -0.61048744096E+03  0.70734690328E+03  0.91761311928E+02 0.  0.
         23    2    4    4    0    0  0.21536954356E+03  0.47293592585E+03 -0.41016562189E+03  0.66824784749E+03  0.90922593636E+02 0.  0.
          3    1    3    3  502    0  0.75101109207E+00  0.76965210994E+01  0.11362750941E+02  0.13744546688E+02  0.00000000000E+00 0. -1.
         -4    1    3    3    0  502 -0.81405920704E+01 -0.20500784209E+03  0.20192509792E+03  0.28786842433E+03  0.00000000000E+00 0.  1.
         13    1    5    5    0    0 -0.16723618301E+03 -0.19981863693E+03 -0.37512122515E+03  0.45673992833E+03  0.00000000000E+00 0. -1.
        -13    1    5    5    0    0 -0.40743779573E+02 -0.75805967928E+02 -0.23536621581E+03  0.25060697495E+03  0.00000000000E+00 0.  1.
          3    1    6    6  503    0  0.19914181375E+03  0.34826644414E+03 -0.32624489677E+03  0.51709062143E+03  0.00000000000E+00 0. -1.
         -3    1    6    6    0  503  0.16227729808E+02  0.12466948171E+03 -0.83920725116E+02  0.15115722606E+03  0.00000000000E+00 0.  1.
<mgrwt>
<rscale>  0 0.14700977E+04</rscale>
<asrwt>0</asrwt>
<pdfrwt beam="1">  1        1 0.19112099E+00 0.14700977E+04</pdfrwt>
<pdfrwt beam="2">  1       -2 0.66910962E-01 0.14700977E+04</pdfrwt>
<totfact> 0.17361883E+01</totfact>
</mgrwt>
</event>
<event>
12    5  0.5041746E-008  0.1360921E+04  0.7818608E-02  0.8982602E-01
          1   -1    0    0  501    0  0.00000000000E+00  0.00000000000E+00  0.53650963505E+03  0.53650963505E+03  0.00000000000E+00 0. -1.
         -2   -1    0    0    0  501 -0.00000000000E+00 -0.00000000000E+00 -0.86303447195E+03  0.86303447195E+03  0.00000000000E+00 0.  1.
        -24    2    1    2    0    0 -0.18708638023E+03  0.27344839511E+03  0.50851649554E+02  0.34458095862E+03  0.79842396812E+02 0.  0.
        254    2    1    2    0    0  0.18708638023E+03 -0.27344839511E+03 -0.37737648646E+03  0.10549631484E+04  0.92777092725E+03 0.  0.
         23    2    4    4    0    0  0.55763451957E+03 -0.17223022689E+03 -0.23109194181E+03  0.63423608816E+03  0.90732692465E+02 0.  0.
         23    2    4    4    0    0 -0.37054813934E+03 -0.10121816822E+03 -0.14628454464E+03  0.42072706022E+03  0.89783350627E+02 0.  0.
          1    1    3    3  502    0 -0.15951321579E+03  0.20460717484E+03  0.68545793524E+02  0.26834136434E+03  0.00000000000E+00 0. -1.
         -2    1    3    3    0  502 -0.27573164441E+02  0.68841220269E+02 -0.17694143970E+02  0.76239594282E+02  0.00000000000E+00 0.  1.
         13    1    5    5    0    0  0.35341063192E+03 -0.14744402896E+03 -0.17484608139E+03  0.42096314400E+03  0.00000000000E+00 0. -1.
        -13    1    5    5    0    0  0.20422388765E+03 -0.24786197927E+02 -0.56245860420E+02  0.21327294416E+03  0.00000000000E+00 0.  1.
          1    1    6    6  503    0 -0.31973314393E+03 -0.77217955872E+02 -0.15541335466E+03  0.36379280757E+03  0.00000000000E+00 0. -1.
         -1    1    6    6    0  503 -0.50814995420E+02 -0.24000212350E+02  0.91288100183E+01  0.56934252649E+02  0.00000000000E+00 0.  1.
<mgrwt>
<rscale>  0 0.13609207E+04</rscale>
<asrwt>0</asrwt>
<pdfrwt beam="1">  1        1 0.82539943E-01 0.13609207E+04</pdfrwt>
<pdfrwt beam="2">  1       -2 0.13277454E+00 0.13609207E+04</pdfrwt>
<totfact> 0.14138771E+01</totfact>
</mgrwt>
</event>
<event>
12    5  0.5041746E-008  0.1138191E+04  0.7818608E-02  0.9168748E-01
         -2   -1    0    0    0  501 -0.00000000000E+00  0.00000000000E+00  0.44084553296E+03  0.44084553296E+03  0.00000000000E+00 0.  1.
          1   -1    0    0  501    0  0.00000000000E+00 -0.00000000000E+00 -0.73465513576E+03  0.73465513576E+03  0.00000000000E+00 0. -1.
        -24    2    1    2    0    0  0.10772278799E+03 -0.22863908068E+02  0.14040808914E+03  0.19538668102E+03  0.79589988555E+02 0.  0.
        254    2    1    2    0    0 -0.10772278799E+03  0.22863908068E+02 -0.43421769194E+03  0.98011398770E+03  0.87175195300E+03 0.  0.
         23    2    4    4    0    0 -0.14085567396E+03  0.42902277409E+03 -0.21322662995E+03  0.50777569138E+03  0.92030948376E+02 0.  0.
         23    2    4    4    0    0  0.33132885969E+02 -0.40615886602E+03 -0.22099106199E+03  0.47233829633E+03  0.90573749613E+02 0.  0.
          1    1    3    3  502    0  0.39905452410E+01 -0.31410355192E+02  0.36387962251E+02  0.48235035621E+02  0.00000000000E+00 0. -1.
         -2    1    3    3    0  502  0.10373224275E+03  0.85464471245E+01  0.10402012689E+03  0.14715164540E+03  0.00000000000E+00 0.  1.
         13    1    5    5    0    0  0.12864215965E+02  0.19604188265E+02 -0.90241234484E+01  0.25124630424E+02  0.00000000000E+00 0. -1.
        -13    1    5    5    0    0 -0.15371988993E+03  0.40941858582E+03 -0.20420250650E+03  0.48265106095E+03  0.00000000000E+00 0.  1.
          4    1    6    6  503    0  0.40013244237E+02 -0.67016796330E+02 -0.35883541073E+02  0.85906572651E+02  0.00000000000E+00 0. -1.
         -4    1    6    6    0  503 -0.68803582684E+01 -0.33914206969E+03 -0.18510752091E+03  0.38643172368E+03  0.00000000000E+00 0.  1.
<mgrwt>
<rscale>  0 0.11381906E+04</rscale>
<asrwt>0</asrwt>
<pdfrwt beam="1">  1        1 0.11302387E+00 0.11381906E+04</pdfrwt>
<pdfrwt beam="2">  1       -2 0.67822390E-01 0.11381906E+04</pdfrwt>
<totfact> 0.43867470E+01</totfact>
</mgrwt>
</event>
<event>
12    5  0.5041746E-008  0.1443641E+04  0.7818608E-02  0.8922821E-01
          1   -1    0    0  501    0  0.00000000000E+00  0.00000000000E+00  0.24570801618E+04  0.24570801618E+04  0.00000000000E+00 0. -1.
         -2   -1    0    0    0  501 -0.00000000000E+00 -0.00000000000E+00 -0.21205053405E+03  0.21205053405E+03  0.00000000000E+00 0.  1.
        -24    2    1    2    0    0 -0.35241652687E+02 -0.34323051705E+03  0.82824512960E+03  0.90053514310E+03  0.76970041728E+02 0.  0.
        254    2    1    2    0    0  0.35241652687E+02  0.34323051705E+03  0.14167844982E+04  0.17685955528E+04  0.10008010557E+04 0.  0.
         23    2    4    4    0    0  0.15233901926E+03 -0.15295140146E+02 -0.99560291627E+02  0.20319648691E+03  0.89081100815E+02 0.  0.
         23    2    4    4    0    0 -0.11709736657E+03  0.35852565720E+03  0.15163447898E+04  0.15653990659E+04  0.94447200893E+02 0.  0.
          3    1    3    3  502    0 -0.37711661739E+01 -0.82100177107E+02  0.29065908656E+03  0.30205523563E+03  0.00000000000E+00 0. -1.
         -4    1    3    3    0  502 -0.31470486513E+02 -0.26113033994E+03  0.53758604305E+03  0.59847990746E+03  0.00000000000E+00 0.  1.
         13    1    5    5    0    0  0.16108598847E+03 -0.25457028339E+02 -0.87072876873E+02  0.18487412437E+03  0.00000000000E+00 0.  1.
        -13    1    5    5    0    0 -0.87469692090E+01  0.10161888192E+02 -0.12487414754E+02  0.18322362544E+02  0.00000000000E+00 0. -1.
          3    1    6    6  503    0 -0.74076174548E+02  0.22912775482E+03  0.77261738763E+03  0.80927401746E+03  0.00000000000E+00 0. -1.
         -3    1    6    6    0  503 -0.43021192026E+02  0.12939790238E+03  0.74372740215E+03  0.75612504840E+03  0.00000000000E+00 0.  1.
<mgrwt>
<rscale>  0 0.14436415E+04</rscale>
<asrwt>0</asrwt>
<pdfrwt beam="1">  1        1 0.37801231E+00 0.14436415E+04</pdfrwt>
<pdfrwt beam="2">  1       -2 0.32623161E-01 0.14436415E+04</pdfrwt>
<totfact> 0.10872944E+01</totfact>
</mgrwt>
</event>
<event>
12    5  0.5041746E-008  0.3014668E+04  0.7818608E-02  0.8239555E-01
         -4   -1    0    0    0  501 -0.00000000000E+00  0.00000000000E+00  0.14503882116E+04  0.14503882116E+04  0.00000000000E+00 0.  1.
          3   -1    0    0  501    0  0.00000000000E+00 -0.00000000000E+00 -0.15665160907E+04  0.15665160907E+04  0.00000000000E+00 0. -1.
        -24    2    1    2    0    0  0.11373064685E+04 -0.55830988388E+02  0.71436111054E+03  0.13465566840E+04  0.79498455249E+02 0.  0.
        254    2    1    2    0    0 -0.11373064685E+04  0.55830988388E+02 -0.83048898963E+03  0.16703476182E+04  0.89653003369E+03 0.  0.
         23    2    4    4    0    0 -0.91390215817E+03  0.28167340721E+03 -0.23431712422E+03  0.98862457326E+03  0.88977351735E+02 0.  0.
         23    2    4    4    0    0 -0.22340431033E+03 -0.22584241882E+03 -0.59617186541E+03  0.68172304498E+03  0.91712228952E+02 0.  0.
          3    1    3    3  502    0  0.56075260638E+03 -0.32201963335E+02  0.39894819303E+03  0.68894129846E+03  0.00000000000E+00 0. -1.
         -4    1    3    3    0  502  0.57655386212E+03 -0.23629025053E+02  0.31541291752E+03  0.65761538553E+03  0.00000000000E+00 0.  1.
         13    1    5    5    0    0 -0.30148295164E+03  0.49656224236E+02 -0.77013213579E+02  0.31510116757E+03  0.00000000000E+00 0.  1.
        -13    1    5    5    0    0 -0.61241920653E+03  0.23201718297E+03 -0.15730391064E+03  0.67352340569E+03  0.00000000000E+00 0. -1.
          4    1    6    6  503    0 -0.65623138997E+02 -0.55729903601E+02 -0.25491969173E+03  0.26906554547E+03  0.00000000000E+00 0.  1.
         -4    1    6    6    0  503 -0.15778117134E+03 -0.17011251522E+03 -0.34125217368E+03  0.41265749951E+03  0.00000000000E+00 0. -1.
<mgrwt>
<rscale>  0 0.30146685E+04</rscale>
<asrwt>0</asrwt>
<pdfrwt beam="1">  1        3 0.24100248E+00 0.30146685E+04</pdfrwt>
<pdfrwt beam="2">  1       -4 0.22313665E+00 0.30146685E+04</pdfrwt>
<totfact> 0.15060507E-02</totfact>
</mgrwt>
</event>
<event>
12    5  0.5041746E-008  0.3094283E+04  0.7818608E-02  0.8217309E-01
         -2   -1    0    0    0  501 -0.00000000000E+00  0.00000000000E+00  0.18573540237E+04  0.18573540237E+04  0.00000000000E+00 0.  1.
          1   -1    0    0  501    0  0.00000000000E+00 -0.00000000000E+00 -0.12887406103E+04  0.12887406103E+04  0.00000000000E+00 0. -1.
        -24    2    1    2    0    0 -0.14378416319E+03  0.29692055376E+03 -0.11352346573E+04  0.11848971251E+04  0.79923519922E+02 0.  0.
        254    2    1    2    0    0  0.14378416319E+03 -0.29692055376E+03  0.17038480707E+04  0.19611975089E+04  0.91343402608E+03 0.  0.
         23    2    4    4    0    0  0.16800637298E+03  0.24624332146E+03  0.11002869253E+04  0.11434874751E+04  0.89835255092E+02 0.  0.
         23    2    4    4    0    0 -0.24222209788E+02 -0.54316387522E+03  0.60356114545E+03  0.81771003381E+03  0.93541072794E+02 0.  0.
          3    1    3    3  502    0 -0.14993216770E+03  0.24890616894E+03 -0.95031024025E+03  0.99374216403E+03  0.00000000000E+00 0. -1.
         -2    1    3    3    0  502  0.61480045096E+01  0.48014384821E+02 -0.18492441706E+03  0.19115496105E+03  0.00000000000E+00 0.  1.
         13    1    5    5    0    0  0.11128666778E+03  0.21260344414E+03  0.94041012216E+03  0.97054425182E+03  0.00000000000E+00 0. -1.
        -13    1    5    5    0    0  0.56719705195E+02  0.33639877325E+02  0.15987680312E+03  0.17294322328E+03  0.00000000000E+00 0.  1.
          3    1    6    6  503    0  0.16327709090E+02 -0.42806431108E+03  0.44579206091E+03  0.61825254554E+03  0.00000000000E+00 0. -1.
         -3    1    6    6    0  503 -0.40549918878E+02 -0.11509956414E+03  0.15776908455E+03  0.19945748826E+03  0.00000000000E+00 0.  1.
<mgrwt>
<rscale>  0 0.30942835E+04</rscale>
<asrwt>0</asrwt>
<pdfrwt beam="1">  1        1 0.19826779E+00 0.30942835E+04</pdfrwt>
<pdfrwt beam="2">  1       -2 0.28574677E+00 0.30942835E+04</pdfrwt>
<totfact> 0.26530662E-01</totfact>
</mgrwt>
</event>
<event>
12    5  0.5041746E-008  0.2081241E+04  0.7818608E-02  0.8569552E-01
          1   -1    0    0  501    0  0.00000000000E+00  0.00000000000E+00  0.23026271202E+04  0.23026271202E+04  0.00000000000E+00 0. -1.
         -2   -1    0    0    0  501 -0.00000000000E+00 -0.00000000000E+00 -0.47028485462E+03  0.47028485462E+03  0.00000000000E+00 0.  1.
        -24    2    1    2    0    0 -0.57108985925E+03  0.43264975132E+03  0.13402524675E+04  0.15218587290E+04  0.80298690960E+02 0.  0.
        254    2    1    2    0    0  0.57108985925E+03 -0.43264975132E+03  0.49208979804E+03  0.12510532458E+04  0.89980687917E+03 0.  0.
         23    2    4    4    0    0  0.32627946121E+03 -0.58173129356E+03  0.62831880552E+03  0.92077205331E+03  0.90371832301E+02 0.  0.
         23    2    4    4    0    0  0.24481039804E+03  0.14908154224E+03 -0.13622900748E+03  0.33028119247E+03  0.91487083228E+02 0.  0.
          1    1    3    3  502    0 -0.35506777526E+03  0.26621075299E+03  0.91035212389E+03  0.10127597343E+04  0.00000000000E+00 0. -1.
         -2    1    3    3    0  502 -0.21602208399E+03  0.16643899833E+03  0.42990034363E+03  0.50909899468E+03  0.00000000000E+00 0.  1.
         13    1    5    5    0    0  0.31335986292E+03 -0.52538325521E+03  0.54458547548E+03  0.81902094519E+03  0.00000000000E+00 0. -1.
        -13    1    5    5    0    0  0.12919598292E+02 -0.56348038348E+02  0.83733330036E+02  0.10175110813E+03  0.00000000000E+00 0.  1.
          2    1    6    6  503    0  0.24310112665E+03  0.15489654401E+03 -0.14250456528E+03  0.32155660194E+03  0.00000000000E+00 0.  1.
         -2    1    6    6    0  503  0.17092713868E+01 -0.58150017700E+01  0.62755577999E+01  0.87245905324E+01  0.00000000000E+00 0. -1.
<mgrwt>
<rscale>  0 0.20812406E+04</rscale>
<asrwt>0</asrwt>
<pdfrwt beam="1">  1        1 0.35425032E+00 0.20812406E+04</pdfrwt>
<pdfrwt beam="2">  1       -2 0.72351518E-01 0.20812406E+04</pdfrwt>
<totfact> 0.25933965E+00</totfact>
</mgrwt>
</event>
<event>
12    5  0.5041746E-008  0.1379751E+04  0.7818608E-02  0.8968607E-01
          1   -1    0    0  501    0  0.00000000000E+00  0.00000000000E+00  0.26696782980E+04  0.26696782980E+04  0.00000000000E+00 0. -1.
         -2   -1    0    0    0  501 -0.00000000000E+00 -0.00000000000E+00 -0.17827183878E+03  0.17827183878E+03  0.00000000000E+00 0.  1.
        -24    2    1    2    0    0 -0.37418836681E+03  0.20522804725E+03  0.76339759919E+03  0.87851143554E+03  0.82891270239E+02 0.  0.
        254    2    1    2    0    0  0.37418836681E+03 -0.20522804725E+03  0.17280088600E+04  0.19694387013E+04  0.84293457186E+03 0.  0.
         23    2    4    4    0    0  0.11637738109E+03 -0.10315573701E+03 -0.33565148073E+02  0.18382801631E+03  0.92094079648E+02 0.  0.
         23    2    4    4    0    0  0.25781098572E+03 -0.10207231024E+03  0.17615740081E+04  0.17856106850E+04  0.91527434708E+02 0.  0.
          1    1    3    3  502    0 -0.34119878999E+03  0.17434649593E+03  0.72129186262E+03  0.81674675758E+03  0.00000000000E+00 0. -1.
         -2    1    3    3    0  502 -0.32989576821E+02  0.30881551324E+02  0.42105736569E+02  0.61764677956E+02  0.00000000000E+00 0.  1.
         13    1    5    5    0    0  0.84716395190E+02 -0.15213261760E+02 -0.26656733437E+02  0.90104896564E+02  0.00000000000E+00 0. -1.
        -13    1    5    5    0    0  0.31660985901E+02 -0.87942475250E+02 -0.69084146355E+01  0.93723119742E+02  0.00000000000E+00 0.  1.
          4    1    6    6  503    0  0.10094484524E+02 -0.11227094319E+02  0.25761112670E+02  0.29859356836E+02  0.00000000000E+00 0.  1.
         -4    1    6    6    0  503  0.24771650119E+03 -0.90845215924E+02  0.17358128954E+04  0.17557513281E+04  0.00000000000E+00 0. -1.
<mgrwt>
<rscale>  0 0.13797514E+04</rscale>
<asrwt>0</asrwt>
<pdfrwt beam="1">  1        1 0.41071971E+00 0.13797514E+04</pdfrwt>
<pdfrwt beam="2">  1       -2 0.27426439E-01 0.13797514E+04</pdfrwt>
<totfact> 0.10760491E+01</totfact>
</mgrwt>
</event>
<event>
12    5  0.5041746E-008  0.2353462E+04  0.7818608E-02  0.8457135E-01
         -2   -1    0    0    0  501 -0.00000000000E+00  0.00000000000E+00  0.60300056339E+03  0.60300056339E+03  0.00000000000E+00 0.  1.
          1   -1    0    0  501    0  0.00000000000E+00 -0.00000000000E+00 -0.22963417558E+04  0.22963417558E+04  0.00000000000E+00 0. -1.
        -24    2    1    2    0    0 -0.78519765035E+03  0.14643818228E+03 -0.14861017563E+04  0.16892372617E+04  0.83932145443E+02 0.  0.
        254    2    1    2    0    0  0.78519765035E+03 -0.14643818228E+03 -0.20723943607E+03  0.12101050574E+04  0.88511387671E+03 0.  0.
         23    2    4    4    0    0  0.26208187327E+03  0.21595808443E+03 -0.40720529656E+03  0.53834668929E+03  0.93146131400E+02 0.  0.
         23    2    4    4    0    0  0.52311577708E+03 -0.36239626672E+03  0.19996586049E+03  0.67175836811E+03  0.79320800605E+02 0.  0.
          3    1    3    3  502    0 -0.69785556953E+03  0.15476419592E+03 -0.13026475771E+04  0.14858819140E+04  0.00000000000E+00 0. -1.
         -4    1    3    3    0  502 -0.87342080820E+02 -0.83260136325E+01 -0.18345417923E+03  0.20335534776E+03  0.00000000000E+00 0.  1.
         13    1    5    5    0    0  0.60056841568E+02  0.52067431172E+02 -0.41820310149E+02  0.89815254545E+02  0.00000000000E+00 0.  1.
        -13    1    5    5    0    0  0.20202503171E+03  0.16389065326E+03 -0.36538498641E+03  0.44853143475E+03  0.00000000000E+00 0. -1.
          4    1    6    6  503    0  0.39303294953E+02 -0.53208656278E+02  0.95460732688E+01  0.66835900622E+02  0.00000000000E+00 0.  1.
         -4    1    6    6    0  503  0.48381248213E+03 -0.30918761044E+03  0.19041978722E+03  0.60492246749E+03  0.00000000000E+00 0. -1.
<mgrwt>
<rscale>  0 0.23534616E+04</rscale>
<asrwt>0</asrwt>
<pdfrwt beam="1">  1        1 0.35328335E+00 0.23534616E+04</pdfrwt>
<pdfrwt beam="2">  1       -2 0.92769318E-01 0.23534616E+04</pdfrwt>
<totfact> 0.14579389E+00</totfact>
</mgrwt>
</event>
<event>
12    5  0.5041746E-008  0.2160090E+04  0.7818608E-02  0.8535225E-01
          1   -1    0    0  501    0  0.00000000000E+00  0.00000000000E+00  0.41846608649E+03  0.41846608649E+03  0.00000000000E+00 0. -1.
         -2   -1    0    0    0  501 -0.00000000000E+00 -0.00000000000E+00 -0.27875554506E+04  0.27875554506E+04  0.00000000000E+00 0.  1.
        -24    2    1    2    0    0  0.65758626815E+03  0.15573328325E+03 -0.12343178344E+03  0.69171760250E+03  0.81026420805E+02 0.  0.
        254    2    1    2    0    0 -0.65758626815E+03 -0.15573328325E+03 -0.22456575807E+04  0.25143039346E+04  0.90668282786E+03 0.  0.
         23    2    4    4    0    0 -0.30130344797E+03  0.23596135376E+03 -0.29634937755E+03  0.49228868981E+03  0.89797952734E+02 0.  0.
         23    2    4    4    0    0 -0.35628282018E+03 -0.39169463701E+03 -0.19493082031E+04  0.20220152448E+04  0.91548035293E+02 0.  0.
          1    1    3    3  502    0  0.49289697849E+03  0.13011169725E+03 -0.59645395969E+02  0.51325827653E+03  0.00000000000E+00 0. -1.
         -2    1    3    3    0  502  0.16468928966E+03  0.25621586004E+02 -0.63786387473E+02  0.17845932597E+03  0.00000000000E+00 0.  1.
         13    1    5    5    0    0 -0.27083935724E+03  0.19078605623E+03 -0.28413989019E+03  0.43645017342E+03  0.00000000000E+00 0. -1.
        -13    1    5    5    0    0 -0.30464090732E+02  0.45175297531E+02 -0.12209487357E+02  0.55838516390E+02  0.00000000000E+00 0.  1.
          3    1    6    6  503    0 -0.24589102055E+03 -0.30211117071E+03 -0.12887852409E+04  0.13463658309E+04  0.00000000000E+00 0. -1.
         -3    1    6    6    0  503 -0.11039179963E+03 -0.89583466302E+02 -0.66052296223E+03  0.67564941389E+03  0.00000000000E+00 0.  1.
<mgrwt>
<rscale>  0 0.21600902E+04</rscale>
<asrwt>0</asrwt>
<pdfrwt beam="1">  1        1 0.64379397E-01 0.21600902E+04</pdfrwt>
<pdfrwt beam="2">  1       -2 0.42885469E+00 0.21600902E+04</pdfrwt>
<totfact> 0.21700773E-01</totfact>
</mgrwt>
</event>
<event>
12    5  0.5041746E-008  0.2713852E+04  0.7818608E-02  0.8330524E-01
          1   -1    0    0  501    0  0.00000000000E+00  0.00000000000E+00  0.37585229140E+04  0.37585229140E+04  0.00000000000E+00 0. -1.
         -2   -1    0    0    0  501 -0.00000000000E+00 -0.00000000000E+00 -0.48988613740E+03  0.48988613740E+03  0.00000000000E+00 0.  1.
        -24    2    1    2    0    0 -0.60738403771E+03  0.13605928953E+03 -0.16730341317E+03  0.64957477460E+03  0.80805050664E+02 0.  0.
        254    2    1    2    0    0  0.60738403771E+03 -0.13605928953E+03  0.34359401898E+04  0.35988342768E+04  0.87091656588E+03 0.  0.
         23    2    4    4    0    0  0.72708771396E+03 -0.24698151137E+03  0.32271864029E+04  0.33186055200E+04  0.93563386563E+02 0.  0.
         23    2    4    4    0    0 -0.11970367626E+03  0.11092222184E+03  0.20875378689E+03  0.28022875686E+03  0.91199250141E+02 0.  0.
          3    1    3    3  502    0 -0.59418882072E+03  0.12572941690E+03 -0.15022570091E+03  0.62564846532E+03  0.00000000000E+00 0. -1.
         -4    1    3    3    0  502 -0.13195216987E+02  0.10329872631E+02 -0.17077712258E+02  0.23926309283E+02  0.00000000000E+00 0.  1.
         13    1    5    5    0    0  0.70098713023E+03 -0.22163496612E+03  0.30163735184E+04  0.31046761856E+04  0.00000000000E+00 0.  1.
        -13    1    5    5    0    0  0.26100583737E+02 -0.25346545245E+02  0.21081288457E+03  0.21392933442E+03  0.00000000000E+00 0. -1.
          2    1    6    6  503    0 -0.77367774086E+01  0.60576368164E+02  0.46458239472E+02  0.76731493661E+02  0.00000000000E+00 0. -1.
         -2    1    6    6    0  503 -0.11196689885E+03  0.50345853672E+02  0.16229554742E+03  0.20349726320E+03  0.00000000000E+00 0.  1.
<mgrwt>
<rscale>  0 0.27138521E+04</rscale>
<asrwt>0</asrwt>
<pdfrwt beam="1">  1        1 0.57823428E+00 0.27138521E+04</pdfrwt>
<pdfrwt beam="2">  1       -2 0.75367100E-01 0.27138521E+04</pdfrwt>
<totfact> 0.18713307E-01</totfact>
</mgrwt>
</event>
<event>
12    5  0.5041746E-008  0.1585956E+04  0.7818608E-02  0.8829222E-01
         -2   -1    0    0    0  501 -0.00000000000E+00  0.00000000000E+00  0.38549110638E+03  0.38549110638E+03  0.00000000000E+00 0.  1.
          1   -1    0    0  501    0  0.00000000000E+00 -0.00000000000E+00 -0.16312032926E+04  0.16312032926E+04  0.00000000000E+00 0. -1.
        -24    2    1    2    0    0  0.33635287185E+03  0.14555663820E+03 -0.89931085054E+03  0.97424637384E+03  0.77948712188E+02 0.  0.
        254    2    1    2    0    0 -0.33635287185E+03 -0.14555663820E+03 -0.34640133566E+03  0.10424480251E+04  0.91235081541E+03 0.  0.
         23    2    4    4    0    0  0.20332635932E+03  0.36573080480E+02 -0.40704066113E+03  0.46336210246E+03  0.79643829466E+02 0.  0.
         23    2    4    4    0    0 -0.53967923117E+03 -0.18212971868E+03  0.60639325477E+02  0.57908592264E+03  0.85079204398E+02 0.  0.
          1    1    3    3  502    0  0.33681007164E+03  0.14619699582E+03 -0.90069218207E+03  0.97265666748E+03  0.00000000000E+00 0. -1.
         -2    1    3    3    0  502 -0.45719979168E+00 -0.64035761334E+00  0.13813315354E+01  0.15897063670E+01  0.00000000000E+00 0.  1.
         13    1    5    5    0    0 -0.62553786730E+01  0.75335797028E+01 -0.19727062018E+02  0.22023659127E+02  0.00000000000E+00 0.  1.
        -13    1    5    5    0    0  0.20958173800E+03  0.29039500777E+02 -0.38731359911E+03  0.44133844334E+03  0.00000000000E+00 0. -1.
          2    1    6    6  503    0 -0.25612101489E+03 -0.11753618766E+03  0.60689436211E+02  0.28826365943E+03  0.00000000000E+00 0.  1.
         -2    1    6    6    0  503 -0.28355821628E+03 -0.64593531025E+02 -0.50110733498E-01  0.29082226321E+03  0.00000000000E+00 0. -1.
<mgrwt>
<rscale>  0 0.15859563E+04</rscale>
<asrwt>0</asrwt>
<pdfrwt beam="1">  1        1 0.25095435E+00 0.15859563E+04</pdfrwt>
<pdfrwt beam="2">  1       -2 0.59306325E-01 0.15859563E+04</pdfrwt>
<totfact> 0.11886881E+01</totfact>
</mgrwt>
</event>
<event>
12    5  0.5041746E-008  0.1056606E+04  0.7818608E-02  0.9248550E-01
          1   -1    0    0  501    0  0.00000000000E+00  0.00000000000E+00  0.21881596174E+03  0.21881596174E+03  0.00000000000E+00 0. -1.
         -2   -1    0    0    0  501 -0.00000000000E+00 -0.00000000000E+00 -0.12755196857E+04  0.12755196857E+04  0.00000000000E+00 0.  1.
        -24    2    1    2    0    0  0.46182038363E+01 -0.81258006445E+02 -0.82868497591E+01  0.11434724868E+03  0.79890111922E+02 0.  0.
        254    2    1    2    0    0 -0.46182038363E+01  0.81258006445E+02 -0.10484168742E+04  0.13799883988E+04  0.89362511558E+03 0.  0.
         23    2    4    4    0    0  0.41206286195E+03  0.14388778850E+03 -0.38701821667E+03  0.59046114391E+03  0.91442684492E+02 0.  0.
         23    2    4    4    0    0 -0.41668106579E+03 -0.62629782058E+02 -0.66139865755E+03  0.78952725487E+03  0.91430311109E+02 0.  0.
          1    1    3    3  502    0 -0.29016522732E+02 -0.73249190600E+02  0.25190080235E-01  0.78787074762E+02  0.00000000000E+00 0. -1.
         -2    1    3    3    0  502  0.33634726568E+02 -0.80088158449E+01 -0.83120398394E+01  0.35560173914E+02  0.00000000000E+00 0.  1.
         13    1    5    5    0    0  0.15806819155E+03  0.47474905514E+02 -0.20617599488E+03  0.26409839207E+03  0.00000000000E+00 0.  1.
        -13    1    5    5    0    0  0.25399467040E+03  0.96412882989E+02 -0.18084222180E+03  0.32636275184E+03  0.00000000000E+00 0. -1.
          1    1    6    6  503    0 -0.16172537771E+03 -0.10174675533E+02 -0.33426017421E+03  0.37146801462E+03  0.00000000000E+00 0. -1.
         -1    1    6    6    0  503 -0.25495568807E+03 -0.52455106525E+02 -0.32713848334E+03  0.41805924025E+03  0.00000000000E+00 0.  1.
<mgrwt>
<rscale>  0 0.10566060E+04</rscale>
<asrwt>0</asrwt>
<pdfrwt beam="1">  1        1 0.33663994E-01 0.10566060E+04</pdfrwt>
<pdfrwt beam="2">  1       -2 0.19623380E+00 0.10566060E+04</pdfrwt>
<totfact> 0.16227749E+01</totfact>
</mgrwt>
</event>
<event>
12    5  0.5041746E-008  0.2118629E+04  0.7818608E-02  0.8553081E-01
          1   -1    0    0  501    0  0.00000000000E+00  0.00000000000E+00  0.86254936403E+03  0.86254936403E+03  0.00000000000E+00 0. -1.
         -2   -1    0    0    0  501 -0.00000000000E+00 -0.00000000000E+00 -0.13009663294E+04  0.13009663294E+04  0.00000000000E+00 0.  1.
        -24    2    1    2    0    0  0.61439902686E+03  0.38900933326E+03 -0.65450439981E+03  0.98152544237E+03  0.78751248179E+02 0.  0.
        254    2    1    2    0    0 -0.61439902686E+03 -0.38900933326E+03  0.21608743442E+03  0.11819902511E+04  0.90641753557E+03 0.  0.
         23    2    4    4    0    0 -0.72249676847E+03 -0.42393406310E+03  0.41156812611E+03  0.93797780722E+03  0.93232902379E+02 0.  0.
         23    2    4    4    0    0  0.10809774162E+03  0.34924729847E+02 -0.19548069169E+03  0.24401244387E+03  0.91785148256E+02 0.  0.
          1    1    3    3  502    0  0.29683428544E+03  0.22834893229E+03 -0.30927448680E+03  0.48570004743E+03  0.00000000000E+00 0. -1.
         -2    1    3    3    0  502  0.31756474142E+03  0.16066040097E+03 -0.34522991301E+03  0.49582539494E+03  0.00000000000E+00 0.  1.
         13    1    5    5    0    0 -0.62568443341E+03 -0.33051244874E+03  0.33148852695E+03  0.78141162807E+03  0.00000000000E+00 0. -1.
        -13    1    5    5    0    0 -0.96812335065E+02 -0.93421614365E+02  0.80079599161E+02  0.15656617915E+03  0.00000000000E+00 0.  1.
          1    1    6    6  503    0  0.10966269540E+03  0.55546905401E+02 -0.14918184384E+03  0.19330439206E+03  0.00000000000E+00 0. -1.
         -1    1    6    6    0  503 -0.15649537791E+01 -0.20622175553E+02 -0.46298847857E+02  0.50708051804E+02  0.00000000000E+00 0.  1.
<mgrwt>
<rscale>  0 0.21186294E+04</rscale>
<asrwt>0</asrwt>
<pdfrwt beam="1">  1        1 0.13269990E+00 0.21186294E+04</pdfrwt>
<pdfrwt beam="2">  1       -2 0.20014867E+00 0.21186294E+04</pdfrwt>
<totfact> 0.20866247E+00</totfact>
</mgrwt>
</event>
<event>
12    5  0.5041746E-008  0.2180236E+04  0.7818608E-02  0.8526700E-01
         -2   -1    0    0    0  501 -0.00000000000E+00  0.00000000000E+00  0.72345275929E+03  0.72345275929E+03  0.00000000000E+00 0.  1.
          1   -1    0    0  501    0  0.00000000000E+00 -0.00000000000E+00 -0.16426190949E+04  0.16426190949E+04  0.00000000000E+00 0. -1.
        -24    2    1    2    0    0 -0.10660374445E+03  0.16622773071E+03  0.57291654942E+03  0.61167783497E+03  0.83188847856E+02 0.  0.
        254    2    1    2    0    0  0.10660374445E+03 -0.16622773071E+03 -0.14920828850E+04  0.17543940192E+04  0.90143830740E+03 0.  0.
         23    2    4    4    0    0  0.43602047090E+03  0.56644500912E+02 -0.45195719234E+03  0.63718402593E+03  0.91737280644E+02 0.  0.
         23    2    4    4    0    0 -0.32941672645E+03 -0.22287223162E+03 -0.10401256927E+04  0.11172099933E+04  0.90051658547E+02 0.  0.
          3    1    3    3  502    0 -0.37904502322E+02  0.27677791958E+02  0.24066711911E+03  0.24520088435E+03  0.00000000000E+00 0. -1.
         -4    1    3    3    0  502 -0.68699242128E+02  0.13854993875E+03  0.33224943031E+03  0.36647695062E+03  0.00000000000E+00 0.  1.
         13    1    5    5    0    0  0.18524235349E+03  0.42097012366E+02 -0.13646036608E+03  0.23389809638E+03  0.00000000000E+00 0. -1.
        -13    1    5    5    0    0  0.25077811741E+03  0.14547488546E+02 -0.31549682626E+03  0.40328592955E+03  0.00000000000E+00 0.  1.
          1    1    6    6  503    0 -0.27860842054E+03 -0.22256203674E+03 -0.89337369199E+03  0.96191115272E+03  0.00000000000E+00 0. -1.
         -1    1    6    6    0  503 -0.50808305911E+02 -0.31019488253E+00 -0.14675200067E+03  0.15529884053E+03  0.00000000000E+00 0.  1.
<mgrwt>
<rscale>  0 0.21802361E+04</rscale>
<asrwt>0</asrwt>
<pdfrwt beam="1">  1        1 0.25271062E+00 0.21802361E+04</pdfrwt>
<pdfrwt beam="2">  1       -2 0.11130043E+00 0.21802361E+04</pdfrwt>
<totfact> 0.26713495E+00</totfact>
</mgrwt>
</event>
<event>
12    5  0.5041746E-008  0.1875523E+04  0.7818608E-02  0.8667137E-01
         -2   -1    0    0    0  501 -0.00000000000E+00  0.00000000000E+00  0.15694322461E+04  0.15694322461E+04  0.00000000000E+00 0.  1.
          1   -1    0    0  501    0  0.00000000000E+00 -0.00000000000E+00 -0.56032765668E+03  0.56032765668E+03  0.00000000000E+00 0. -1.
        -24    2    1    2    0    0 -0.11924209109E+03  0.65317982846E+03  0.68603558066E+03  0.95783496453E+03  0.77074228785E+02 0.  0.
        254    2    1    2    0    0  0.11924209109E+03 -0.65317982846E+03  0.32306900871E+03  0.11719249382E+04  0.91003951112E+03 0.  0.
         23    2    4    4    0    0  0.48823837688E+03 -0.48858209842E+03  0.10655014475E+03  0.70473230233E+03  0.90584242789E+02 0.  0.
         23    2    4    4    0    0 -0.36899628580E+03 -0.16459773004E+03  0.21651886396E+03  0.46719263587E+03  0.90210137431E+02 0.  0.
          1    1    3    3  502    0 -0.99177346876E+02  0.48245468763E+03  0.55242477497E+03  0.74011607451E+03  0.00000000000E+00 0. -1.
         -2    1    3    3    0  502 -0.20064744210E+02  0.17072514084E+03  0.13361080569E+03  0.21771889002E+03  0.00000000000E+00 0.  1.
         13    1    5    5    0    0 -0.17140546912E+01 -0.57994433368E+01 -0.50659872208E+01  0.78889640019E+01  0.00000000000E+00 0.  1.
        -13    1    5    5    0    0  0.48995243158E+03 -0.48278265508E+03  0.11161613197E+03  0.69684333833E+03  0.00000000000E+00 0. -1.
          4    1    6    6  503    0 -0.36946928559E+03 -0.15598116848E+03  0.19908867631E+03  0.44774320648E+03  0.00000000000E+00 0. -1.
         -4    1    6    6    0  503  0.47299979588E+00 -0.86165615641E+01  0.17430187653E+02  0.19449429391E+02  0.00000000000E+00 0.  1.
<mgrwt>
<rscale>  0 0.18755226E+04</rscale>
<asrwt>0</asrwt>
<pdfrwt beam="1">  1        1 0.86204255E-01 0.18755226E+04</pdfrwt>
<pdfrwt beam="2">  1       -2 0.24145111E+00 0.18755226E+04</pdfrwt>
<totfact> 0.22492109E+00</totfact>
</mgrwt>
</event>
<event>
12    5  0.5041746E-008  0.1358698E+04  0.7818608E-02  0.8984270E-01
         -2   -1    0    0    0  501 -0.00000000000E+00  0.00000000000E+00  0.39291552280E+03  0.39291552280E+03  0.00000000000E+00 0.  1.
          1   -1    0    0  501    0  0.00000000000E+00 -0.00000000000E+00 -0.11745912467E+04  0.11745912467E+04  0.00000000000E+00 0. -1.
        -24    2    1    2    0    0 -0.62739855545E+02 -0.12094360154E+03  0.17866715286E+03  0.23885128446E+03  0.81020616820E+02 0.  0.
        254    2    1    2    0    0  0.62739855545E+02  0.12094360154E+03 -0.96034287678E+03  0.13286554851E+04  0.90802164775E+03 0.  0.
         23    2    4    4    0    0  0.12418618946E+03  0.14157003153E+02  0.14586231931E+03  0.21180971740E+03  0.89246343339E+02 0.  0.
         23    2    4    4    0    0 -0.61446333916E+02  0.10678659838E+03 -0.11062051961E+04  0.11168457677E+04  0.92062496893E+02 0.  0.
          3    1    3    3  502    0  0.84174437410E+01 -0.15442335927E+02  0.67899939918E+02  0.70140722400E+02  0.00000000000E+00 0. -1.
         -4    1    3    3    0  502 -0.71157299286E+02 -0.10550126561E+03  0.11076721294E+03  0.16871056206E+03  0.00000000000E+00 0.  1.
         13    1    5    5    0    0  0.71878545700E+02  0.52257793452E+02  0.84951120675E+02  0.12293939650E+03  0.00000000000E+00 0. -1.
        -13    1    5    5    0    0  0.52307643760E+02 -0.38100790299E+02  0.60911198639E+02  0.88870320899E+02  0.00000000000E+00 0.  1.
          2    1    6    6  503    0 -0.85649822011E+02  0.86135533117E+02 -0.91147369068E+03  0.91953222394E+03  0.00000000000E+00 0. -1.
         -2    1    6    6    0  503  0.24203488095E+02  0.20651065265E+02 -0.19473150542E+03  0.19731354372E+03  0.00000000000E+00 0.  1.
<mgrwt>
<rscale>  0 0.13586981E+04</rscale>
<asrwt>0</asrwt>
<pdfrwt beam="1">  1        1 0.18070634E+00 0.13586981E+04</pdfrwt>
<pdfrwt beam="2">  1       -2 0.60448543E-01 0.13586981E+04</pdfrwt>
<totfact> 0.24396206E+01</totfact>
</mgrwt>
</event>
<event>
12    5  0.5041746E-008  0.1135959E+04  0.7818608E-02  0.9170836E-01
          1   -1    0    0  501    0  0.00000000000E+00  0.00000000000E+00  0.69627530810E+03  0.69627530810E+03  0.00000000000E+00 0. -1.
         -2   -1    0    0    0  501 -0.00000000000E+00 -0.00000000000E+00 -0.46332309676E+03  0.46332309676E+03  0.00000000000E+00 0.  1.
        -24    2    1    2    0    0 -0.18350401860E+03 -0.37348998759E+02 -0.20518172974E+02  0.20388734160E+03  0.77976792002E+02 0.  0.
        254    2    1    2    0    0  0.18350401860E+03  0.37348998759E+02  0.25347038432E+03  0.95571106326E+03  0.90225701891E+03 0.  0.
         23    2    4    4    0    0  0.43306033742E+03  0.30809548123E+03  0.18906477704E+03  0.57121253418E+03  0.89856484928E+02 0.  0.
         23    2    4    4    0    0 -0.24955631882E+03 -0.27074648247E+03  0.64405607272E+02  0.38449852908E+03  0.90050111519E+02 0.  0.
          3    1    3    3  502    0 -0.10663877562E+03 -0.11917307768E+02  0.26141828223E+02  0.11044114212E+03  0.00000000000E+00 0. -1.
         -4    1    3    3    0  502 -0.76865242985E+02 -0.25431690991E+02 -0.46660001197E+02  0.93446199481E+02  0.00000000000E+00 0.  1.
         13    1    5    5    0    0  0.31842609561E+03  0.25497506200E+03  0.11125174456E+03  0.42282905680E+03  0.00000000000E+00 0.  1.
        -13    1    5    5    0    0  0.11463424181E+03  0.53120419228E+02  0.77813032481E+02  0.14838347738E+03  0.00000000000E+00 0. -1.
          3    1    6    6  503    0 -0.13885168515E+02 -0.34110040055E+02  0.32301325940E+02  0.48986410307E+02  0.00000000000E+00 0. -1.
         -3    1    6    6    0  503 -0.23567115030E+03 -0.23663644242E+03  0.32104281332E+02  0.33551211877E+03  0.00000000000E+00 0.  1.
<mgrwt>
<rscale>  0 0.11359585E+04</rscale>
<asrwt>0</asrwt>
<pdfrwt beam="1">  1        1 0.10711928E+00 0.11359585E+04</pdfrwt>
<pdfrwt beam="2">  1       -2 0.71280477E-01 0.11359585E+04</pdfrwt>
<totfact> 0.42733473E+01</totfact>
</mgrwt>
</event>
<event>
12    5  0.5041746E-008  0.1810253E+04  0.7818608E-02  0.8700866E-01
         -2   -1    0    0    0  501 -0.00000000000E+00  0.00000000000E+00  0.19749791076E+03  0.19749791076E+03  0.00000000000E+00 0.  1.
          1   -1    0    0  501    0  0.00000000000E+00 -0.00000000000E+00 -0.41481645871E+04  0.41481645871E+04  0.00000000000E+00 0. -1.
        -24    2    1    2    0    0 -0.65025101616E+03  0.13834546649E+03 -0.17802473566E+04  0.19020843763E+04  0.81721917810E+02 0.  0.
        254    2    1    2    0    0  0.65025101616E+03 -0.13834546649E+03 -0.21704193197E+04  0.24435781215E+04  0.90464808654E+03 0.  0.
         23    2    4    4    0    0  0.58115827071E+02  0.23903801105E+03 -0.12763350853E+04  0.13030583653E+04  0.91723678673E+02 0.  0.
         23    2    4    4    0    0  0.59213518909E+03 -0.37738347753E+03 -0.89408423439E+03  0.11405197562E+04  0.91412936214E+02 0.  0.
          3    1    3    3  502    0 -0.52085565057E+03  0.12702190186E+03 -0.13464905075E+04  0.14492970224E+04  0.00000000000E+00 0. -1.
         -4    1    3    3    0  502 -0.12939536559E+03  0.11323564629E+02 -0.43375684908E+03  0.45278735393E+03  0.00000000000E+00 0.  1.
         13    1    5    5    0    0  0.40415861365E+02  0.88523974761E+02 -0.31011120666E+03  0.32502137846E+03  0.00000000000E+00 0.  1.
        -13    1    5    5    0    0  0.17699965706E+02  0.15051403628E+03 -0.96622387868E+03  0.97803698685E+03  0.00000000000E+00 0. -1.
          2    1    6    6  503    0  0.59326363000E+03 -0.37392998054E+03 -0.87624781120E+03  0.11223170638E+04  0.00000000000E+00 0. -1.
         -2    1    6    6    0  503 -0.11284409086E+01 -0.34534969950E+01 -0.17836423188E+02  0.18202692453E+02  0.00000000000E+00 0.  1.
<mgrwt>
<rscale>  0 0.18102528E+04</rscale>
<asrwt>0</asrwt>
<pdfrwt beam="1">  1        1 0.63817920E+00 0.18102528E+04</pdfrwt>
<pdfrwt beam="2">  1       -2 0.30384293E-01 0.18102528E+04</pdfrwt>
<totfact> 0.59344419E-01</totfact>
</mgrwt>
</event>
<event>
12    5  0.5041746E-008  0.1435588E+04  0.7818608E-02  0.8928453E-01
         -2   -1    0    0    0  501 -0.00000000000E+00  0.00000000000E+00  0.10009586361E+04  0.10009586361E+04  0.00000000000E+00 0.  1.
          1   -1    0    0  501    0  0.00000000000E+00 -0.00000000000E+00 -0.51473495665E+03  0.51473495665E+03  0.00000000000E+00 0. -1.
        -24    2    1    2    0    0  0.30585482997E+03 -0.30030758620E+03  0.97981927689E+02  0.44679069564E+03  0.79307277165E+02 0.  0.
        254    2    1    2    0    0 -0.30585482997E+03  0.30030758620E+03  0.38824175178E+03  0.10689028971E+04  0.89893821941E+03 0.  0.
         23    2    4    4    0    0 -0.30253315621E+02 -0.14821061301E+03 -0.20525126894E+03  0.27075643935E+03  0.91100588004E+02 0.  0.
         23    2    4    4    0    0 -0.27560151435E+03  0.44851819921E+03  0.59349302071E+03  0.79814645777E+03  0.87630090071E+02 0.  0.
          3    1    3    3  502    0  0.73061425994E+02 -0.33498973833E+02  0.41638921755E+01  0.80482862861E+02  0.00000000000E+00 0. -1.
         -2    1    3    3    0  502  0.23279340398E+03 -0.26680861237E+03  0.93818035514E+02  0.36630783278E+03  0.00000000000E+00 0.  1.
         13    1    5    5    0    0  0.13456688299E+02 -0.55916404216E+02 -0.23194324932E+02  0.62013735813E+02  0.00000000000E+00 0.  1.
        -13    1    5    5    0    0 -0.43710003920E+02 -0.92294208791E+02 -0.18205694401E+03  0.20874270354E+03  0.00000000000E+00 0. -1.
          3    1    6    6  503    0 -0.16132903828E+03  0.26398602866E+03  0.41192097202E+03  0.51516460390E+03  0.00000000000E+00 0. -1.
         -3    1    6    6    0  503 -0.11427247607E+03  0.18453217055E+03  0.18157204869E+03  0.28298185387E+03  0.00000000000E+00 0.  1.
<mgrwt>
<rscale>  0 0.14355882E+04</rscale>
<asrwt>0</asrwt>
<pdfrwt beam="1">  1        1 0.79189993E-01 0.14355882E+04</pdfrwt>
<pdfrwt beam="2">  1       -2 0.15399364E+00 0.14355882E+04</pdfrwt>
<totfact> 0.10105073E+01</totfact>
</mgrwt>
</event>
<event>
12    5  0.5041746E-008  0.1512023E+04  0.7818608E-02  0.8876497E-01
         -2   -1    0    0    0  501 -0.00000000000E+00  0.00000000000E+00  0.23029732789E+03  0.23029732789E+03  0.00000000000E+00 0.  1.
          1   -1    0    0  501    0  0.00000000000E+00 -0.00000000000E+00 -0.24818067460E+04  0.24818067460E+04  0.00000000000E+00 0. -1.
        -24    2    1    2    0    0  0.12894986626E+03  0.22079401614E+03 -0.89146146848E+00  0.26564524086E+03  0.72031477277E+02 0.  0.
        254    2    1    2    0    0 -0.12894986626E+03 -0.22079401614E+03 -0.22506179566E+04  0.24464588330E+04  0.92439254073E+03 0.  0.
         23    2    4    4    0    0  0.24442208939E+03 -0.41965608058E+03 -0.88463692966E+03  0.10135909973E+04  0.94503061955E+02 0.  0.
         23    2    4    4    0    0 -0.37337195566E+03  0.19886206444E+03 -0.13659810269E+04  0.14328678357E+04  0.90847843469E+02 0.  0.
          3    1    3    3  502    0  0.18743416771E+02  0.58058189635E+02 -0.28209083261E+02  0.67214741198E+02  0.00000000000E+00 0. -1.
         -4    1    3    3    0  502  0.11020644949E+03  0.16273582650E+03  0.27317621792E+02  0.19843049967E+03  0.00000000000E+00 0.  1.
         13    1    5    5    0    0  0.17304142009E+03 -0.21205149258E+03 -0.45102966692E+03  0.52757646746E+03  0.00000000000E+00 0. -1.
        -13    1    5    5    0    0  0.71380669305E+02 -0.20760458801E+03 -0.43360726273E+03  0.48601452983E+03  0.00000000000E+00 0.  1.
          1    1    6    6  503    0 -0.12994760962E+03  0.38641844057E+02 -0.33225536720E+03  0.35884983265E+03  0.00000000000E+00 0. -1.
         -1    1    6    6    0  503 -0.24342434604E+03  0.16022022039E+03 -0.10337256598E+04  0.10740180031E+04  0.00000000000E+00 0.  1.
<mgrwt>
<rscale>  0 0.15120231E+04</rscale>
<asrwt>0</asrwt>
<pdfrwt beam="1">  1        1 0.38181642E+00 0.15120231E+04</pdfrwt>
<pdfrwt beam="2">  1       -2 0.35430358E-01 0.15120231E+04</pdfrwt>
<totfact> 0.88784184E+00</totfact>
</mgrwt>
</event>
<event>
12    5  0.5041746E-008  0.1527455E+04  0.7818608E-02  0.8866398E-01
          1   -1    0    0  501    0  0.00000000000E+00  0.00000000000E+00  0.49751032832E+03  0.49751032832E+03  0.00000000000E+00 0. -1.
         -2   -1    0    0    0  501 -0.00000000000E+00 -0.00000000000E+00 -0.11723974695E+04  0.11723974695E+04  0.00000000000E+00 0.  1.
        -24    2    1    2    0    0  0.34236485574E+03 -0.11417775344E+03 -0.59772306613E+03  0.70367557648E+03  0.87385349549E+02 0.  0.
        254    2    1    2    0    0 -0.34236485574E+03  0.11417775344E+03 -0.77164075015E+02  0.96623222132E+03  0.89297265199E+03 0.  0.
         23    2    4    4    0    0 -0.16435476511E+03  0.31472217211E+03  0.31465267861E+03  0.48279886143E+03  0.89587376367E+02 0.  0.
         23    2    4    4    0    0 -0.17801009063E+03 -0.20054441867E+03 -0.39181675363E+03  0.48343335989E+03  0.91004334014E+02 0.  0.
          1    1    3    3  502    0  0.71827425108E+02 -0.40866578170E+00 -0.72746647456E+02  0.10223219024E+03  0.00000000000E+00 0. -1.
         -2    1    3    3    0  502  0.27053743063E+03 -0.11376908766E+03 -0.52497641868E+03  0.60144338624E+03  0.00000000000E+00 0.  1.
         13    1    5    5    0    0 -0.64442099215E+02  0.66170859610E+02  0.12112722086E+03  0.15232586926E+03  0.00000000000E+00 0. -1.
        -13    1    5    5    0    0 -0.99912665894E+02  0.24855131250E+03  0.19352545775E+03  0.33047299216E+03  0.00000000000E+00 0.  1.
          3    1    6    6  503    0 -0.14806572880E+03 -0.17992682049E+03 -0.27170277534E+03  0.35793787018E+03  0.00000000000E+00 0. -1.
         -3    1    6    6    0  503 -0.29944361825E+02 -0.20617598179E+02 -0.12011397828E+03  0.12549548971E+03  0.00000000000E+00 0.  1.
<mgrwt>
<rscale>  0 0.15274552E+04</rscale>
<asrwt>0</asrwt>
<pdfrwt beam="1">  1        1 0.76540051E-01 0.15274552E+04</pdfrwt>
<pdfrwt beam="2">  1       -2 0.18036884E+00 0.15274552E+04</pdfrwt>
<totfact> 0.67847979E+00</totfact>
</mgrwt>
</event>
<event>
12    5  0.5041746E-008  0.2118928E+04  0.7818608E-02  0.8552951E-01
         -2   -1    0    0    0  501 -0.00000000000E+00  0.00000000000E+00  0.64009673994E+03  0.64009673994E+03  0.00000000000E+00 0.  1.
          1   -1    0    0  501    0  0.00000000000E+00 -0.00000000000E+00 -0.17535845283E+04  0.17535845283E+04  0.00000000000E+00 0. -1.
        -24    2    1    2    0    0 -0.83752195708E+03 -0.16734196960E+03 -0.31524687506E+03  0.91487050380E+03  0.90338713255E+02 0.  0.
        254    2    1    2    0    0  0.83752195708E+03  0.16734196960E+03 -0.79824091329E+03  0.14788107644E+04  0.90567453204E+03 0.  0.
         23    2    4    4    0    0 -0.12376023220E+02  0.23470660346E+02  0.16067916330E+03  0.18635959478E+03  0.90598384088E+02 0.  0.
         23    2    4    4    0    0  0.84989798030E+03  0.14387130925E+03 -0.95892007659E+03  0.12924511697E+04  0.88751237315E+02 0.  0.
          3    1    3    3  502    0 -0.14121032000E+03 -0.34328794148E+01 -0.27950054798E+02  0.14399077990E+03  0.00000000000E+00 0. -1.
         -4    1    3    3    0  502 -0.69631163708E+03 -0.16390909018E+03 -0.28729682026E+03  0.77087972389E+03  0.00000000000E+00 0.  1.
         13    1    5    5    0    0 -0.96420768870E+01  0.58468250108E+02  0.98206389723E+02  0.11469961159E+03  0.00000000000E+00 0. -1.
        -13    1    5    5    0    0 -0.27339463329E+01 -0.34997589761E+02  0.62472773578E+02  0.71659983185E+02  0.00000000000E+00 0.  1.
          2    1    6    6  503    0  0.78898576075E+03  0.10956594182E+03 -0.87666696880E+03  0.11845033560E+04  0.00000000000E+00 0. -1.
         -2    1    6    6    0  503  0.60912219549E+02  0.34305367436E+02 -0.82253107791E+02  0.10794781363E+03  0.00000000000E+00 0.  1.
<mgrwt>
<rscale>  0 0.21189278E+04</rscale>
<asrwt>0</asrwt>
<pdfrwt beam="1">  1        1 0.26978224E+00 0.21189278E+04</pdfrwt>
<pdfrwt beam="2">  1       -2 0.98476421E-01 0.21189278E+04</pdfrwt>
<totfact> 0.30257704E+00</totfact>
</mgrwt>
</event>
<event>
12    5  0.5041746E-008  0.1506312E+04  0.7818608E-02  0.8880266E-01
          1   -1    0    0  501    0  0.00000000000E+00  0.00000000000E+00  0.64870286702E+03  0.64870286702E+03  0.00000000000E+00 0. -1.
         -2   -1    0    0    0  501 -0.00000000000E+00 -0.00000000000E+00 -0.87442837111E+03  0.87442837111E+03  0.00000000000E+00 0.  1.
        -24    2    1    2    0    0  0.19850276813E+03 -0.43453453938E+02  0.36736850227E+03  0.42601600835E+03  0.72377284414E+02 0.  0.
        254    2    1    2    0    0 -0.19850276813E+03  0.43453453938E+02 -0.59309400636E+03  0.10971152298E+04  0.90033870038E+03 0.  0.
         23    2    4    4    0    0 -0.17799164802E+03 -0.35695800924E+03 -0.54747902582E+03  0.68343774104E+03  0.90850509278E+02 0.  0.
         23    2    4    4    0    0 -0.20511120112E+02  0.40041146318E+03 -0.45614980541E+02  0.41367748874E+03  0.91094963342E+02 0.  0.
          3    1    3    3  502    0  0.16036145259E+03 -0.62336395607E+02  0.31055198159E+03  0.35502697780E+03  0.00000000000E+00 0. -1.
         -4    1    3    3    0  502  0.38141315542E+02  0.18882941669E+02  0.56816520681E+02  0.70989030558E+02  0.00000000000E+00 0.  1.
         13    1    5    5    0    0  0.31091426120E+01  0.40991355960E+01 -0.62774331428E+01  0.81163937360E+01  0.00000000000E+00 0.  1.
        -13    1    5    5    0    0 -0.18110079063E+03 -0.36105714483E+03 -0.54120159268E+03  0.67532134730E+03  0.00000000000E+00 0. -1.
          2    1    6    6  503    0  0.23853297681E+02  0.26503085921E+03 -0.75228100996E+01  0.26620843115E+03  0.00000000000E+00 0.  1.
         -2    1    6    6    0  503 -0.44364417793E+02  0.13538060397E+03 -0.38092170441E+02  0.14746905759E+03  0.00000000000E+00 0. -1.
<mgrwt>
<rscale>  0 0.15063123E+04</rscale>
<asrwt>0</asrwt>
<pdfrwt beam="1">  1        1 0.99800441E-01 0.15063123E+04</pdfrwt>
<pdfrwt beam="2">  1       -2 0.13452744E+00 0.15063123E+04</pdfrwt>
<totfact> 0.10286813E+01</totfact>
</mgrwt>
</event>
<event>
12    5  0.5041746E-008  0.2527325E+04  0.7818608E-02  0.8393315E-01
          1   -1    0    0  501    0  0.00000000000E+00  0.00000000000E+00  0.30109755276E+04  0.30109755276E+04  0.00000000000E+00 0. -1.
         -2   -1    0    0    0  501 -0.00000000000E+00 -0.00000000000E+00 -0.53034064601E+03  0.53034064601E+03  0.00000000000E+00 0.  1.
        -24    2    1    2    0    0  0.34957304274E+03 -0.31782835897E+03 -0.31079310915E+03  0.57115987207E+03  0.80094099606E+02 0.  0.
        254    2    1    2    0    0 -0.34957304274E+03  0.31782835897E+03  0.27914279908E+04  0.29701563016E+04  0.89807686207E+03 0.  0.
         23    2    4    4    0    0 -0.62638315133E+02  0.59242127064E+03  0.15330627253E+04  0.16474490721E+04  0.94448954989E+02 0.  0.
         23    2    4    4    0    0 -0.28693472761E+03 -0.27459291167E+03  0.12583652655E+04  0.13227072295E+04  0.91315214938E+02 0.  0.
          3    1    3    3  502    0  0.75728816788E+02 -0.41547991106E+02 -0.85947246499E+02  0.12185244535E+03  0.00000000000E+00 0. -1.
         -4    1    3    3    0  502  0.27384422595E+03 -0.27628036786E+03 -0.22484586265E+03  0.44930742672E+03  0.00000000000E+00 0.  1.
         13    1    5    5    0    0 -0.71831190136E+02  0.55143698833E+03  0.14700983510E+04  0.15717606795E+04  0.00000000000E+00 0.  1.
        -13    1    5    5    0    0  0.91928750031E+01  0.40984282308E+02  0.62964374236E+02  0.75688392572E+02  0.00000000000E+00 0. -1.
          4    1    6    6  503    0 -0.12660289745E+03 -0.61273157123E+02  0.43924862343E+03  0.46121800335E+03  0.00000000000E+00 0. -1.
         -4    1    6    6    0  503 -0.16033183015E+03 -0.21331975455E+03  0.81911664206E+03  0.86148922613E+03  0.00000000000E+00 0.  1.
<mgrwt>
<rscale>  0 0.25273248E+04</rscale>
<asrwt>0</asrwt>
<pdfrwt beam="1">  1        1 0.46322699E+00 0.25273248E+04</pdfrwt>
<pdfrwt beam="2">  1       -2 0.81590871E-01 0.25273248E+04</pdfrwt>
<totfact> 0.60468133E-01</totfact>
</mgrwt>
</event>
<event>
12    5  0.5041746E-008  0.1526647E+04  0.7818608E-02  0.8866924E-01
         -2   -1    0    0    0  501 -0.00000000000E+00  0.00000000000E+00  0.31283133858E+03  0.31283133858E+03  0.00000000000E+00 0.  1.
          1   -1    0    0  501    0  0.00000000000E+00 -0.00000000000E+00 -0.18625452129E+04  0.18625452129E+04  0.00000000000E+00 0. -1.
        -24    2    1    2    0    0 -0.21807033548E+03 -0.44244560587E+03 -0.47984561450E+03  0.69278226609E+03  0.79891608293E+02 0.  0.
        254    2    1    2    0    0  0.21807033548E+03  0.44244560587E+03 -0.10698682598E+04  0.14825942854E+04  0.90008607161E+03 0.  0.
         23    2    4    4    0    0 -0.38497341906E+02  0.12731176824E+02 -0.95563206647E+03  0.96144496565E+03  0.97466134175E+02 0.  0.
         23    2    4    4    0    0  0.25656767738E+03  0.42971442905E+03 -0.11423619331E+03  0.52114931970E+03  0.89806692134E+02 0.  0.
          3    1    3    3  502    0 -0.22788142277E+02 -0.22530519915E+02 -0.11255705153E+02  0.33964903276E+02  0.00000000000E+00 0. -1.
         -4    1    3    3    0  502 -0.19528219320E+03 -0.41991508596E+03 -0.46858990935E+03  0.65881736281E+03  0.00000000000E+00 0.  1.
         13    1    5    5    0    0  0.23490337235E+02  0.19986254726E+02 -0.56657622577E+03  0.56741507376E+03  0.00000000000E+00 0. -1.
        -13    1    5    5    0    0 -0.61987679141E+02 -0.72550779027E+01 -0.38905584070E+03  0.39402989189E+03  0.00000000000E+00 0.  1.
          3    1    6    6  503    0  0.29705839110E+02  0.10440309937E+03 -0.45500120119E+00  0.10854792058E+03  0.00000000000E+00 0. -1.
         -3    1    6    6    0  503  0.22686183827E+03  0.32531132968E+03 -0.11378119211E+03  0.41260139912E+03  0.00000000000E+00 0.  1.
<mgrwt>
<rscale>  0 0.15266467E+04</rscale>
<asrwt>0</asrwt>
<pdfrwt beam="1">  1        1 0.28654541E+00 0.15266467E+04</pdfrwt>
<pdfrwt beam="2">  1       -2 0.48127899E-01 0.15266467E+04</pdfrwt>
<totfact> 0.12805936E+01</totfact>
</mgrwt>
</event>
<event>
12    5  0.5041746E-008  0.2225462E+04  0.7818608E-02  0.8507904E-01
         -4   -1    0    0    0  501 -0.00000000000E+00  0.00000000000E+00  0.57229343298E+03  0.57229343298E+03  0.00000000000E+00 0.  1.
          3   -1    0    0  501    0  0.00000000000E+00 -0.00000000000E+00 -0.21635238884E+04  0.21635238884E+04  0.00000000000E+00 0. -1.
        -24    2    1    2    0    0  0.12079766533E+02 -0.18748618552E+03 -0.16719862209E+04  0.16842948648E+04  0.77551778668E+02 0.  0.
        254    2    1    2    0    0 -0.12079766533E+02  0.18748618552E+03  0.80755765446E+02  0.10515224566E+04  0.10314460686E+04 0.  0.
         23    2    4    4    0    0 -0.38371787661E+03 -0.16916929294E+03  0.25622782011E+03  0.49977058935E+03  0.90886124800E+02 0.  0.
         23    2    4    4    0    0  0.37163811007E+03  0.35665547846E+03 -0.17547205467E+03  0.55175186720E+03  0.91223164903E+02 0.  0.
          1    1    3    3  502    0  0.11636797484E+02 -0.19134071355E+03 -0.14916638655E+04  0.15039307735E+04  0.00000000000E+00 0. -1.
         -2    1    3    3    0  502  0.44296904912E+00  0.38545280320E+01 -0.18032235537E+03  0.18036409136E+03  0.00000000000E+00 0.  1.
         13    1    5    5    0    0 -0.15791327161E+02 -0.11562260611E+02  0.40719191545E+02  0.45178583908E+02  0.00000000000E+00 0. -1.
        -13    1    5    5    0    0 -0.36792654944E+03 -0.15760703233E+03  0.21550862857E+03  0.45459200544E+03  0.00000000000E+00 0.  1.
          1    1    6    6  503    0  0.36864401841E+02  0.82357582483E+02 -0.33881829721E+02  0.96383265668E+02  0.00000000000E+00 0. -1.
         -1    1    6    6    0  503  0.33477370823E+03  0.27429789598E+03 -0.14159022495E+03  0.45536860153E+03  0.00000000000E+00 0.  1.
<mgrwt>
<rscale>  0 0.22254622E+04</rscale>
<asrwt>0</asrwt>
<pdfrwt beam="1">  1        3 0.33284983E+00 0.22254622E+04</pdfrwt>
<pdfrwt beam="2">  1       -4 0.88045144E-01 0.22254622E+04</pdfrwt>
<totfact> 0.59523263E-02</totfact>
</mgrwt>
</event>
<event>
12    5  0.5041746E-008  0.1836072E+04  0.7818608E-02  0.8687349E-01
          1   -1    0    0  501    0  0.00000000000E+00  0.00000000000E+00  0.21953544877E+04  0.21953544877E+04  0.00000000000E+00 0. -1.
         -2   -1    0    0    0  501 -0.00000000000E+00 -0.00000000000E+00 -0.38389708532E+03  0.38389708532E+03  0.00000000000E+00 0.  1.
        -24    2    1    2    0    0  0.50549359329E+03 -0.76430132942E+02  0.26480306489E+02  0.51805642476E+03  0.79472728202E+02 0.  0.
        254    2    1    2    0    0 -0.50549359329E+03  0.76430132942E+02  0.17849770959E+04  0.20611951483E+04  0.89499545714E+03 0.  0.
         23    2    4    4    0    0  0.12164656087E+03  0.55105899373E+02  0.11584844830E+04  0.11698240917E+04  0.92561128061E+02 0.  0.
         23    2    4    4    0    0 -0.62714015416E+03  0.21324233569E+02  0.62649261298E+03  0.89137105658E+03  0.91048725875E+02 0.  0.
          1    1    3    3  502    0  0.16249575753E+02  0.78396135424E+01 -0.93423412017E+01  0.20317174798E+02  0.00000000000E+00 0. -1.
         -2    1    3    3    0  502  0.48924401753E+03 -0.84269746485E+02  0.35822647691E+02  0.49773924996E+03  0.00000000000E+00 0.  1.
         13    1    5    5    0    0  0.13222078333E+02  0.34906512780E+02  0.56136123922E+03  0.56260086108E+03  0.00000000000E+00 0. -1.
        -13    1    5    5    0    0  0.10842448254E+03  0.20199386593E+02  0.59712324374E+03  0.60722323065E+03  0.00000000000E+00 0.  1.
          3    1    6    6  503    0 -0.43058857492E+03  0.34633572569E+02  0.37603806860E+03  0.57272212654E+03  0.00000000000E+00 0. -1.
         -3    1    6    6    0  503 -0.19655157924E+03 -0.13309339000E+02  0.25045454439E+03  0.31864893003E+03  0.00000000000E+00 0.  1.
<mgrwt>
<rscale>  0 0.18360721E+04</rscale>
<asrwt>0</asrwt>
<pdfrwt beam="1">  1        1 0.33774684E+00 0.18360721E+04</pdfrwt>
<pdfrwt beam="2">  1       -2 0.59061091E-01 0.18360721E+04</pdfrwt>
<totfact> 0.48560865E+00</totfact>
</mgrwt>
</event>
<event>
12    5  0.5041746E-008  0.3326639E+04  0.7818608E-02  0.8156150E-01
          1   -1    0    0  501    0  0.00000000000E+00  0.00000000000E+00  0.20665326548E+04  0.20665326548E+04  0.00000000000E+00 0. -1.
         -2   -1    0    0    0  501 -0.00000000000E+00 -0.00000000000E+00 -0.13387796173E+04  0.13387796173E+04  0.00000000000E+00 0.  1.
        -24    2    1    2    0    0 -0.15351223064E+04  0.10964269718E+03  0.27678584008E+03  0.15667811448E+04  0.97830147765E+02 0.  0.
        254    2    1    2    0    0  0.15351223064E+04 -0.10964269718E+03  0.45096719738E+03  0.18385311273E+04  0.89900126594E+03 0.  0.
         23    2    4    4    0    0  0.11062709916E+04 -0.89323957354E+02 -0.11790710594E+03  0.11200211856E+04  0.93440325167E+02 0.  0.
         23    2    4    4    0    0  0.42885131482E+03 -0.20318739829E+02  0.56887430331E+03  0.71850994167E+03  0.91171606899E+02 0.  0.
          3    1    3    3  502    0 -0.96055838393E+03  0.71608128051E+02  0.22109569925E+03  0.98827295884E+03  0.00000000000E+00 0. -1.
         -4    1    3    3    0  502 -0.57456392248E+03  0.38034569132E+02  0.55690140835E+02  0.57850818599E+03  0.00000000000E+00 0.  1.
         13    1    5    5    0    0  0.42175478715E+03 -0.70630181951E+02 -0.72654546791E+02  0.43375615990E+03  0.00000000000E+00 0. -1.
        -13    1    5    5    0    0  0.68451620445E+03 -0.18693775402E+02 -0.45252559147E+02  0.68626502570E+03  0.00000000000E+00 0.  1.
          4    1    6    6  503    0  0.35919647741E+01 -0.98649663958E+01  0.36886440308E+01  0.11127707208E+02  0.00000000000E+00 0. -1.
         -4    1    6    6    0  503  0.42525935004E+03 -0.10453773433E+02  0.56518565928E+03  0.70738223447E+03  0.00000000000E+00 0.  1.
<mgrwt>
<rscale>  0 0.33266390E+04</rscale>
<asrwt>0</asrwt>
<pdfrwt beam="1">  1        1 0.31792810E+00 0.33266390E+04</pdfrwt>
<pdfrwt beam="2">  1       -2 0.20596610E+00 0.33266390E+04</pdfrwt>
<totfact> 0.23768505E-01</totfact>
</mgrwt>
</event>
<event>
12    5  0.5041746E-008  0.1667472E+04  0.7818608E-02  0.8780137E-01
         -2   -1    0    0    0  501 -0.00000000000E+00  0.00000000000E+00  0.13499060433E+04  0.13499060433E+04  0.00000000000E+00 0.  1.
          1   -1    0    0  501    0  0.00000000000E+00 -0.00000000000E+00 -0.51493629305E+03  0.51493629305E+03  0.00000000000E+00 0. -1.
        -24    2    1    2    0    0 -0.12124194300E+03  0.55192772373E+03  0.13253026252E+03  0.58656238987E+03  0.84660178137E+02 0.  0.
        254    2    1    2    0    0  0.12124194300E+03 -0.55192772373E+03  0.70243948772E+03  0.12782799465E+04  0.90623096764E+03 0.  0.
         23    2    4    4    0    0  0.21133758466E+03 -0.76410310379E+03  0.64050354855E+03  0.10233959488E+04  0.92613953674E+02 0.  0.
         23    2    4    4    0    0 -0.90095641663E+02  0.21217538007E+03  0.61935939171E+02  0.25488399767E+03  0.89410151290E+02 0.  0.
          3    1    3    3  502    0  0.10954553168E+02  0.29149088884E+02  0.15461015303E+02  0.34766573200E+02  0.00000000000E+00 0. -1.
         -4    1    3    3    0  502 -0.13219649617E+03  0.52277863484E+03  0.11706924722E+03  0.55179581667E+03  0.00000000000E+00 0.  1.
         13    1    5    5    0    0  0.16292575219E+03 -0.69030461688E+03  0.55623886695E+03  0.90136948136E+03  0.00000000000E+00 0. -1.
        -13    1    5    5    0    0  0.48411832469E+02 -0.73798486910E+02  0.84264681603E+02  0.12202646745E+03  0.00000000000E+00 0.  1.
          2    1    6    6  503    0 -0.95961290810E+02  0.14871388206E+03  0.18923999651E+02  0.17799580280E+03  0.00000000000E+00 0. -1.
         -2    1    6    6    0  503  0.58656491466E+01  0.63461498004E+02  0.43011939520E+02  0.76888194868E+02  0.00000000000E+00 0.  1.
<mgrwt>
<rscale>  0 0.16674719E+04</rscale>
<asrwt>0</asrwt>
<pdfrwt beam="1">  1        1 0.79220969E-01 0.16674719E+04</pdfrwt>
<pdfrwt beam="2">  1       -2 0.20767785E+00 0.16674719E+04</pdfrwt>
<totfact> 0.42066289E+00</totfact>
</mgrwt>
</event>
<event>
12    5  0.5041746E-008  0.1155932E+04  0.7818608E-02  0.9152328E-01
          1   -1    0    0  501    0  0.00000000000E+00  0.00000000000E+00  0.56369956247E+03  0.56369956247E+03  0.00000000000E+00 0. -1.
         -2   -1    0    0    0  501 -0.00000000000E+00 -0.00000000000E+00 -0.59259400253E+03  0.59259400253E+03  0.00000000000E+00 0.  1.
        -24    2    1    2    0    0 -0.10876172563E+02 -0.15125567121E+03 -0.14981164852E+03  0.22712939060E+03  0.78407020354E+02 0.  0.
        254    2    1    2    0    0  0.10876172563E+02  0.15125567121E+03  0.12091720846E+03  0.92916417439E+03  0.90869605615E+03 0.  0.
         23    2    4    4    0    0 -0.30219583550E+03 -0.25091190105E+03  0.38653364146E+02  0.40488799448E+03  0.90338809100E+02 0.  0.
         23    2    4    4    0    0  0.31307200806E+03  0.40216757226E+03  0.82263844316E+02  0.52427617992E+03  0.91352801485E+02 0.  0.
          3    1    3    3  502    0 -0.38405173268E+02 -0.92067864815E+02 -0.61071627778E+02  0.11696663107E+03  0.00000000000E+00 0. -1.
         -4    1    3    3    0  502  0.27529000705E+02 -0.59187806391E+02 -0.88740020745E+02  0.11016275953E+03  0.00000000000E+00 0.  1.
         13    1    5    5    0    0 -0.13308673871E+03 -0.84268088597E+02  0.55146732860E+02  0.16689623399E+03  0.00000000000E+00 0.  1.
        -13    1    5    5    0    0 -0.16910909679E+03 -0.16664381246E+03 -0.16493368714E+02  0.23799176048E+03  0.00000000000E+00 0. -1.
          3    1    6    6  503    0  0.16023733677E+03  0.27794688309E+03  0.52021604641E+02  0.32501803221E+03  0.00000000000E+00 0. -1.
         -3    1    6    6    0  503  0.15283467129E+03  0.12422068917E+03  0.30242239675E+02  0.19925814771E+03  0.00000000000E+00 0.  1.
<mgrwt>
<rscale>  0 0.11559325E+04</rscale>
<asrwt>0</asrwt>
<pdfrwt beam="1">  1        1 0.86723010E-01 0.11559325E+04</pdfrwt>
<pdfrwt beam="2">  1       -2 0.91168308E-01 0.11559325E+04</pdfrwt>
<totfact> 0.33385154E+01</totfact>
</mgrwt>
</event>
<event>
12    5  0.5041746E-008  0.1495983E+04  0.7818608E-02  0.8887129E-01
         -2   -1    0    0    0  501 -0.00000000000E+00  0.00000000000E+00  0.23156958100E+03  0.23156958100E+03  0.00000000000E+00 0.  1.
          1   -1    0    0  501    0  0.00000000000E+00 -0.00000000000E+00 -0.24160814915E+04  0.24160814915E+04  0.00000000000E+00 0. -1.
        -24    2    1    2    0    0 -0.14045838173E+03  0.40057436183E+03 -0.10739554914E+04  0.11575531329E+04  0.79752627426E+02 0.  0.
        254    2    1    2    0    0  0.14045838173E+03 -0.40057436183E+03 -0.11105564192E+04  0.14900979397E+04  0.89825827763E+03 0.  0.
         23    2    4    4    0    0 -0.37434507027E+02 -0.58783747252E+03 -0.37116620280E+03  0.70149367218E+03  0.85876571822E+02 0.  0.
         23    2    4    4    0    0  0.17789288876E+03  0.18726311070E+03 -0.73939021638E+03  0.78860426751E+03  0.92116481462E+02 0.  0.
          1    1    3    3  502    0 -0.13265791208E+03  0.39296742533E+03 -0.99698159836E+03  0.10798119403E+04  0.00000000000E+00 0. -1.
         -2    1    3    3    0  502 -0.78004696571E+01  0.76069364909E+01 -0.76973893015E+02  0.77741192527E+02  0.00000000000E+00 0.  1.
         13    1    5    5    0    0 -0.92705929974E+00 -0.36943704864E+03 -0.27255538180E+03  0.45909805978E+03  0.00000000000E+00 0.  1.
        -13    1    5    5    0    0 -0.36507447727E+02 -0.21840042388E+03 -0.98610821000E+02  0.24239561239E+03  0.00000000000E+00 0. -1.
          3    1    6    6  503    0  0.49819560241E+02  0.33786810688E+02 -0.83542836486E+02  0.10297059137E+03  0.00000000000E+00 0. -1.
         -3    1    6    6    0  503  0.12807332852E+03  0.15347630001E+03 -0.65584737989E+03  0.68563367614E+03  0.00000000000E+00 0.  1.
<mgrwt>
<rscale>  0 0.14959826E+04</rscale>
<asrwt>0</asrwt>
<pdfrwt beam="1">  1        1 0.37170484E+00 0.14959826E+04</pdfrwt>
<pdfrwt beam="2">  1       -2 0.35626089E-01 0.14959826E+04</pdfrwt>
<totfact> 0.97647730E+00</totfact>
</mgrwt>
</event>
<event>
12    5  0.5041746E-008  0.2238951E+04  0.7818608E-02  0.8502388E-01
         -2   -1    0    0    0  501 -0.00000000000E+00  0.00000000000E+00  0.23498059078E+04  0.23498059078E+04  0.00000000000E+00 0.  1.
          1   -1    0    0  501    0  0.00000000000E+00 -0.00000000000E+00 -0.53333160612E+03  0.53333160612E+03  0.00000000000E+00 0. -1.
        -24    2    1    2    0    0 -0.30840063820E+02  0.89458911726E+03  0.30305055171E+03  0.94840708113E+03  0.79972222648E+02 0.  0.
        254    2    1    2    0    0  0.30840063820E+02 -0.89458911726E+03  0.15134237499E+04  0.19347304327E+04  0.80714905829E+03 0.  0.
         23    2    4    4    0    0 -0.20753040833E+03  0.13994781776E+02  0.50418203100E+03  0.55302162181E+03  0.91480432364E+02 0.  0.
         23    2    4    4    0    0  0.23837047215E+03 -0.90858389903E+03  0.10092417189E+04  0.13817088109E+04  0.90582600062E+02 0.  0.
          1    1    3    3  502    0 -0.19330572645E+02  0.74439315919E+03  0.22035056743E+03  0.77656243732E+03  0.00000000000E+00 0. -1.
         -4    1    3    3    0  502 -0.11509491175E+02  0.15019595807E+03  0.82699984281E+02  0.17184464381E+03  0.00000000000E+00 0.  1.
         13    1    5    5    0    0 -0.20641074494E+02  0.73841266315E+01  0.15840435082E+03  0.15991409457E+03  0.00000000000E+00 0. -1.
        -13    1    5    5    0    0 -0.18688933383E+03  0.66106551442E+01  0.34577768018E+03  0.39310752724E+03  0.00000000000E+00 0.  1.
          1    1    6    6  503    0  0.12190776693E+03 -0.32100618743E+03  0.40309253960E+03  0.52951871684E+03  0.00000000000E+00 0. -1.
         -1    1    6    6    0  503  0.11646270522E+03 -0.58757771160E+03  0.60614917932E+03  0.85219009409E+03  0.00000000000E+00 0.  1.
<mgrwt>
<rscale>  0 0.22389513E+04</rscale>
<asrwt>0</asrwt>
<pdfrwt beam="1">  1        1 0.82051017E-01 0.22389513E+04</pdfrwt>
<pdfrwt beam="2">  1       -2 0.36150860E+00 0.22389513E+04</pdfrwt>
<totfact> 0.42466427E-01</totfact>
</mgrwt>
</event>
<event>
12    5  0.5041746E-008  0.2022359E+04  0.7818608E-02  0.8596238E-01
          1   -1    0    0  501    0  0.00000000000E+00  0.00000000000E+00  0.10121202516E+04  0.10121202516E+04  0.00000000000E+00 0. -1.
         -2   -1    0    0    0  501 -0.00000000000E+00 -0.00000000000E+00 -0.10102392409E+04  0.10102392409E+04  0.00000000000E+00 0.  1.
        -24    2    1    2    0    0  0.72769568195E+03  0.27064915118E+03 -0.22209294590E+03  0.81147458726E+03  0.79835835150E+02 0.  0.
        254    2    1    2    0    0 -0.72769568195E+03 -0.27064915118E+03  0.22397395663E+03  0.12108849052E+04  0.90182368115E+03 0.  0.
         23    2    4    4    0    0 -0.81860535331E+03 -0.38105483716E+03  0.37863307161E+03  0.98338378681E+03  0.91450291754E+02 0.  0.
         23    2    4    4    0    0  0.90909671356E+02  0.11040568598E+03 -0.15465911498E+03  0.22750111841E+03  0.85926324183E+02 0.  0.
          3    1    3    3  502    0  0.49996747248E+03  0.18939907987E+03 -0.11417273012E+03  0.54669451918E+03  0.00000000000E+00 0. -1.
         -4    1    3    3    0  502  0.22772820947E+03  0.81250071307E+02 -0.10792021578E+03  0.26478006808E+03  0.00000000000E+00 0.  1.
         13    1    5    5    0    0 -0.30785389397E+03 -0.96129676096E+02  0.12459757979E+03  0.34574483589E+03  0.00000000000E+00 0.  1.
        -13    1    5    5    0    0 -0.51075145934E+03 -0.28492516106E+03  0.25403549182E+03  0.63763895092E+03  0.00000000000E+00 0. -1.
          3    1    6    6  503    0 -0.19066722435E+01  0.60106758340E+02 -0.43648976226E+02  0.74308081140E+02  0.00000000000E+00 0. -1.
         -3    1    6    6    0  503  0.92816343600E+02  0.50298927638E+02 -0.11101013876E+03  0.15319303727E+03  0.00000000000E+00 0.  1.
<mgrwt>
<rscale>  0 0.20223586E+04</rscale>
<asrwt>0</asrwt>
<pdfrwt beam="1">  1        1 0.15571081E+00 0.20223586E+04</pdfrwt>
<pdfrwt beam="2">  1       -2 0.15542142E+00 0.20223586E+04</pdfrwt>
<totfact> 0.32746384E+00</totfact>
</mgrwt>
</event>
<event>
12    5  0.5041746E-008  0.1919638E+04  0.7818608E-02  0.8645142E-01
         -2   -1    0    0    0  501 -0.00000000000E+00  0.00000000000E+00  0.34508845401E+03  0.34508845401E+03  0.00000000000E+00 0.  1.
          1   -1    0    0  501    0  0.00000000000E+00 -0.00000000000E+00 -0.26696132086E+04  0.26696132086E+04  0.00000000000E+00 0. -1.
        -24    2    1    2    0    0  0.66044962351E+02 -0.70297593992E+03 -0.12900291194E+04  0.14726660855E+04  0.77673425906E+02 0.  0.
        254    2    1    2    0    0 -0.66044962351E+02  0.70297593992E+03 -0.10344956352E+04  0.15420355772E+04  0.89953065147E+03 0.  0.
         23    2    4    4    0    0  0.12351917032E+03  0.61691325258E+03 -0.11286957576E+04  0.12956873735E+04  0.94935294356E+02 0.  0.
         23    2    4    4    0    0 -0.18956413267E+03  0.86062687342E+02  0.94200122406E+02  0.24634820365E+03  0.92045792043E+02 0.  0.
          1    1    3    3  502    0  0.56129603557E+02 -0.67597569583E+03 -0.12035679641E+04  0.13815460607E+04  0.00000000000E+00 0. -1.
         -2    1    3    3    0  502  0.99153587940E+01 -0.27000244091E+02 -0.86461155343E+02  0.91120024716E+02  0.00000000000E+00 0.  1.
         13    1    5    5    0    0  0.87447070148E+02  0.32408860468E+03 -0.68538028323E+03  0.76316875356E+03  0.00000000000E+00 0.  1.
        -13    1    5    5    0    0  0.36072100170E+02  0.29282464790E+03 -0.44331547434E+03  0.53251861997E+03  0.00000000000E+00 0. -1.
          2    1    6    6  503    0 -0.57502516381E+02 -0.16424336039E+02  0.16683974071E+02  0.62085853423E+02  0.00000000000E+00 0. -1.
         -2    1    6    6    0  503 -0.13206161629E+03  0.10248702338E+03  0.77516148335E+02  0.18426235023E+03  0.00000000000E+00 0.  1.
<mgrwt>
<rscale>  0 0.19196382E+04</rscale>
<asrwt>0</asrwt>
<pdfrwt beam="1">  1        1 0.41070973E+00 0.19196382E+04</pdfrwt>
<pdfrwt beam="2">  1       -2 0.53090531E-01 0.19196382E+04</pdfrwt>
<totfact> 0.28333257E+00</totfact>
</mgrwt>
</event>
<event>
12    5  0.5041746E-008  0.2080373E+04  0.7818608E-02  0.8569939E-01
          3   -1    0    0  501    0  0.00000000000E+00  0.00000000000E+00  0.66118217126E+03  0.66118217126E+03  0.00000000000E+00 0. -1.
         -2   -1    0    0    0  501 -0.00000000000E+00 -0.00000000000E+00 -0.16364444655E+04  0.16364444655E+04  0.00000000000E+00 0.  1.
        -24    2    1    2    0    0  0.67852912679E+03  0.11272196641E+03  0.14661537245E+03  0.70758924834E+03  0.77964474674E+02 0.  0.
        254    2    1    2    0    0 -0.67852912679E+03 -0.11272196641E+03 -0.11218776667E+04  0.15900373884E+04  0.89246925991E+03 0.  0.
         23    2    4    4    0    0 -0.16139559214E+02 -0.16185156978E+03 -0.84430432259E+03  0.86455567722E+03  0.90279088701E+02 0.  0.
         23    2    4    4    0    0 -0.66238956758E+03  0.49129603369E+02 -0.27757334408E+03  0.72548171117E+03  0.90017191317E+02 0.  0.
          3    1    3    3  502    0  0.54571008856E+03  0.75485972376E+02  0.88773595340E+02  0.55801288875E+03  0.00000000000E+00 0. -1.
         -4    1    3    3    0  502  0.13281903823E+03  0.37235994035E+02  0.57841777114E+02  0.14957635959E+03  0.00000000000E+00 0.  1.
         13    1    5    5    0    0  0.13336105010E+02 -0.46050305839E+02 -0.44989539559E+03  0.45244264757E+03  0.00000000000E+00 0. -1.
        -13    1    5    5    0    0 -0.29475664223E+02 -0.11580126394E+03 -0.39440892700E+03  0.41211302965E+03  0.00000000000E+00 0.  1.
          3    1    6    6  503    0 -0.78877131321E+02 -0.22867915022E+02 -0.40165683569E+02  0.91421143722E+02  0.00000000000E+00 0. -1.
         -3    1    6    6    0  503 -0.58351243626E+03  0.71997518391E+02 -0.23740766051E+03  0.63406056745E+03  0.00000000000E+00 0.  1.
<mgrwt>
<rscale>  0 0.20803730E+04</rscale>
<asrwt>0</asrwt>
<pdfrwt beam="1">  1        3 0.10172033E+00 0.20803730E+04</pdfrwt>
<pdfrwt beam="2">  1       -2 0.25176069E+00 0.20803730E+04</pdfrwt>
<totfact> 0.20298046E-01</totfact>
</mgrwt>
</event>
<event>
12    5  0.5041746E-008  0.2255691E+04  0.7818608E-02  0.8495599E-01
         -2   -1    0    0    0  501 -0.00000000000E+00  0.00000000000E+00  0.77963867779E+03  0.77963867779E+03  0.00000000000E+00 0.  1.
          1   -1    0    0  501    0  0.00000000000E+00 -0.00000000000E+00 -0.16315704225E+04  0.16315704225E+04  0.00000000000E+00 0. -1.
        -24    2    1    2    0    0 -0.35897455188E+03 -0.48203359183E+03  0.42263957733E+03  0.73896423420E+03  0.78897493907E+02 0.  0.
        254    2    1    2    0    0  0.35897455188E+03  0.48203359183E+03 -0.12745713220E+04  0.16722448661E+04  0.90036199645E+03 0.  0.
         23    2    4    4    0    0  0.55374651346E+03  0.56459306994E+03 -0.11794073591E+04  0.14229298787E+04  0.91253412115E+02 0.  0.
         23    2    4    4    0    0 -0.19477196158E+03 -0.82559478112E+02 -0.95163962967E+02  0.24931498741E+03  0.91376138312E+02 0.  0.
          3    1    3    3  502    0 -0.21446596032E+03 -0.22709451845E+03  0.23660589620E+03  0.39185446094E+03  0.00000000000E+00 0. -1.
         -4    1    3    3    0  502 -0.14450859156E+03 -0.25493907338E+03  0.18603368113E+03  0.34710977325E+03  0.00000000000E+00 0.  1.
         13    1    5    5    0    0  0.13392635026E+02  0.42443517070E+02 -0.72502540944E+02  0.85073105372E+02  0.00000000000E+00 0.  1.
        -13    1    5    5    0    0  0.54035387844E+03  0.52214955287E+03 -0.11069048181E+04  0.13378567733E+04  0.00000000000E+00 0. -1.
          4    1    6    6  503    0 -0.15495152661E+03 -0.77939055205E+02 -0.34883270914E+02  0.17692177513E+03  0.00000000000E+00 0. -1.
         -4    1    6    6    0  503 -0.39820434967E+02 -0.46204229075E+01 -0.60280692053E+02  0.72393212273E+02  0.00000000000E+00 0.  1.
<mgrwt>
<rscale>  0 0.22556909E+04</rscale>
<asrwt>0</asrwt>
<pdfrwt beam="1">  1        1 0.25101083E+00 0.22556909E+04</pdfrwt>
<pdfrwt beam="2">  1       -2 0.11994441E+00 0.22556909E+04</pdfrwt>
<totfact> 0.22485416E+00</totfact>
</mgrwt>
</event>
<event>
12    5  0.5041746E-008  0.1185897E+04  0.7818608E-02  0.9125291E-01
          1   -1    0    0  501    0  0.00000000000E+00  0.00000000000E+00  0.30611458921E+03  0.30611458921E+03  0.00000000000E+00 0. -1.
         -2   -1    0    0    0  501 -0.00000000000E+00 -0.00000000000E+00 -0.11485499696E+04  0.11485499696E+04  0.00000000000E+00 0.  1.
        -24    2    1    2    0    0  0.26509131253E+02  0.16732623740E+03 -0.39422834193E+03  0.43584009242E+03  0.76418563271E+02 0.  0.
        254    2    1    2    0    0 -0.26509131253E+02 -0.16732623740E+03 -0.44820703850E+03  0.10188244664E+04  0.89911786786E+03 0.  0.
         23    2    4    4    0    0  0.29968970329E+03 -0.28681540022E+03 -0.49916557406E+03  0.65561765581E+03  0.92688986523E+02 0.  0.
         23    2    4    4    0    0 -0.32619883454E+03  0.11948916281E+03  0.50958535563E+02  0.36320681063E+03  0.92946625837E+02 0.  0.
          3    1    3    3  502    0  0.26877814839E+01  0.24241524380E+02 -0.14852485849E+03  0.15051414971E+03  0.00000000000E+00 0. -1.
         -4    1    3    3    0  502  0.23821349769E+02  0.14308471302E+03 -0.24570348344E+03  0.28532594270E+03  0.00000000000E+00 0.  1.
         13    1    5    5    0    0  0.29351159345E+03 -0.28590444172E+03 -0.50262632373E+03  0.64847793069E+03  0.00000000000E+00 0. -1.
        -13    1    5    5    0    0  0.61781098361E+01 -0.91095849129E+00  0.34607496661E+01  0.71397251187E+01  0.00000000000E+00 0.  1.
          2    1    6    6  503    0 -0.12513786322E+03  0.79869018777E+02  0.54794526644E+02  0.15824343627E+03  0.00000000000E+00 0. -1.
         -2    1    6    6    0  503 -0.20106097132E+03  0.39620144036E+02 -0.38359910806E+01  0.20496337436E+03  0.00000000000E+00 0.  1.
<mgrwt>
<rscale>  0 0.11858970E+04</rscale>
<asrwt>0</asrwt>
<pdfrwt beam="1">  1        1 0.47094552E-01 0.11858970E+04</pdfrwt>
<pdfrwt beam="2">  1       -2 0.17670000E+00 0.11858970E+04</pdfrwt>
<totfact> 0.14099054E+01</totfact>
</mgrwt>
</event>
<event>
12    5  0.5041746E-008  0.1785475E+04  0.7818608E-02  0.8714062E-01
          1   -1    0    0  501    0  0.00000000000E+00  0.00000000000E+00  0.19622959048E+04  0.19622959048E+04  0.00000000000E+00 0. -1.
         -2   -1    0    0    0  501 -0.00000000000E+00 -0.00000000000E+00 -0.40614694863E+03  0.40614694863E+03  0.00000000000E+00 0.  1.
        -24    2    1    2    0    0  0.37830176672E+03  0.17566241097E+03 -0.10387750567E+03  0.43602921854E+03  0.73221813007E+02 0.  0.
        254    2    1    2    0    0 -0.37830176672E+03 -0.17566241097E+03  0.16600264618E+04  0.19324136348E+04  0.89697552528E+03 0.  0.
         23    2    4    4    0    0  0.18015530829E+03  0.21788774938E+03  0.57208692464E+03  0.64458909097E+03  0.90998024236E+02 0.  0.
         23    2    4    4    0    0 -0.55845707501E+03 -0.39355016035E+03  0.10879395372E+04  0.12878245439E+04  0.90130937990E+02 0.  0.
          3    1    3    3  502    0  0.31684418944E+02  0.37789031757E+02 -0.20856816200E+01  0.49358518948E+02  0.00000000000E+00 0. -1.
         -4    1    3    3    0  502  0.34661734778E+03  0.13787337922E+03 -0.10179182405E+03  0.38667069959E+03  0.00000000000E+00 0.  1.
         13    1    5    5    0    0  0.16929704496E+03  0.14522843976E+03  0.41397004177E+03  0.47023822115E+03  0.00000000000E+00 0. -1.
        -13    1    5    5    0    0  0.10858263325E+02  0.72659309621E+02  0.15811688287E+03  0.17435086982E+03  0.00000000000E+00 0.  1.
          1    1    6    6  503    0 -0.44540188095E+03 -0.33374626626E+03  0.93852361936E+03  0.10911443488E+04  0.00000000000E+00 0. -1.
         -1    1    6    6    0  503 -0.11305519406E+03 -0.59803894086E+02  0.14941591779E+03  0.19668019509E+03  0.00000000000E+00 0.  1.
<mgrwt>
<rscale>  0 0.17854753E+04</rscale>
<asrwt>0</asrwt>
<pdfrwt beam="1">  1        1 0.30189167E+00 0.17854753E+04</pdfrwt>
<pdfrwt beam="2">  1       -2 0.62484147E-01 0.17854753E+04</pdfrwt>
<totfact> 0.62305136E+00</totfact>
</mgrwt>
</event>
<event>
12    5  0.5041746E-008  0.1625097E+04  0.7818608E-02  0.8805277E-01
         -2   -1    0    0    0  501 -0.00000000000E+00  0.00000000000E+00  0.30678827911E+03  0.30678827911E+03  0.00000000000E+00 0.  1.
          1   -1    0    0  501    0  0.00000000000E+00 -0.00000000000E+00 -0.21520874387E+04  0.21520874387E+04  0.00000000000E+00 0. -1.
        -24    2    1    2    0    0 -0.25313859498E+03 -0.17612721144E+03 -0.13368258337E+04  0.13741920173E+04  0.78742922415E+02 0.  0.
        254    2    1    2    0    0  0.25313859498E+03  0.17612721144E+03 -0.50847332590E+03  0.10846837005E+04  0.90713486550E+03 0.  0.
         23    2    4    4    0    0  0.10786424310E+03 -0.25325700590E+03  0.11266782936E+03  0.31146950596E+03  0.92441372726E+02 0.  0.
         23    2    4    4    0    0  0.14527435188E+03  0.42938421734E+03 -0.62114115526E+03  0.77321419459E+03  0.81045743524E+02 0.  0.
          1    1    3    3  502    0 -0.22263770789E+03 -0.11832301266E+03 -0.10989131522E+04  0.11274652990E+04  0.00000000000E+00 0. -1.
         -4    1    3    3    0  502 -0.30500887091E+02 -0.57804198785E+02 -0.23791268145E+03  0.24672671826E+03  0.00000000000E+00 0.  1.
         13    1    5    5    0    0  0.81749577813E+02 -0.96660833194E+02  0.78868396918E+02  0.14915272099E+03  0.00000000000E+00 0.  1.
        -13    1    5    5    0    0  0.26114665291E+02 -0.15659617270E+03  0.33799432445E+02  0.16231678497E+03  0.00000000000E+00 0. -1.
          4    1    6    6  503    0  0.50235382268E+02  0.24015652409E+03 -0.28647347763E+03  0.37718139281E+03  0.00000000000E+00 0. -1.
         -4    1    6    6    0  503  0.95038969609E+02  0.18922769325E+03 -0.33466767763E+03  0.39603280178E+03  0.00000000000E+00 0.  1.
<mgrwt>
<rscale>  0 0.16250972E+04</rscale>
<asrwt>0</asrwt>
<pdfrwt beam="1">  1        1 0.33109038E+00 0.16250972E+04</pdfrwt>
<pdfrwt beam="2">  1       -2 0.47198196E-01 0.16250972E+04</pdfrwt>
<totfact> 0.84077535E+00</totfact>
</mgrwt>
</event>
<event>
12    5  0.5041746E-008  0.1350202E+04  0.7818608E-02  0.8990676E-01
         -2   -1    0    0    0  501 -0.00000000000E+00  0.00000000000E+00  0.35206415689E+03  0.35206415689E+03  0.00000000000E+00 0.  1.
          1   -1    0    0  501    0  0.00000000000E+00 -0.00000000000E+00 -0.12945398672E+04  0.12945398672E+04  0.00000000000E+00 0. -1.
        -24    2    1    2    0    0  0.23122604331E+03 -0.95120053453E+02 -0.60354699445E+03  0.65869770620E+03  0.84263788043E+02 0.  0.
        254    2    1    2    0    0 -0.23122604331E+03  0.95120053453E+02 -0.33892871584E+03  0.98790631786E+03  0.89362906778E+03 0.  0.
         23    2    4    4    0    0  0.25558735453E+03 -0.20814066467E+03 -0.75823082034E+02  0.35041879161E+03  0.91633823781E+02 0.  0.
         23    2    4    4    0    0 -0.48681339784E+03  0.30326071813E+03 -0.26310563381E+03  0.63748752625E+03  0.90616908536E+02 0.  0.
          3    1    3    3  502    0  0.21938646844E+03 -0.82779040449E+02 -0.59508609918E+03  0.63961727424E+03  0.00000000000E+00 0. -1.
         -4    1    3    3    0  502  0.11839574868E+02 -0.12341013004E+02 -0.84608952694E+01  0.19080431961E+02  0.00000000000E+00 0.  1.
         13    1    5    5    0    0  0.15878245243E+03 -0.13300531345E+03 -0.92320162509E+02  0.22677145546E+03  0.00000000000E+00 0.  1.
        -13    1    5    5    0    0  0.96804902093E+02 -0.75135351222E+02  0.16497080475E+02  0.12364733615E+03  0.00000000000E+00 0. -1.
          1    1    6    6  503    0 -0.15510925487E+03  0.10724891224E+03 -0.13324622258E+03  0.23090207006E+03  0.00000000000E+00 0. -1.
         -1    1    6    6    0  503 -0.33170414296E+03  0.19601180588E+03 -0.12985941123E+03  0.40658545619E+03  0.00000000000E+00 0.  1.
<mgrwt>
<rscale>  0 0.13502016E+04</rscale>
<asrwt>0</asrwt>
<pdfrwt beam="1">  1        1 0.19915998E+00 0.13502016E+04</pdfrwt>
<pdfrwt beam="2">  1       -2 0.54163716E-01 0.13502016E+04</pdfrwt>
<totfact> 0.25151367E+01</totfact>
</mgrwt>
</event>
<event>
12    5  0.5041746E-008  0.2957395E+04  0.7818608E-02  0.8256003E-01
         -2   -1    0    0    0  501 -0.00000000000E+00  0.00000000000E+00  0.11131086417E+04  0.11131086417E+04  0.00000000000E+00 0.  1.
          1   -1    0    0  501    0  0.00000000000E+00 -0.00000000000E+00 -0.19643596660E+04  0.19643596660E+04  0.00000000000E+00 0. -1.
        -24    2    1    2    0    0 -0.72084007476E+03  0.38777688464E+03 -0.14950760852E+04  0.17063411418E+04  0.79788883733E+02 0.  0.
        254    2    1    2    0    0  0.72084007476E+03 -0.38777688464E+03  0.64382506093E+03  0.13711271659E+04  0.89190676103E+03 0.  0.
         23    2    4    4    0    0  0.44955712701E+03 -0.66615111903E+03  0.39226086004E+03  0.89891110132E+03  0.91179284507E+02 0.  0.
         23    2    4    4    0    0  0.27128294775E+03  0.27837423439E+03  0.25156420088E+03  0.47221606459E+03  0.92826786983E+02 0.  0.
          1    1    3    3  502    0 -0.54733475655E+03  0.30964182870E+03 -0.12088491650E+04  0.13626333701E+04  0.00000000000E+00 0. -1.
         -2    1    3    3    0  502 -0.17350531822E+03  0.78135055938E+02 -0.28622692022E+03  0.34370777163E+03  0.00000000000E+00 0.  1.
         13    1    5    5    0    0  0.60861967778E+02 -0.10647262413E+03  0.96616756752E+02  0.15612621976E+03  0.00000000000E+00 0.  1.
        -13    1    5    5    0    0  0.38869515923E+03 -0.55967849490E+03  0.29564410329E+03  0.74278488156E+03  0.00000000000E+00 0. -1.
          4    1    6    6  503    0  0.12211137915E+03  0.12019207599E+03  0.57356787952E+02  0.18068515482E+03  0.00000000000E+00 0.  1.
         -4    1    6    6    0  503  0.14917156860E+03  0.15818215839E+03  0.19420741293E+03  0.29153090977E+03  0.00000000000E+00 0. -1.
<mgrwt>
<rscale>  0 0.29573946E+04</rscale>
<asrwt>0</asrwt>
<pdfrwt beam="1">  1        1 0.30220918E+00 0.29573946E+04</pdfrwt>
<pdfrwt beam="2">  1       -2 0.17124748E+00 0.29573946E+04</pdfrwt>
<totfact> 0.49404378E-01</totfact>
</mgrwt>
</event>
<event>
12    5  0.5041746E-008  0.2935876E+04  0.7818608E-02  0.8262283E-01
          1   -1    0    0  501    0  0.00000000000E+00  0.00000000000E+00  0.15104248974E+04  0.15104248974E+04  0.00000000000E+00 0. -1.
         -2   -1    0    0    0  501 -0.00000000000E+00 -0.00000000000E+00 -0.14266460528E+04  0.14266460528E+04  0.00000000000E+00 0.  1.
        -24    2    1    2    0    0  0.42387128471E+03  0.58416386037E+03 -0.11080009488E+04  0.13247546281E+04  0.79965244536E+02 0.  0.
        254    2    1    2    0    0 -0.42387128471E+03 -0.58416386037E+03  0.11917797935E+04  0.16123163220E+04  0.81136339848E+03 0.  0.
         23    2    4    4    0    0 -0.60210306702E+01 -0.13581923586E+02 -0.10061088381E+03  0.13632887475E+03  0.90787062364E+02 0.  0.
         23    2    4    4    0    0 -0.41785025404E+03 -0.57058193679E+03  0.12923906773E+04  0.14759874473E+04  0.90015000979E+02 0.  0.
          1    1    3    3  502    0  0.83736161940E+02  0.15193942646E+03 -0.21931533439E+03  0.27963646048E+03  0.00000000000E+00 0. -1.
         -2    1    3    3    0  502  0.34013512277E+03  0.43222443391E+03 -0.88868561445E+03  0.10451181676E+04  0.00000000000E+00 0.  1.
         13    1    5    5    0    0  0.35982455062E+02 -0.30018924913E+02 -0.49541596286E+02  0.68192687935E+02  0.00000000000E+00 0. -1.
        -13    1    5    5    0    0 -0.42003485732E+02  0.16437001328E+02 -0.51069287523E+02  0.68136186820E+02  0.00000000000E+00 0.  1.
          2    1    6    6  503    0 -0.16680856985E+02 -0.33008265186E+01  0.45660960150E+02  0.48724426392E+02  0.00000000000E+00 0. -1.
         -2    1    6    6    0  503 -0.40116939706E+03 -0.56728111027E+03  0.12467297171E+04  0.14272630209E+04  0.00000000000E+00 0.  1.
<mgrwt>
<rscale>  0 0.29358758E+04</rscale>
<asrwt>0</asrwt>
<pdfrwt beam="1">  1        1 0.23237306E+00 0.29358758E+04</pdfrwt>
<pdfrwt beam="2">  1       -2 0.21948401E+00 0.29358758E+04</pdfrwt>
<totfact> 0.48153311E-01</totfact>
</mgrwt>
</event>
<event>
12    5  0.5041746E-008  0.1589790E+04  0.7818608E-02  0.8826845E-01
         -2   -1    0    0    0  501 -0.00000000000E+00  0.00000000000E+00  0.44488873229E+03  0.44488873229E+03  0.00000000000E+00 0.  1.
          1   -1    0    0  501    0  0.00000000000E+00 -0.00000000000E+00 -0.14202605169E+04  0.14202605169E+04  0.00000000000E+00 0. -1.
        -24    2    1    2    0    0 -0.43079494286E+03 -0.18760213097E+03 -0.50605803753E+03  0.69625194948E+03  0.88843668680E+02 0.  0.
        254    2    1    2    0    0  0.43079494286E+03  0.18760213097E+03 -0.46931374713E+03  0.11688972998E+04  0.96191821992E+03 0.  0.
         23    2    4    4    0    0  0.41701811805E+03 -0.32988864663E+03 -0.18421863720E+03  0.57023991003E+03  0.92230248465E+02 0.  0.
         23    2    4    4    0    0  0.13776824805E+02  0.51749077760E+03 -0.28509510992E+03  0.59865738973E+03  0.95524566373E+02 0.  0.
          1    1    3    3  502    0 -0.19330478966E+03 -0.82040878303E+02 -0.29134564946E+03  0.35913748743E+03  0.00000000000E+00 0. -1.
         -2    1    3    3    0  502 -0.23749015320E+03 -0.10556125266E+03 -0.21471238807E+03  0.33711446205E+03  0.00000000000E+00 0.  1.
         13    1    5    5    0    0  0.36475811969E+03 -0.27841063413E+03 -0.12398813798E+03  0.47532517863E+03  0.00000000000E+00 0. -1.
        -13    1    5    5    0    0  0.52259998364E+02 -0.51478012502E+02 -0.60230499222E+02  0.94914731399E+02  0.00000000000E+00 0.  1.
          4    1    6    6  503    0 -0.25929076904E+01  0.26331626946E+03 -0.19804789840E+03  0.32949226242E+03  0.00000000000E+00 0.  1.
         -4    1    6    6    0  503  0.16369732495E+02  0.25417450814E+03 -0.87047211521E+02  0.26916512731E+03  0.00000000000E+00 0. -1.
<mgrwt>
<rscale>  0 0.15897898E+04</rscale>
<asrwt>0</asrwt>
<pdfrwt beam="1">  1        1 0.21850162E+00 0.15897898E+04</pdfrwt>
<pdfrwt beam="2">  1       -2 0.68444421E-01 0.15897898E+04</pdfrwt>
<totfact> 0.12230755E+01</totfact>
</mgrwt>
</event>
<event>
12    5  0.5041746E-008  0.1383205E+04  0.7818608E-02  0.8966066E-01
          1   -1    0    0  501    0  0.00000000000E+00  0.00000000000E+00  0.89300913005E+03  0.89300913005E+03  0.00000000000E+00 0. -1.
         -2   -1    0    0    0  501 -0.00000000000E+00 -0.00000000000E+00 -0.53562069367E+03  0.53562069367E+03  0.00000000000E+00 0.  1.
        -24    2    1    2    0    0 -0.20910383673E+03  0.73289628598E+01  0.43396946669E+03  0.48832504108E+03  0.79710222029E+02 0.  0.
        254    2    1    2    0    0  0.20910383673E+03 -0.73289628598E+01 -0.76581030313E+02  0.94030478264E+03  0.91352630056E+03 0.  0.
         23    2    4    4    0    0 -0.15708325176E+03 -0.35625367398E+03 -0.13640252951E+03  0.42291088741E+03  0.93038381447E+02 0.  0.
         23    2    4    4    0    0  0.36618708849E+03  0.34892471112E+03  0.59821499198E+02  0.51739389523E+03  0.90974684619E+02 0.  0.
          1    1    3    3  502    0 -0.16662213519E+03  0.22978307212E+02  0.39212395884E+03  0.42667568203E+03  0.00000000000E+00 0. -1.
         -2    1    3    3    0  502 -0.42481701544E+02 -0.15649344352E+02  0.41845507852E+02  0.61649359056E+02  0.00000000000E+00 0.  1.
         13    1    5    5    0    0 -0.41060150743E+02 -0.66433183807E+02 -0.67477721551E+02  0.10321117573E+03  0.00000000000E+00 0.  1.
        -13    1    5    5    0    0 -0.11602310101E+03 -0.28982049018E+03 -0.68924807960E+02  0.31969971168E+03  0.00000000000E+00 0. -1.
          4    1    6    6  503    0  0.20564407111E+03  0.24081237673E+03  0.69333146528E+01  0.31674620064E+03  0.00000000000E+00 0. -1.
         -4    1    6    6    0  503  0.16054301738E+03  0.10811233440E+03  0.52888184545E+02  0.20064769459E+03  0.00000000000E+00 0.  1.
<mgrwt>
<rscale>  0 0.13832052E+04</rscale>
<asrwt>0</asrwt>
<pdfrwt beam="1">  1        1 0.13738602E+00 0.13832052E+04</pdfrwt>
<pdfrwt beam="2">  1       -2 0.82403183E-01 0.13832052E+04</pdfrwt>
<totfact> 0.20400981E+01</totfact>
</mgrwt>
</event>
<event>
12    5  0.5041746E-008  0.2503708E+04  0.7818608E-02  0.8401666E-01
          1   -1    0    0  501    0  0.00000000000E+00  0.00000000000E+00  0.32669604791E+04  0.32669604791E+04  0.00000000000E+00 0. -1.
         -2   -1    0    0    0  501 -0.00000000000E+00 -0.00000000000E+00 -0.47969326382E+03  0.47969326382E+03  0.00000000000E+00 0.  1.
        -24    2    1    2    0    0  0.62890544756E+03  0.70856531162E+03  0.20101120073E+04  0.22236098140E+04  0.79394334931E+02 0.  0.
        254    2    1    2    0    0 -0.62890544756E+03 -0.70856531162E+03  0.77715520794E+03  0.15230439288E+04  0.90449197295E+03 0.  0.
         23    2    4    4    0    0 -0.81312885724E+03 -0.62400333753E+03  0.78981176595E+03  0.12973426109E+04  0.93469356600E+02 0.  0.
         23    2    4    4    0    0  0.18422340968E+03 -0.84561974094E+02 -0.12656558010E+02  0.22570131797E+03  0.98447469935E+02 0.  0.
          3    1    3    3  502    0  0.31592327468E+03  0.40210518910E+03  0.11410472510E+04  0.12503939090E+04  0.00000000000E+00 0. -1.
         -4    1    3    3    0  502  0.31298217288E+03  0.30646012252E+03  0.86906475626E+03  0.97321590503E+03  0.00000000000E+00 0.  1.
         13    1    5    5    0    0 -0.10112974981E+03 -0.11106288253E+03  0.14091454034E+03  0.20595897128E+03  0.00000000000E+00 0. -1.
        -13    1    5    5    0    0 -0.71199910743E+03 -0.51294045499E+03  0.64889722562E+03  0.10913836396E+04  0.00000000000E+00 0.  1.
          1    1    6    6  503    0  0.36452214043E+02  0.82032500232E+01  0.27830773195E+02  0.46589796696E+02  0.00000000000E+00 0. -1.
         -1    1    6    6    0  503  0.14777119563E+03 -0.92765224117E+02 -0.40487331205E+02  0.17911152127E+03  0.00000000000E+00 0.  1.
<mgrwt>
<rscale>  0 0.25037084E+04</rscale>
<asrwt>0</asrwt>
<pdfrwt beam="1">  1        1 0.50260929E+00 0.25037084E+04</pdfrwt>
<pdfrwt beam="2">  1       -2 0.73798966E-01 0.25037084E+04</pdfrwt>
<totfact> 0.48924399E-01</totfact>
</mgrwt>
</event>
<event>
12    5  0.5041746E-008  0.1305786E+04  0.7818608E-02  0.9024989E-01
          1   -1    0    0  501    0  0.00000000000E+00  0.00000000000E+00  0.11726241043E+04  0.11726241043E+04  0.00000000000E+00 0. -1.
         -2   -1    0    0    0  501 -0.00000000000E+00 -0.00000000000E+00 -0.36351742487E+03  0.36351742487E+03  0.00000000000E+00 0.  1.
        -24    2    1    2    0    0 -0.33439962901E+03  0.61031932306E+01  0.19977484222E+03  0.39716911177E+03  0.77284894451E+02 0.  0.
        254    2    1    2    0    0  0.33439962901E+03 -0.61031932306E+01  0.60933183716E+03  0.11389724174E+04  0.90228184005E+03 0.  0.
         23    2    4    4    0    0 -0.23005860117E+02  0.25206705431E+03 -0.10924210102E+03  0.29081869162E+03  0.92599164640E+02 0.  0.
         23    2    4    4    0    0  0.35740548913E+03 -0.25817024754E+03  0.71857393818E+03  0.84815372574E+03  0.92874525474E+02 0.  0.
          1    1    3    3  502    0 -0.14583385405E+03  0.14897644071E+02  0.12994778092E+03  0.19589762263E+03  0.00000000000E+00 0. -1.
         -2    1    3    3    0  502 -0.18856577496E+03 -0.87944508408E+01  0.69827061308E+02  0.20127148914E+03  0.00000000000E+00 0.  1.
         13    1    5    5    0    0  0.30850470228E+02  0.88200938370E+02 -0.16197211141E+02  0.94834100889E+02  0.00000000000E+00 0.  1.
        -13    1    5    5    0    0 -0.53856330345E+02  0.16386611594E+03 -0.93044889877E+02  0.19598459073E+03  0.00000000000E+00 0. -1.
          4    1    6    6  503    0  0.35703402110E+03 -0.24868176412E+03  0.67157797182E+03  0.80020802562E+03  0.00000000000E+00 0. -1.
         -4    1    6    6    0  503  0.37146802718E+00 -0.94884834203E+01  0.46995966361E+02  0.47945700124E+02  0.00000000000E+00 0.  1.
<mgrwt>
<rscale>  0 0.13057860E+04</rscale>
<asrwt>0</asrwt>
<pdfrwt beam="1">  1        1 0.18040371E+00 0.13057860E+04</pdfrwt>
<pdfrwt beam="2">  1       -2 0.55925758E-01 0.13057860E+04</pdfrwt>
<totfact> 0.28944136E+01</totfact>
</mgrwt>
</event>
<event>
12    5  0.5041746E-008  0.1500436E+04  0.7818608E-02  0.8884163E-01
          1   -1    0    0  501    0  0.00000000000E+00  0.00000000000E+00  0.16362644123E+04  0.16362644123E+04  0.00000000000E+00 0. -1.
         -2   -1    0    0    0  501 -0.00000000000E+00 -0.00000000000E+00 -0.34397061112E+03  0.34397061112E+03  0.00000000000E+00 0.  1.
        -24    2    1    2    0    0 -0.39678587279E+03 -0.25784904024E+03  0.46232715612E+03  0.66615841129E+03  0.78073511814E+02 0.  0.
        254    2    1    2    0    0  0.39678587279E+03  0.25784904024E+03  0.82996664506E+03  0.13140766121E+04  0.90223475560E+03 0.  0.
         23    2    4    4    0    0  0.46331524527E+03  0.51399159175E+03  0.40886006432E+03  0.80908412639E+03  0.92748037713E+02 0.  0.
         23    2    4    4    0    0 -0.66529372480E+02 -0.25614255151E+03  0.42110658074E+03  0.50499248573E+03  0.87472819804E+02 0.  0.
          1    1    3    3  502    0 -0.47055229862E+02 -0.26894607538E+02  0.92503882254E+02  0.10721232580E+03  0.00000000000E+00 0. -1.
         -2    1    3    3    0  502 -0.34973064292E+03 -0.23095443270E+03  0.36982327386E+03  0.55894608548E+03  0.00000000000E+00 0.  1.
         13    1    5    5    0    0  0.27241723861E+03  0.36143544634E+03  0.24258003558E+03  0.51350930607E+03  0.00000000000E+00 0. -1.
        -13    1    5    5    0    0  0.19089800666E+03  0.15255614540E+03  0.16628002874E+03  0.29557482032E+03  0.00000000000E+00 0.  1.
          3    1    6    6  503    0 -0.66984429139E+02 -0.10759230454E+03  0.15489709462E+03  0.20014026997E+03  0.00000000000E+00 0. -1.
         -3    1    6    6    0  503  0.45505665887E+00 -0.14855024697E+03  0.26620948612E+03  0.30485221576E+03  0.00000000000E+00 0.  1.
<mgrwt>
<rscale>  0 0.15004358E+04</rscale>
<asrwt>0</asrwt>
<pdfrwt beam="1">  1        1 0.25173298E+00 0.15004358E+04</pdfrwt>
<pdfrwt beam="2">  1       -2 0.52918557E-01 0.15004358E+04</pdfrwt>
<totfact> 0.15066243E+01</totfact>
</mgrwt>
</event>
<event>
12    5  0.5041746E-008  0.1275576E+04  0.7818608E-02  0.9049161E-01
          1   -1    0    0  501    0  0.00000000000E+00  0.00000000000E+00  0.31995474429E+03  0.31995474429E+03  0.00000000000E+00 0. -1.
         -2   -1    0    0    0  501 -0.00000000000E+00 -0.00000000000E+00 -0.12713465836E+04  0.12713465836E+04  0.00000000000E+00 0.  1.
        -24    2    1    2    0    0 -0.17166506008E+03 -0.19337641154E+03 -0.20222858685E+02  0.27139158422E+03  0.79881778770E+02 0.  0.
        254    2    1    2    0    0  0.17166506008E+03  0.19337641154E+03 -0.93116898060E+03  0.13199097437E+04  0.89901208644E+03 0.  0.
         23    2    4    4    0    0  0.30009183569E+03  0.19856242866E+03 -0.10556351192E+04  0.11190187123E+04  0.91406923603E+02 0.  0.
         23    2    4    4    0    0 -0.12842677562E+03 -0.51860171221E+01  0.12446613858E+03  0.20089103136E+03  0.91351274531E+02 0.  0.
          1    1    3    3  502    0 -0.11184698253E+03 -0.17561623438E+03 -0.13868437970E+02  0.20866993758E+03  0.00000000000E+00 0. -1.
         -2    1    3    3    0  502 -0.59818077544E+02 -0.17760177160E+02 -0.63544207153E+01  0.62721646634E+02  0.00000000000E+00 0.  1.
         13    1    5    5    0    0  0.55758654571E+02  0.47241462761E+02 -0.34131577955E+03  0.34905192269E+03  0.00000000000E+00 0.  1.
        -13    1    5    5    0    0  0.24433318112E+03  0.15132096590E+03 -0.71431933964E+03  0.76996678961E+03  0.00000000000E+00 0. -1.
          3    1    6    6  503    0 -0.99533370445E+02 -0.28639248118E+02  0.44572578972E+02  0.11275554603E+03  0.00000000000E+00 0. -1.
         -3    1    6    6    0  503 -0.28893405170E+02  0.23453230996E+02  0.79893559612E+02  0.88135485327E+02  0.00000000000E+00 0.  1.
<mgrwt>
<rscale>  0 0.12755757E+04</rscale>
<asrwt>0</asrwt>
<pdfrwt beam="1">  1        1 0.49223806E-01 0.12755757E+04</pdfrwt>
<pdfrwt beam="2">  1       -2 0.19559178E+00 0.12755757E+04</pdfrwt>
<totfact> 0.98408510E+00</totfact>
</mgrwt>
</event>
<event>
12    5  0.5041746E-008  0.1886121E+04  0.7818608E-02  0.8661796E-01
         -4   -1    0    0    0  501 -0.00000000000E+00  0.00000000000E+00  0.60319517742E+03  0.60319517742E+03  0.00000000000E+00 0.  1.
          3   -1    0    0  501    0  0.00000000000E+00 -0.00000000000E+00 -0.14744203623E+04  0.14744203623E+04  0.00000000000E+00 0. -1.
        -24    2    1    2    0    0 -0.60813082267E+03  0.39232771644E+03 -0.28546716784E+03  0.78205052076E+03  0.79795855442E+02 0.  0.
        254    2    1    2    0    0  0.60813082267E+03 -0.39232771644E+03 -0.58575801703E+03  0.12955650190E+04  0.90090628217E+03 0.  0.
         23    2    4    4    0    0  0.14251100747E+02 -0.38378261436E+03 -0.57207342361E+03  0.69473535376E+03  0.88865183369E+02 0.  0.
         23    2    4    4    0    0  0.59387972192E+03 -0.85451020813E+01 -0.13684593422E+02  0.60082966519E+03  0.89682080700E+02 0.  0.
          1    1    3    3  502    0 -0.20695718195E+02  0.19844535856E+02  0.34101657202E+01  0.28874687621E+02  0.00000000000E+00 0. -1.
         -2    1    3    3    0  502 -0.58743510447E+03  0.37248318058E+03 -0.28887733356E+03  0.75317583314E+03  0.00000000000E+00 0.  1.
         13    1    5    5    0    0  0.17484401750E+02 -0.12208426644E+03 -0.11829051940E+03  0.17088861694E+03  0.00000000000E+00 0. -1.
        -13    1    5    5    0    0 -0.32333010035E+01 -0.26169834791E+03 -0.45378290421E+03  0.52384673683E+03  0.00000000000E+00 0.  1.
          4    1    6    6  503    0  0.33986532506E+03  0.17562650160E+02 -0.46103369177E+02  0.34342743995E+03  0.00000000000E+00 0. -1.
         -4    1    6    6    0  503  0.25401439686E+03 -0.26107752241E+02  0.32418775755E+02  0.25740222524E+03  0.00000000000E+00 0.  1.
<mgrwt>
<rscale>  0 0.18861212E+04</rscale>
<asrwt>0</asrwt>
<pdfrwt beam="1">  1        3 0.22683390E+00 0.18861212E+04</pdfrwt>
<pdfrwt beam="2">  1       -4 0.92799258E-01 0.18861212E+04</pdfrwt>
<totfact> 0.21367327E-01</totfact>
</mgrwt>
</event>
<event>
12    5  0.5041746E-008  0.1517691E+04  0.7818608E-02  0.8872773E-01
         -2   -1    0    0    0  501 -0.00000000000E+00  0.00000000000E+00  0.53015438786E+03  0.53015438786E+03  0.00000000000E+00 0.  1.
          1   -1    0    0  501    0  0.00000000000E+00 -0.00000000000E+00 -0.10861860741E+04  0.10861860741E+04  0.00000000000E+00 0. -1.
        -24    2    1    2    0    0  0.17195126923E+03 -0.41864530312E+03 -0.37904892988E+03  0.59564265495E+03  0.79252459505E+02 0.  0.
        254    2    1    2    0    0 -0.17195126923E+03  0.41864530312E+03 -0.17698275641E+03  0.10206978071E+04  0.89759121456E+03 0.  0.
         23    2    4    4    0    0 -0.13149364441E+03  0.72756156504E+02 -0.50393411134E+03  0.53334936268E+03  0.89038852583E+02 0.  0.
         23    2    4    4    0    0 -0.40457624819E+02  0.34588914662E+03  0.32695135493E+03  0.48734844439E+03  0.96618821160E+02 0.  0.
          3    1    3    3  502    0  0.17204319226E+02 -0.75966332444E+02 -0.32840254462E+02  0.84530199208E+02  0.00000000000E+00 0. -1.
         -4    1    3    3    0  502  0.15474695001E+03 -0.34267897068E+03 -0.34620867542E+03  0.51111245574E+03  0.00000000000E+00 0.  1.
         13    1    5    5    0    0 -0.11306532566E+03  0.16750265282E+02 -0.36330362545E+03  0.38085937499E+03  0.00000000000E+00 0.  1.
        -13    1    5    5    0    0 -0.18428318751E+02  0.56005891222E+02 -0.14063048588E+03  0.15248998768E+03  0.00000000000E+00 0. -1.
          1    1    6    6  503    0  0.26060063204E+02  0.38338877311E+02  0.49756625923E+02  0.68005280905E+02  0.00000000000E+00 0. -1.
         -1    1    6    6    0  503 -0.66517688023E+02  0.30755026931E+03  0.27719472901E+03  0.41934316348E+03  0.00000000000E+00 0.  1.
<mgrwt>
<rscale>  0 0.15176908E+04</rscale>
<asrwt>0</asrwt>
<pdfrwt beam="1">  1        1 0.16710555E+00 0.15176908E+04</pdfrwt>
<pdfrwt beam="2">  1       -2 0.81562214E-01 0.15176908E+04</pdfrwt>
<totfact> 0.14557123E+01</totfact>
</mgrwt>
</event>
<event>
12    5  0.5041746E-008  0.1599178E+04  0.7818608E-02  0.8821053E-01
          1   -1    0    0  501    0  0.00000000000E+00  0.00000000000E+00  0.14619192513E+04  0.14619192513E+04  0.00000000000E+00 0. -1.
         -2   -1    0    0    0  501 -0.00000000000E+00 -0.00000000000E+00 -0.43733120067E+03  0.43733120067E+03  0.00000000000E+00 0.  1.
        -24    2    1    2    0    0  0.28523596058E+03 -0.83258447691E+02 -0.19557343348E+03  0.36423476080E+03  0.78271775049E+02 0.  0.
        254    2    1    2    0    0 -0.28523596058E+03  0.83258447691E+02  0.12201614841E+04  0.15350156911E+04  0.88271603728E+03 0.  0.
         23    2    4    4    0    0 -0.50721657600E+03  0.48785381058E+02  0.33575721982E+03  0.61786810460E+03  0.96847383251E+02 0.  0.
         23    2    4    4    0    0  0.22198061541E+03  0.34473066633E+02  0.88440426426E+03  0.91714758654E+03  0.92330964002E+02 0.  0.
          1    1    3    3  502    0  0.15570529926E+03 -0.21886158777E+02 -0.13991205880E+03  0.21047215579E+03  0.00000000000E+00 0. -1.
         -2    1    3    3    0  502  0.12953066132E+03 -0.61372288914E+02 -0.55661374685E+02  0.15376260501E+03  0.00000000000E+00 0.  1.
         13    1    5    5    0    0 -0.43417746077E+03  0.42283728216E+02  0.24206436527E+03  0.49889191018E+03  0.00000000000E+00 0. -1.
        -13    1    5    5    0    0 -0.73039115231E+02  0.65016528414E+01  0.93692854554E+02  0.11897619442E+03  0.00000000000E+00 0.  1.
          1    1    6    6  503    0  0.22211137053E+03  0.35412481719E+02  0.75619869898E+03  0.78893851289E+03  0.00000000000E+00 0. -1.
         -1    1    6    6    0  503 -0.13075512056E+00 -0.93941508508E+00  0.12820556528E+03  0.12820907365E+03  0.00000000000E+00 0.  1.
<mgrwt>
<rscale>  0 0.15991784E+04</rscale>
<asrwt>0</asrwt>
<pdfrwt beam="1">  1        1 0.22491065E+00 0.15991784E+04</pdfrwt>
<pdfrwt beam="2">  1       -2 0.67281724E-01 0.15991784E+04</pdfrwt>
<totfact> 0.11862771E+01</totfact>
</mgrwt>
</event>
<event>
12    5  0.5041746E-008  0.2192479E+04  0.7818608E-02  0.8521565E-01
          1   -1    0    0  501    0  0.00000000000E+00  0.00000000000E+00  0.11538009448E+04  0.11538009448E+04  0.00000000000E+00 0. -1.
         -2   -1    0    0    0  501 -0.00000000000E+00 -0.00000000000E+00 -0.10415497318E+04  0.10415497318E+04  0.00000000000E+00 0.  1.
        -24    2    1    2    0    0  0.23905894340E+03  0.87097117314E+03  0.37682859330E+02  0.90742995249E+03  0.79178014217E+02 0.  0.
        254    2    1    2    0    0 -0.23905894340E+03 -0.87097117314E+03  0.74568353655E+02  0.12879207242E+04  0.91511714526E+03 0.  0.
         23    2    4    4    0    0  0.22386867600E+03 -0.61151983403E+03  0.27617890104E+03  0.71364426189E+03  0.94549752255E+02 0.  0.
         23    2    4    4    0    0 -0.46292761940E+03 -0.25945133911E+03 -0.20161054738E+03  0.57427646229E+03  0.86773637429E+02 0.  0.
          3    1    3    3  502    0  0.21075817112E+03  0.82100755887E+03  0.48433551256E+02  0.84901014558E+03  0.00000000000E+00 0. -1.
         -4    1    3    3    0  502  0.28300772284E+02  0.49963614274E+02 -0.10750691926E+02  0.58419806916E+02  0.00000000000E+00 0.  1.
         13    1    5    5    0    0  0.16503504575E+03 -0.31372290450E+03  0.14818311714E+03  0.38420940038E+03  0.00000000000E+00 0. -1.
        -13    1    5    5    0    0  0.58833630241E+02 -0.29779692953E+03  0.12799578390E+03  0.32943486152E+03  0.00000000000E+00 0.  1.
          3    1    6    6  503    0 -0.29660826243E+03 -0.21236991173E+03 -0.13242656656E+03  0.38809050012E+03  0.00000000000E+00 0. -1.
         -3    1    6    6    0  503 -0.16631935697E+03 -0.47081427380E+02 -0.69183980825E+02  0.18618596217E+03  0.00000000000E+00 0.  1.
<mgrwt>
<rscale>  0 0.21924790E+04</rscale>
<asrwt>0</asrwt>
<pdfrwt beam="1">  1        1 0.17750784E+00 0.21924790E+04</pdfrwt>
<pdfrwt beam="2">  1       -2 0.16023842E+00 0.21924790E+04</pdfrwt>
<totfact> 0.23201534E+00</totfact>
</mgrwt>
</event>
<event>
12    5  0.5041746E-008  0.1642608E+04  0.7818608E-02  0.8794792E-01
         -2   -1    0    0    0  501 -0.00000000000E+00  0.00000000000E+00  0.36238062164E+03  0.36238062164E+03  0.00000000000E+00 0.  1.
          1   -1    0    0  501    0  0.00000000000E+00 -0.00000000000E+00 -0.18614127948E+04  0.18614127948E+04  0.00000000000E+00 0. -1.
        -24    2    1    2    0    0  0.50493960503E+03 -0.53847052514E+02 -0.18126320471E+03  0.54492332262E+03  0.78876919063E+02 0.  0.
        254    2    1    2    0    0 -0.50493960503E+03  0.53847052514E+02 -0.13177689684E+04  0.16788700938E+04  0.90786905879E+03 0.  0.
         23    2    4    4    0    0  0.12052378472E+03  0.30035828166E+03 -0.27577347564E+03  0.43548248479E+03  0.94089875366E+02 0.  0.
         23    2    4    4    0    0 -0.62546338976E+03 -0.24651122914E+03 -0.10419954928E+04  0.12433876090E+04  0.91026925859E+02 0.  0.
          3    1    3    3  502    0  0.47787704381E+02  0.79235337596E+00 -0.42774709583E+02  0.64140223681E+02  0.00000000000E+00 0. -1.
         -4    1    3    3    0  502  0.45715190065E+03 -0.54639405890E+02 -0.13848849513E+03  0.48078309894E+03  0.00000000000E+00 0.  1.
         13    1    5    5    0    0  0.10390257081E+03  0.24363952735E+03 -0.17125862740E+03  0.31541319086E+03  0.00000000000E+00 0. -1.
        -13    1    5    5    0    0  0.16621213919E+02  0.56718754304E+02 -0.10451484824E+03  0.12006929393E+03  0.00000000000E+00 0.  1.
          1    1    6    6  503    0 -0.47922599586E+03 -0.19508721417E+03 -0.86655458741E+03  0.10092737137E+04  0.00000000000E+00 0. -1.
         -1    1    6    6    0  503 -0.14623739389E+03 -0.51424014975E+02 -0.17544090538E+03  0.23411389529E+03  0.00000000000E+00 0.  1.
<mgrwt>
<rscale>  0 0.16426076E+04</rscale>
<asrwt>0</asrwt>
<pdfrwt beam="1">  1        1 0.28637120E+00 0.16426076E+04</pdfrwt>
<pdfrwt beam="2">  1       -2 0.55750864E-01 0.16426076E+04</pdfrwt>
<totfact> 0.93899597E+00</totfact>
</mgrwt>
</event>
<event>
12    5  0.5041746E-008  0.1486065E+04  0.7818608E-02  0.8893773E-01
          1   -1    0    0  501    0  0.00000000000E+00  0.00000000000E+00  0.66502520894E+03  0.66502520894E+03  0.00000000000E+00 0. -1.
         -2   -1    0    0    0  501 -0.00000000000E+00 -0.00000000000E+00 -0.83019035287E+03  0.83019035287E+03  0.00000000000E+00 0.  1.
        -24    2    1    2    0    0 -0.34262986773E+03 -0.31993012246E+03 -0.10800531822E+03  0.48759165584E+03  0.79561074420E+02 0.  0.
        254    2    1    2    0    0  0.34262986773E+03  0.31993012246E+03 -0.57159825711E+02  0.10076239060E+04  0.89010571320E+03 0.  0.
         23    2    4    4    0    0  0.98612681875E+02  0.46499460824E+03 -0.34370693088E+03  0.59371265956E+03  0.91737784242E+02 0.  0.
         23    2    4    4    0    0  0.24401718586E+03 -0.14506448578E+03  0.28654710517E+03  0.41391124641E+03  0.92871870830E+02 0.  0.
          1    1    3    3  502    0 -0.19721243452E+03 -0.18097510160E+03 -0.10177537949E+03  0.28636158890E+03  0.00000000000E+00 0. -1.
         -2    1    3    3    0  502 -0.14541743321E+03 -0.13895502086E+03 -0.62299387357E+01  0.20123006694E+03  0.00000000000E+00 0.  1.
         13    1    5    5    0    0  0.92940702693E+02  0.22811844475E+03 -0.15771510055E+03  0.29248940493E+03  0.00000000000E+00 0.  1.
        -13    1    5    5    0    0  0.56719791824E+01  0.23687616349E+03 -0.18599183034E+03  0.30122325463E+03  0.00000000000E+00 0. -1.
          3    1    6    6  503    0  0.15428253280E+03 -0.39463445597E+02  0.13752184954E+03  0.21041084232E+03  0.00000000000E+00 0. -1.
         -3    1    6    6    0  503  0.89734653060E+02 -0.10560104019E+03  0.14902525563E+03  0.20350040409E+03  0.00000000000E+00 0.  1.
<mgrwt>
<rscale>  0 0.14860653E+04</rscale>
<asrwt>0</asrwt>
<pdfrwt beam="1">  1        1 0.10231157E+00 0.14860653E+04</pdfrwt>
<pdfrwt beam="2">  1       -2 0.12772159E+00 0.14860653E+04</pdfrwt>
<totfact> 0.11330482E+01</totfact>
</mgrwt>
</event>
<event>
12    5  0.5041746E-008  0.1291630E+04  0.7818608E-02  0.9036229E-01
         -2   -1    0    0    0  501 -0.00000000000E+00  0.00000000000E+00  0.54114025056E+03  0.54114025056E+03  0.00000000000E+00 0.  1.
          1   -1    0    0  501    0  0.00000000000E+00 -0.00000000000E+00 -0.77073784247E+03  0.77073784247E+03  0.00000000000E+00 0. -1.
        -24    2    1    2    0    0 -0.84721017264E+02 -0.24626037801E+03  0.13935307498E+03  0.30472799001E+03  0.74953611279E+02 0.  0.
        254    2    1    2    0    0  0.84721017264E+02  0.24626037801E+03 -0.36895066689E+03  0.10071501030E+04  0.90022492239E+03 0.  0.
         23    2    4    4    0    0  0.48066644992E+03  0.19113785711E+03 -0.24170019538E+03  0.57735853636E+03  0.85732016008E+02 0.  0.
         23    2    4    4    0    0 -0.39594543265E+03  0.55122520898E+02 -0.12725047151E+03  0.42979156667E+03  0.93363966978E+02 0.  0.
          1    1    3    3  502    0 -0.41320288332E+01 -0.11331921995E+01 -0.69040126796E+01  0.81254647818E+01  0.00000000000E+00 0. -1.
         -2    1    3    3    0  502 -0.80588988431E+02 -0.24512718581E+03  0.14625708766E+03  0.29660252522E+03  0.00000000000E+00 0.  1.
         13    1    5    5    0    0  0.85355531193E+00 -0.35280237310E+01 -0.89431217126E+01  0.96516803762E+01  0.00000000000E+00 0. -1.
        -13    1    5    5    0    0  0.47981289460E+03  0.19466588084E+03 -0.23275707367E+03  0.56770685599E+03  0.00000000000E+00 0.  1.
          3    1    6    6  503    0 -0.44860957841E+02  0.33835693634E+01  0.15062991885E+02  0.47443100706E+02  0.00000000000E+00 0. -1.
         -3    1    6    6    0  503 -0.35108447481E+03  0.51738951535E+02 -0.14231346339E+03  0.38234846596E+03  0.00000000000E+00 0.  1.
<mgrwt>
<rscale>  0 0.12916304E+04</rscale>
<asrwt>0</asrwt>
<pdfrwt beam="1">  1        1 0.11857505E+00 0.12916304E+04</pdfrwt>
<pdfrwt beam="2">  1       -2 0.83252347E-01 0.12916304E+04</pdfrwt>
<totfact> 0.25531153E+01</totfact>
</mgrwt>
</event>
<event>
12    5  0.5041746E-008  0.1158675E+04  0.7818608E-02  0.9149818E-01
          1   -1    0    0  501    0  0.00000000000E+00  0.00000000000E+00  0.20536361618E+04  0.20536361618E+04  0.00000000000E+00 0. -1.
         -4   -1    0    0    0  501 -0.00000000000E+00 -0.00000000000E+00 -0.16343291820E+03  0.16343291820E+03  0.00000000000E+00 0.  1.
        -24    2    1    2    0    0 -0.91581373985E+02 -0.20672486086E+03  0.26202714701E+03  0.35515683352E+03  0.79723487543E+02 0.  0.
        254    2    1    2    0    0  0.91581373985E+02  0.20672486086E+03  0.16281760966E+04  0.18619122465E+04  0.87443552988E+03 0.  0.
         23    2    4    4    0    0  0.22298324668E+03 -0.10696805991E+02  0.15661179240E+04  0.15845019915E+04  0.89918070185E+02 0.  0.
         23    2    4    4    0    0 -0.13140187270E+03  0.21742166685E+03  0.62058172621E+02  0.27741025497E+03  0.92555925861E+02 0.  0.
          1    1    3    3  502    0 -0.43677025282E+02 -0.65866147809E+02  0.14772645599E+03  0.16753846652E+03  0.00000000000E+00 0. -1.
         -2    1    3    3    0  502 -0.47904348703E+02 -0.14085871305E+03  0.11430069102E+03  0.18761836699E+03  0.00000000000E+00 0.  1.
         13    1    5    5    0    0  0.14594460087E+03  0.36338707194E+02  0.98383717739E+03  0.99526675810E+03  0.00000000000E+00 0. -1.
        -13    1    5    5    0    0  0.77038645811E+02 -0.47035513185E+02  0.58228074656E+03  0.58923523339E+03  0.00000000000E+00 0.  1.
          2    1    6    6  503    0 -0.97126115600E+02  0.82763493240E+02  0.65268375081E+01  0.12777275826E+03  0.00000000000E+00 0. -1.
         -2    1    6    6    0  503 -0.34275757098E+02  0.13465817361E+03  0.55531335113E+02  0.14963749672E+03  0.00000000000E+00 0.  1.
<mgrwt>
<rscale>  0 0.11586747E+04</rscale>
<asrwt>0</asrwt>
<pdfrwt beam="1">  1        1 0.31594401E+00 0.11586747E+04</pdfrwt>
<pdfrwt beam="2">  1       -4 0.25143527E-01 0.11586747E+04</pdfrwt>
<totfact> 0.20458049E+01</totfact>
</mgrwt>
</event>
<event>
12    5  0.5041746E-008  0.1190834E+04  0.7818608E-02  0.9120917E-01
          3   -1    0    0  501    0  0.00000000000E+00  0.00000000000E+00  0.51979509263E+03  0.51979509263E+03  0.00000000000E+00 0. -1.
         -4   -1    0    0    0  501 -0.00000000000E+00 -0.00000000000E+00 -0.68204126208E+03  0.68204126208E+03  0.00000000000E+00 0.  1.
        -24    2    1    2    0    0  0.19098632384E+03  0.15791397104E+03 -0.68973263860E+02  0.26960727300E+03  0.80735199156E+02 0.  0.
        254    2    1    2    0    0 -0.19098632384E+03 -0.15791397104E+03 -0.93272905583E+02  0.93222908171E+03  0.89383366893E+03 0.  0.
         23    2    4    4    0    0  0.10287455660E+03  0.11185939399E+03  0.31042178974E+03  0.35739033186E+03  0.90942087817E+02 0.  0.
         23    2    4    4    0    0 -0.29386088044E+03 -0.26977336503E+03 -0.40369469532E+03  0.57483874985E+03  0.91314269206E+02 0.  0.
          1    1    3    3  502    0  0.90116444741E+01  0.41583712122E+02  0.10421962795E+01  0.42561731909E+02  0.00000000000E+00 0. -1.
         -2    1    3    3    0  502  0.18197467937E+03  0.11633025892E+03 -0.70015460140E+02  0.22704554109E+03  0.00000000000E+00 0.  1.
         13    1    5    5    0    0  0.88906706147E+02  0.46373446361E+02  0.24055643498E+03  0.26061906556E+03  0.00000000000E+00 0.  1.
        -13    1    5    5    0    0  0.13967850454E+02  0.65485947633E+02  0.69865354765E+02  0.96771266294E+02  0.00000000000E+00 0. -1.
          3    1    6    6  503    0  0.46249820854E+00 -0.47717760020E+01  0.41503107268E+01  0.63410432844E+01  0.00000000000E+00 0. -1.
         -3    1    6    6    0  503 -0.29432337865E+03 -0.26500158903E+03 -0.40784500605E+03  0.56849770657E+03  0.00000000000E+00 0.  1.
<mgrwt>
<rscale>  0 0.11908345E+04</rscale>
<asrwt>0</asrwt>
<pdfrwt beam="1">  1        3 0.79968476E-01 0.11908345E+04</pdfrwt>
<pdfrwt beam="2">  1       -4 0.10492943E+00 0.11908345E+04</pdfrwt>
<totfact> 0.24178687E+00</totfact>
</mgrwt>
</event>
<event>
12    5  0.5041746E-008  0.1586046E+04  0.7818608E-02  0.8829167E-01
         -4   -1    0    0    0  501 -0.00000000000E+00  0.00000000000E+00  0.57972583956E+03  0.57972583956E+03  0.00000000000E+00 0.  1.
          3   -1    0    0  501    0  0.00000000000E+00 -0.00000000000E+00 -0.10847976769E+04  0.10847976769E+04  0.00000000000E+00 0. -1.
        -24    2    1    2    0    0  0.31261367548E+03 -0.19158914110E+03  0.23774948552E+03  0.44376218969E+03  0.77242177931E+02 0.  0.
        254    2    1    2    0    0 -0.31261367548E+03  0.19158914110E+03 -0.74282132286E+03  0.12207613268E+04  0.89668332770E+03 0.  0.
         23    2    4    4    0    0 -0.11491153404E+03  0.12357665140E+03  0.18638929777E+03  0.26382586131E+03  0.79920368760E+02 0.  0.
         23    2    4    4    0    0 -0.19770214144E+03  0.68012489697E+02 -0.92921062063E+03  0.95693546547E+03  0.92635155807E+02 0.  0.
          1    1    3    3  502    0  0.80348510914E+02 -0.49580820202E+02  0.10393050610E+03  0.14041257435E+03  0.00000000000E+00 0. -1.
         -2    1    3    3    0  502  0.23226516456E+03 -0.14200832090E+03  0.13381897942E+03  0.30334961534E+03  0.00000000000E+00 0.  1.
         13    1    5    5    0    0 -0.10213253183E+03  0.54900275457E+02  0.10349649655E+03  0.15542399783E+03  0.00000000000E+00 0. -1.
        -13    1    5    5    0    0 -0.12779002205E+02  0.68676375944E+02  0.82892801221E+02  0.10840186347E+03  0.00000000000E+00 0.  1.
          1    1    6    6  503    0 -0.20702724399E+02  0.38483691295E+02 -0.11129638496E+03  0.11956789953E+03  0.00000000000E+00 0. -1.
         -1    1    6    6    0  503 -0.17699941704E+03  0.29528798401E+02 -0.81791423567E+03  0.83736756594E+03  0.00000000000E+00 0.  1.
<mgrwt>
<rscale>  0 0.15860457E+04</rscale>
<asrwt>0</asrwt>
<pdfrwt beam="1">  1        3 0.16689195E+00 0.15860457E+04</pdfrwt>
<pdfrwt beam="2">  1       -4 0.89188591E-01 0.15860457E+04</pdfrwt>
<totfact> 0.58026854E-01</totfact>
</mgrwt>
</event>
<event>
12    5  0.5041746E-008  0.1988323E+04  0.7818608E-02  0.8612100E-01
         -2   -1    0    0    0  501 -0.00000000000E+00  0.00000000000E+00  0.64296821178E+03  0.64296821178E+03  0.00000000000E+00 0.  1.
          1   -1    0    0  501    0  0.00000000000E+00 -0.00000000000E+00 -0.15371781705E+04  0.15371781705E+04  0.00000000000E+00 0. -1.
        -24    2    1    2    0    0  0.29198845937E+03 -0.73279306312E+03 -0.34881332926E+03  0.86579720632E+03  0.75439578712E+02 0.  0.
        254    2    1    2    0    0 -0.29198845937E+03  0.73279306312E+03 -0.54539662943E+03  0.13143491759E+04  0.89878436743E+03 0.  0.
         23    2    4    4    0    0 -0.19315493782E+03 -0.68908770972E+02 -0.44177458310E+03  0.49506209060E+03  0.88681692335E+02 0.  0.
         23    2    4    4    0    0 -0.98833521559E+02  0.80170183409E+03 -0.10362204633E+03  0.81928708534E+03  0.89442182169E+02 0.  0.
          3    1    3    3  502    0  0.26757852779E+02 -0.14556293150E+03 -0.60644669505E+02  0.15994475812E+03  0.00000000000E+00 0. -1.
         -4    1    3    3    0  502  0.26523060660E+03 -0.58723013162E+03 -0.28816865976E+03  0.70585244820E+03  0.00000000000E+00 0.  1.
         13    1    5    5    0    0 -0.19112311115E+03 -0.68932863265E+02 -0.44615199622E+03  0.49023605231E+03  0.00000000000E+00 0.  1.
        -13    1    5    5    0    0 -0.20318266618E+01  0.24092292998E-01  0.43774131144E+01  0.48260382921E+01  0.00000000000E+00 0. -1.
          1    1    6    6  503    0 -0.62702640868E+02  0.21004002642E+03 -0.43582943293E+02  0.22349028349E+03  0.00000000000E+00 0. -1.
         -1    1    6    6    0  503 -0.36130880691E+02  0.59166180767E+03 -0.60039103036E+02  0.59579680185E+03  0.00000000000E+00 0.  1.
<mgrwt>
<rscale>  0 0.19883226E+04</rscale>
<asrwt>0</asrwt>
<pdfrwt beam="1">  1        1 0.23648895E+00 0.19883226E+04</pdfrwt>
<pdfrwt beam="2">  1       -2 0.98918187E-01 0.19883226E+04</pdfrwt>
<totfact> 0.42589380E+00</totfact>
</mgrwt>
</event>
<event>
12    5  0.5041746E-008  0.2014817E+04  0.7818608E-02  0.8599724E-01
         -2   -1    0    0    0  501 -0.00000000000E+00  0.00000000000E+00  0.83863169614E+03  0.83863169614E+03  0.00000000000E+00 0.  1.
          1   -1    0    0  501    0  0.00000000000E+00 -0.00000000000E+00 -0.12101518500E+04  0.12101518500E+04  0.00000000000E+00 0. -1.
        -24    2    1    2    0    0  0.44547565541E+03  0.18637115658E+03  0.51180009775E+03  0.70818494654E+03  0.80023814390E+02 0.  0.
        254    2    1    2    0    0 -0.44547565541E+03 -0.18637115658E+03 -0.88332025160E+03  0.13405985996E+04  0.88530625819E+03 0.  0.
         23    2    4    4    0    0  0.22485743899E+03 -0.63622638340E+02 -0.48360642529E+03  0.54482013376E+03  0.91351494762E+02 0.  0.
         23    2    4    4    0    0 -0.67033309440E+03 -0.12274851824E+03 -0.39971382631E+03  0.79577846584E+03  0.95281517414E+02 0.  0.
          1    1    3    3  502    0  0.10091588297E+03  0.97157116786E+01  0.89441811402E+02  0.13519707141E+03  0.00000000000E+00 0. -1.
         -2    1    3    3    0  502  0.34455977244E+03  0.17665544491E+03  0.42235828635E+03  0.57298787513E+03  0.00000000000E+00 0.  1.
         13    1    5    5    0    0  0.19073486178E+02 -0.17096602647E+02 -0.13447804269E+03  0.13689571090E+03  0.00000000000E+00 0. -1.
        -13    1    5    5    0    0  0.20578395281E+03 -0.46526035693E+02 -0.34912838259E+03  0.40792442286E+03  0.00000000000E+00 0.  1.
          3    1    6    6  503    0 -0.70592916280E+02  0.32848558038E+01 -0.15160164905E+02  0.72277110530E+02  0.00000000000E+00 0. -1.
         -3    1    6    6    0  503 -0.59974017812E+03 -0.12603337405E+03 -0.38455366141E+03  0.72350135531E+03  0.00000000000E+00 0.  1.
<mgrwt>
<rscale>  0 0.20148168E+04</rscale>
<asrwt>0</asrwt>
<pdfrwt beam="1">  1        1 0.18617721E+00 0.20148168E+04</pdfrwt>
<pdfrwt beam="2">  1       -2 0.12902026E+00 0.20148168E+04</pdfrwt>
<totfact> 0.37794948E+00</totfact>
</mgrwt>
</event>
<event>
12    5  0.5041746E-008  0.1285987E+04  0.7818608E-02  0.9040752E-01
         -2   -1    0    0    0  501 -0.00000000000E+00  0.00000000000E+00  0.31749820844E+03  0.31749820844E+03  0.00000000000E+00 0.  1.
          1   -1    0    0  501    0  0.00000000000E+00 -0.00000000000E+00 -0.13021831504E+04  0.13021831504E+04  0.00000000000E+00 0. -1.
        -24    2    1    2    0    0 -0.27638969848E+03 -0.60988667589E+02 -0.66952736625E+02  0.30437708407E+03  0.89732142318E+02 0.  0.
        254    2    1    2    0    0  0.27638969848E+03  0.60988667589E+02 -0.91773220537E+03  0.13153042748E+04  0.89871132827E+03 0.  0.
         23    2    4    4    0    0 -0.56338989976E+01  0.29852762436E+03  0.10705045047E+02  0.31217479511E+03  0.90487686413E+02 0.  0.
         23    2    4    4    0    0  0.28202359748E+03 -0.23753895677E+03 -0.92843725041E+03  0.10031294797E+04  0.91164464340E+02 0.  0.
          3    1    3    3  502    0 -0.10400917325E+01 -0.51203374580E+01 -0.18557794908E+02  0.19279299736E+02  0.00000000000E+00 0. -1.
         -4    1    3    3    0  502 -0.27534960675E+03 -0.55868330131E+02 -0.48394941718E+02  0.28509778434E+03  0.00000000000E+00 0.  1.
         13    1    5    5    0    0  0.28776390041E+02  0.13081474260E+03  0.37004425168E+02  0.13896008415E+03  0.00000000000E+00 0. -1.
        -13    1    5    5    0    0 -0.34410289039E+02  0.16771288175E+03 -0.26299380121E+02  0.17321471096E+03  0.00000000000E+00 0.  1.
          4    1    6    6  503    0  0.10372850809E+03 -0.33917110285E+02 -0.27427351056E+03  0.29518796106E+03  0.00000000000E+00 0. -1.
         -4    1    6    6    0  503  0.17829508940E+03 -0.20362184648E+03 -0.65416373986E+03  0.70794151864E+03  0.00000000000E+00 0.  1.
<mgrwt>
<rscale>  0 0.12859873E+04</rscale>
<asrwt>0</asrwt>
<pdfrwt beam="1">  1        1 0.20033587E+00 0.12859873E+04</pdfrwt>
<pdfrwt beam="2">  1       -2 0.48845879E-01 0.12859873E+04</pdfrwt>
<totfact> 0.30858278E+01</totfact>
</mgrwt>
</event>
<event>
12    5  0.5041746E-008  0.1925461E+04  0.7818608E-02  0.8642286E-01
          1   -1    0    0  501    0  0.00000000000E+00  0.00000000000E+00  0.22001847587E+04  0.22001847587E+04  0.00000000000E+00 0. -1.
         -2   -1    0    0    0  501 -0.00000000000E+00 -0.00000000000E+00 -0.42125989208E+03  0.42125989208E+03  0.00000000000E+00 0.  1.
        -24    2    1    2    0    0 -0.35706051322E+03  0.62997451896E+03  0.59618348082E+03  0.94132444226E+03  0.79352745082E+02 0.  0.
        254    2    1    2    0    0  0.35706051322E+03 -0.62997451896E+03  0.11827413858E+04  0.16801202085E+04  0.94845486172E+03 0.  0.
         23    2    4    4    0    0  0.62978755022E+03 -0.53584915021E+03  0.60979347964E+03  0.10320106250E+04  0.97114221681E+02 0.  0.
         23    2    4    4    0    0 -0.27272703701E+03 -0.94125368753E+02  0.57294790616E+03  0.64810958353E+03  0.92396468209E+02 0.  0.
          1    1    3    3  502    0 -0.12444750622E+03  0.19769817812E+03  0.23927696873E+03  0.33440277990E+03  0.00000000000E+00 0. -1.
         -2    1    3    3    0  502 -0.23261300700E+03  0.43227634084E+03  0.35690651209E+03  0.60692166236E+03  0.00000000000E+00 0.  1.
         13    1    5    5    0    0  0.61023447012E+03 -0.52457033371E+03  0.60942460148E+03  0.10094347371E+04  0.00000000000E+00 0.  1.
        -13    1    5    5    0    0  0.19553080103E+02 -0.11278816499E+02  0.36887815725E+00  0.22575887894E+02  0.00000000000E+00 0. -1.
          4    1    6    6  503    0 -0.27457586516E+02 -0.44651993452E+02  0.88379006343E+02  0.10275489448E+03  0.00000000000E+00 0. -1.
         -4    1    6    6    0  503 -0.24526945049E+03 -0.49473375302E+02  0.48456889982E+03  0.54535468906E+03  0.00000000000E+00 0.  1.
<mgrwt>
<rscale>  0 0.19254606E+04</rscale>
<asrwt>0</asrwt>
<pdfrwt beam="1">  1        1 0.33848996E+00 0.19254606E+04</pdfrwt>
<pdfrwt beam="2">  1       -2 0.64809215E-01 0.19254606E+04</pdfrwt>
<totfact> 0.39240893E+00</totfact>
</mgrwt>
</event>
<event>
12    5  0.5041746E-008  0.1140963E+04  0.7818608E-02  0.9166161E-01
         -2   -1    0    0    0  501 -0.00000000000E+00  0.00000000000E+00  0.15672352125E+04  0.15672352125E+04  0.00000000000E+00 0.  1.
          1   -1    0    0  501    0  0.00000000000E+00 -0.00000000000E+00 -0.20765819116E+03  0.20765819116E+03  0.00000000000E+00 0. -1.
        -24    2    1    2    0    0 -0.87577298056E+02  0.16987304641E+02  0.53716194060E+03  0.55049917261E+03  0.80919941734E+02 0.  0.
        254    2    1    2    0    0  0.87577298056E+02 -0.16987304641E+02  0.82241508080E+03  0.12243942311E+04  0.90267176557E+03 0.  0.
         23    2    4    4    0    0 -0.14290924524E+03 -0.13778174197E+03 -0.11566668672E+03  0.24673507559E+03  0.89958625560E+02 0.  0.
         23    2    4    4    0    0  0.23048654330E+03  0.12079443733E+03  0.93808176752E+03  0.97765915550E+03  0.90025991033E+02 0.  0.
          1    1    3    3  502    0  0.15008704900E+02 -0.15923502275E+01  0.96452198779E+02  0.97625936366E+02  0.00000000000E+00 0. -1.
         -4    1    3    3    0  502 -0.10258600296E+03  0.18579654868E+02  0.44070974182E+03  0.45287323625E+03  0.00000000000E+00 0.  1.
         13    1    5    5    0    0  0.39407146802E+01 -0.42779924347E+02 -0.20144085719E+02  0.47449292395E+02  0.00000000000E+00 0. -1.
        -13    1    5    5    0    0 -0.14684995992E+03 -0.95001817623E+02 -0.95522600999E+02  0.19928578319E+03  0.00000000000E+00 0.  1.
          3    1    6    6  503    0  0.50525823372E+02  0.60342411872E+02  0.18555973371E+03  0.20156011578E+03  0.00000000000E+00 0. -1.
         -3    1    6    6    0  503  0.17996071993E+03  0.60452025457E+02  0.75252203381E+03  0.77609903973E+03  0.00000000000E+00 0.  1.
<mgrwt>
<rscale>  0 0.11409632E+04</rscale>
<asrwt>0</asrwt>
<pdfrwt beam="1">  1        1 0.31947415E-01 0.11409632E+04</pdfrwt>
<pdfrwt beam="2">  1       -2 0.24111310E+00 0.11409632E+04</pdfrwt>
<totfact> 0.89696361E+00</totfact>
</mgrwt>
</event>
<event>
12    5  0.5041746E-008  0.2007183E+04  0.7818608E-02  0.8603270E-01
          1   -1    0    0  501    0  0.00000000000E+00  0.00000000000E+00  0.21983414690E+04  0.21983414690E+04  0.00000000000E+00 0. -1.
         -2   -1    0    0    0  501 -0.00000000000E+00 -0.00000000000E+00 -0.45816150030E+03  0.45816150030E+03  0.00000000000E+00 0.  1.
        -24    2    1    2    0    0 -0.48652868161E+03  0.19938822165E+03 -0.10619166168E+03  0.54245830164E+03  0.80737346067E+02 0.  0.
        254    2    1    2    0    0  0.48652868161E+03 -0.19938822165E+03  0.18463716304E+04  0.21140446677E+04  0.88522925757E+03 0.  0.
         23    2    4    4    0    0  0.34898852857E+03 -0.92616175904E+01  0.18257523665E+04  0.18612613766E+04  0.95096991412E+02 0.  0.
         23    2    4    4    0    0  0.13754015304E+03 -0.19012660406E+03  0.20619263906E+02  0.25278329105E+03  0.91699612426E+02 0.  0.
          1    1    3    3  502    0 -0.14562642395E+02 -0.77673051231E+01 -0.43128811815E+01  0.17058796161E+02  0.00000000000E+00 0. -1.
         -2    1    3    3    0  502 -0.47196603922E+03  0.20715552677E+03 -0.10187878050E+03  0.52539950548E+03  0.00000000000E+00 0.  1.
         13    1    5    5    0    0  0.31103469473E+03  0.14829844981E+02  0.14656067030E+04  0.14983208980E+04  0.00000000000E+00 0. -1.
        -13    1    5    5    0    0  0.37953833848E+02 -0.24091462571E+02  0.36014566349E+03  0.36294047859E+03  0.00000000000E+00 0.  1.
          4    1    6    6  503    0  0.11965453887E+03 -0.14095328032E+03 -0.20787348710E+02  0.18605684554E+03  0.00000000000E+00 0. -1.
         -4    1    6    6    0  503  0.17885614168E+02 -0.49173323739E+02  0.41406612616E+02  0.66726445507E+02  0.00000000000E+00 0.  1.
<mgrwt>
<rscale>  0 0.20071825E+04</rscale>
<asrwt>0</asrwt>
<pdfrwt beam="1">  1        1 0.33820637E+00 0.20071825E+04</pdfrwt>
<pdfrwt beam="2">  1       -2 0.70486386E-01 0.20071825E+04</pdfrwt>
<totfact> 0.32568771E+00</totfact>
</mgrwt>
</event>
<event>
12    5  0.5041746E-008  0.1253130E+04  0.7818608E-02  0.9067583E-01
          1   -1    0    0  501    0  0.00000000000E+00  0.00000000000E+00  0.90432424484E+03  0.90432424484E+03  0.00000000000E+00 0. -1.
         -2   -1    0    0    0  501 -0.00000000000E+00 -0.00000000000E+00 -0.43411799230E+03  0.43411799230E+03  0.00000000000E+00 0.  1.
        -24    2    1    2    0    0 -0.40219996722E+01  0.71446101985E+02 -0.18660062576E+03  0.21535349520E+03  0.80228501124E+02 0.  0.
        254    2    1    2    0    0  0.40219996722E+01 -0.71446101985E+02  0.65680687830E+03  0.11230887419E+04  0.90819178862E+03 0.  0.
         23    2    4    4    0    0 -0.37033713229E+03 -0.19349803719E+03  0.10709566880E+03  0.44081198394E+03  0.90855054646E+02 0.  0.
         23    2    4    4    0    0  0.37435913196E+03  0.12205193521E+03  0.54971120950E+03  0.68227675800E+03  0.90982009692E+02 0.  0.
          1    1    3    3  502    0  0.75121889066E+01 -0.19587085895E+01 -0.10384152045E+03  0.10413131561E+03  0.00000000000E+00 0. -1.
         -2    1    3    3    0  502 -0.11534188579E+02  0.73404810574E+02 -0.82759105306E+02  0.11122217959E+03  0.00000000000E+00 0.  1.
         13    1    5    5    0    0 -0.43001778286E+02 -0.24548763413E+02 -0.16615465011E+02  0.52228999593E+02  0.00000000000E+00 0. -1.
        -13    1    5    5    0    0 -0.32733535400E+03 -0.16894927378E+03  0.12371113381E+03  0.38858298434E+03  0.00000000000E+00 0.  1.
          2    1    6    6  503    0  0.91466132393E+02  0.72541127264E+02  0.14938609653E+03  0.18959028022E+03  0.00000000000E+00 0. -1.
         -2    1    6    6    0  503  0.28289299957E+03  0.49510807946E+02  0.40032511297E+03  0.49268647778E+03  0.00000000000E+00 0.  1.
<mgrwt>
<rscale>  0 0.12531296E+04</rscale>
<asrwt>0</asrwt>
<pdfrwt beam="1">  1        1 0.13912681E+00 0.12531296E+04</pdfrwt>
<pdfrwt beam="2">  1       -2 0.66787384E-01 0.12531296E+04</pdfrwt>
<totfact> 0.32116146E+01</totfact>
</mgrwt>
</event>
<event>
12    5  0.5041746E-008  0.1703775E+04  0.7818608E-02  0.8759214E-01
          1   -1    0    0  501    0  0.00000000000E+00  0.00000000000E+00  0.75092784949E+03  0.75092784949E+03  0.00000000000E+00 0. -1.
         -2   -1    0    0    0  501 -0.00000000000E+00 -0.00000000000E+00 -0.96642051106E+03  0.96642051106E+03  0.00000000000E+00 0.  1.
        -24    2    1    2    0    0  0.32474478360E+03 -0.10130637985E+03  0.43380499597E+03  0.55724951334E+03  0.81351635004E+02 0.  0.
        254    2    1    2    0    0 -0.32474478360E+03  0.10130637985E+03 -0.64929765754E+03  0.11600988472E+04  0.89917725178E+03 0.  0.
         23    2    4    4    0    0  0.11016968682E+02  0.42771390587E+03 -0.13325942848E+03  0.45752112949E+03  0.92233127332E+02 0.  0.
         23    2    4    4    0    0 -0.33576175229E+03 -0.32640752602E+03 -0.51603822906E+03  0.70257771772E+03  0.89678136904E+02 0.  0.
          3    1    3    3  502    0  0.31542541547E+03 -0.78896628359E+02  0.40972211289E+03  0.52305839108E+03  0.00000000000E+00 0. -1.
         -4    1    3    3    0  502  0.93193681370E+01 -0.22409751486E+02  0.24082883079E+02  0.34191122262E+02  0.00000000000E+00 0.  1.
         13    1    5    5    0    0 -0.40603580810E+02  0.18612433528E+03 -0.52296471097E+02  0.19754958833E+03  0.00000000000E+00 0.  1.
        -13    1    5    5    0    0  0.51620549492E+02  0.24158957058E+03 -0.80962957382E+02  0.25997154116E+03  0.00000000000E+00 0. -1.
          4    1    6    6  503    0 -0.22681952846E+02 -0.17737054259E+02 -0.72733974204E+02  0.78225987256E+02  0.00000000000E+00 0. -1.
         -4    1    6    6    0  503 -0.31307979944E+03 -0.30867047176E+03 -0.44330425486E+03  0.62435173046E+03  0.00000000000E+00 0.  1.
<mgrwt>
<rscale>  0 0.17037747E+04</rscale>
<asrwt>0</asrwt>
<pdfrwt beam="1">  1        1 0.11552736E+00 0.17037747E+04</pdfrwt>
<pdfrwt beam="2">  1       -2 0.14868008E+00 0.17037747E+04</pdfrwt>
<totfact> 0.62443018E+00</totfact>
</mgrwt>
</event>
<event>
12    5  0.5041746E-008  0.2411575E+04  0.7818608E-02  0.8435183E-01
         -2   -1    0    0    0  501 -0.00000000000E+00  0.00000000000E+00  0.97179538232E+03  0.97179538232E+03  0.00000000000E+00 0.  1.
          1   -1    0    0  501    0  0.00000000000E+00 -0.00000000000E+00 -0.14961212644E+04  0.14961212644E+04  0.00000000000E+00 0. -1.
        -24    2    1    2    0    0  0.64765707660E+03  0.55888771536E+03  0.36982943586E+03  0.93540739563E+03  0.79987604788E+02 0.  0.
        254    2    1    2    0    0 -0.64765707660E+03 -0.55888771536E+03 -0.89415531789E+03  0.15325092511E+04  0.90402196035E+03 0.  0.
         23    2    4    4    0    0 -0.20562374340E+03 -0.35692915762E+01  0.14673287618E+03  0.26945564692E+03  0.93712032380E+02 0.  0.
         23    2    4    4    0    0 -0.44203333320E+03 -0.55531842378E+03 -0.10408881941E+04  0.12630536041E+04  0.89911928595E+02 0.  0.
          3    1    3    3  502    0  0.44843665215E+03  0.40797299835E+03  0.22570044232E+03  0.64689882365E+03  0.00000000000E+00 0. -1.
         -4    1    3    3    0  502  0.19922042445E+03  0.15091471701E+03  0.14412899353E+03  0.28850857198E+03  0.00000000000E+00 0.  1.
         13    1    5    5    0    0 -0.84432168010E+02  0.40523942719E+02  0.85012273652E+02  0.12648346769E+03  0.00000000000E+00 0. -1.
        -13    1    5    5    0    0 -0.12119157539E+03 -0.44093234295E+02  0.61720602526E+02  0.14297217923E+03  0.00000000000E+00 0.  1.
          1    1    6    6  503    0 -0.33505125043E+03 -0.41482911768E+03 -0.70937869476E+03  0.88744615040E+03  0.00000000000E+00 0. -1.
         -1    1    6    6    0  503 -0.10698208277E+03 -0.14048930611E+03 -0.33150949930E+03  0.37560745373E+03  0.00000000000E+00 0.  1.
<mgrwt>
<rscale>  0 0.24115752E+04</rscale>
<asrwt>0</asrwt>
<pdfrwt beam="1">  1        1 0.23017250E+00 0.24115752E+04</pdfrwt>
<pdfrwt beam="2">  1       -2 0.14950698E+00 0.24115752E+04</pdfrwt>
<totfact> 0.15638448E+00</totfact>
</mgrwt>
</event>
<event>
12    5  0.5041746E-008  0.1684492E+04  0.7818608E-02  0.8770259E-01
          1   -1    0    0  501    0  0.00000000000E+00  0.00000000000E+00  0.12318095713E+04  0.12318095713E+04  0.00000000000E+00 0. -1.
         -2   -1    0    0    0  501 -0.00000000000E+00 -0.00000000000E+00 -0.57588324997E+03  0.57588324997E+03  0.00000000000E+00 0.  1.
        -24    2    1    2    0    0 -0.33598831080E+03 -0.48994525102E+03  0.32095360067E+03  0.68171440653E+03  0.93748729518E+02 0.  0.
        254    2    1    2    0    0  0.33598831080E+03  0.48994525102E+03  0.33497272061E+03  0.11259784147E+04  0.89592754886E+03 0.  0.
         23    2    4    4    0    0  0.12980500298E+02  0.62656759002E+03  0.41063095771E+03  0.75474167771E+03  0.90894325408E+02 0.  0.
         23    2    4    4    0    0  0.32300781050E+03 -0.13662233900E+03 -0.75658237096E+02  0.37123673698E+03  0.95356367828E+02 0.  0.
          1    1    3    3  502    0 -0.38296171760E+02 -0.16619643594E+02  0.29829876647E+02  0.51309169408E+02  0.00000000000E+00 0. -1.
         -2    1    3    3    0  502 -0.29769213904E+03 -0.47332560743E+03  0.29112372403E+03  0.63040523712E+03  0.00000000000E+00 0.  1.
         13    1    5    5    0    0  0.37466131214E+02  0.13422947171E+03  0.73684495358E+02  0.15764094303E+03  0.00000000000E+00 0.  1.
        -13    1    5    5    0    0 -0.24485630916E+02  0.49233811832E+03  0.33694646235E+03  0.59710073468E+03  0.00000000000E+00 0. -1.
          2    1    6    6  503    0  0.26995600127E+03 -0.10222478996E+03 -0.24125836993E+02  0.28966913249E+03  0.00000000000E+00 0. -1.
         -2    1    6    6    0  503  0.53051809227E+02 -0.34397549044E+02 -0.51532400103E+02  0.81567604494E+02  0.00000000000E+00 0.  1.
<mgrwt>
<rscale>  0 0.16844922E+04</rscale>
<asrwt>0</asrwt>
<pdfrwt beam="1">  1        1 0.18950916E+00 0.16844922E+04</pdfrwt>
<pdfrwt beam="2">  1       -2 0.88597423E-01 0.16844922E+04</pdfrwt>
<totfact> 0.92774058E+00</totfact>
</mgrwt>
</event>
<event>
12    5  0.5041746E-008  0.1601795E+04  0.7818608E-02  0.8819446E-01
         -2   -1    0    0    0  501 -0.00000000000E+00  0.00000000000E+00  0.98394670834E+03  0.98394670834E+03  0.00000000000E+00 0.  1.
          1   -1    0    0  501    0  0.00000000000E+00 -0.00000000000E+00 -0.65190165316E+03  0.65190165316E+03  0.00000000000E+00 0. -1.
        -24    2    1    2    0    0  0.53596094718E+03 -0.10089743788E+03  0.13339703240E+03  0.56778680465E+03  0.84573384732E+02 0.  0.
        254    2    1    2    0    0 -0.53596094718E+03  0.10089743788E+03  0.19864802278E+03  0.10680615569E+04  0.89658241250E+03 0.  0.
         23    2    4    4    0    0 -0.59863489904E+03  0.38111443404E+03  0.14677286148E+02  0.71517067324E+03  0.87416903146E+02 0.  0.
         23    2    4    4    0    0  0.62673951858E+02 -0.28021699616E+03  0.18397073663E+03  0.35289088361E+03  0.90758771621E+02 0.  0.
          3    1    3    3  502    0  0.37622753500E+03 -0.39565589600E+02  0.11658548917E+03  0.39585953349E+03  0.00000000000E+00 0. -1.
         -4    1    3    3    0  502  0.15973341218E+03 -0.61331848284E+02  0.16811543228E+02  0.17192727116E+03  0.00000000000E+00 0.  1.
         13    1    5    5    0    0 -0.52300345186E+03  0.30466679420E+03  0.32600700855E+02  0.60614954578E+03  0.00000000000E+00 0. -1.
        -13    1    5    5    0    0 -0.75631447174E+02  0.76447639841E+02 -0.17923414706E+02  0.10902112746E+03  0.00000000000E+00 0.  1.
          4    1    6    6  503    0  0.43175467872E+02 -0.17525235099E+03  0.16482486304E+03  0.24442737782E+03  0.00000000000E+00 0. -1.
         -4    1    6    6    0  503  0.19498483986E+02 -0.10496464517E+03  0.19145873586E+02  0.10846350579E+03  0.00000000000E+00 0.  1.
<mgrwt>
<rscale>  0 0.16017946E+04</rscale>
<asrwt>0</asrwt>
<pdfrwt beam="1">  1        1 0.10029256E+00 0.16017946E+04</pdfrwt>
<pdfrwt beam="2">  1       -2 0.15137642E+00 0.16017946E+04</pdfrwt>
<totfact> 0.74430915E+00</totfact>
</mgrwt>
</event>
<event>
12    5  0.5041746E-008  0.1735822E+04  0.7818608E-02  0.8741193E-01
         -2   -1    0    0    0  501 -0.00000000000E+00  0.00000000000E+00  0.39536791091E+04  0.39536791091E+04  0.00000000000E+00 0.  1.
          1   -1    0    0  501    0  0.00000000000E+00 -0.00000000000E+00 -0.19052376549E+03  0.19052376549E+03  0.00000000000E+00 0. -1.
        -24    2    1    2    0    0  0.40324649880E+03  0.13286923300E+03  0.24860242714E+04  0.25233021204E+04  0.80467016568E+02 0.  0.
        254    2    1    2    0    0 -0.40324649880E+03 -0.13286923300E+03  0.12771310722E+04  0.16209007542E+04  0.90332358962E+03 0.  0.
         23    2    4    4    0    0  0.12104763544E+03 -0.65475343315E+02  0.10066573989E+04  0.10201447381E+04  0.91633057883E+02 0.  0.
         23    2    4    4    0    0 -0.52429413424E+03 -0.67393889686E+02  0.27047367329E+03  0.60075601610E+03  0.91244218269E+02 0.  0.
          3    1    3    3  502    0  0.81640685225E+01 -0.63445539422E+01  0.28172182106E+02  0.30009618861E+02  0.00000000000E+00 0. -1.
         -4    1    3    3    0  502  0.39508243028E+03  0.13921378694E+03  0.24578520893E+04  0.24932925015E+04  0.00000000000E+00 0.  1.
         13    1    5    5    0    0  0.11450959729E+03 -0.86153948953E+02  0.89520197549E+03  0.90659887917E+03  0.00000000000E+00 0.  1.
        -13    1    5    5    0    0  0.65380381556E+01  0.20678605638E+02  0.11145542343E+03  0.11354585896E+03  0.00000000000E+00 0. -1.
          2    1    6    6  503    0 -0.10774692740E+03 -0.51358186868E+02  0.67228303595E+02  0.13699163671E+03  0.00000000000E+00 0. -1.
         -2    1    6    6    0  503 -0.41654720684E+03 -0.16035702817E+02  0.20324536970E+03  0.46376437939E+03  0.00000000000E+00 0.  1.
<mgrwt>
<rscale>  0 0.17358224E+04</rscale>
<asrwt>0</asrwt>
<pdfrwt beam="1">  1        1 0.29311351E-01 0.17358224E+04</pdfrwt>
<pdfrwt beam="2">  1       -2 0.60825827E+00 0.17358224E+04</pdfrwt>
<totfact> 0.60592186E-02</totfact>
</mgrwt>
</event>
<event>
12    5  0.5041746E-008  0.1645574E+04  0.7818608E-02  0.8793029E-01
         -2   -1    0    0    0  501 -0.00000000000E+00  0.00000000000E+00  0.47160256633E+03  0.47160256633E+03  0.00000000000E+00 0.  1.
          1   -1    0    0  501    0  0.00000000000E+00 -0.00000000000E+00 -0.14354842584E+04  0.14354842584E+04  0.00000000000E+00 0. -1.
        -24    2    1    2    0    0 -0.42217966676E+03 -0.21489576902E+03  0.13015581540E+01  0.48038194431E+03  0.79682217550E+02 0.  0.
        254    2    1    2    0    0  0.42217966676E+03  0.21489576902E+03 -0.96518325024E+03  0.14267048804E+04  0.93781247953E+03 0.  0.
         23    2    4    4    0    0 -0.54545133014E+02  0.48383408092E+03 -0.46620861123E+03  0.68043126292E+03  0.92550769711E+02 0.  0.
         23    2    4    4    0    0  0.47672479978E+03 -0.26893831190E+03 -0.49897463901E+03  0.74627361753E+03  0.91401704083E+02 0.  0.
          1    1    3    3  502    0 -0.18368259228E+02 -0.29362282587E+02 -0.92998420473E+01  0.35861171870E+02  0.00000000000E+00 0. -1.
         -2    1    3    3    0  502 -0.40381140754E+03 -0.18553348643E+03  0.10601400201E+02  0.44452077244E+03  0.00000000000E+00 0.  1.
         13    1    5    5    0    0 -0.12705000470E+02  0.26735649656E+03 -0.19635960995E+03  0.33196085569E+03  0.00000000000E+00 0. -1.
        -13    1    5    5    0    0 -0.41840132544E+02  0.21647758436E+03 -0.26984900128E+03  0.34847040723E+03  0.00000000000E+00 0.  1.
          3    1    6    6  503    0  0.46244875861E+03 -0.23991405114E+03 -0.45507493284E+03  0.69174475117E+03  0.00000000000E+00 0. -1.
         -3    1    6    6    0  503  0.14276041170E+02 -0.29024260762E+02 -0.43899706170E+02  0.54528866356E+02  0.00000000000E+00 0.  1.
<mgrwt>
<rscale>  0 0.16455735E+04</rscale>
<asrwt>0</asrwt>
<pdfrwt beam="1">  1        1 0.22084373E+00 0.16455735E+04</pdfrwt>
<pdfrwt beam="2">  1       -2 0.72554242E-01 0.16455735E+04</pdfrwt>
<totfact> 0.10455912E+01</totfact>
</mgrwt>
</event>
<event>
12    5  0.5041746E-008  0.1871912E+04  0.7818608E-02  0.8668965E-01
         -2   -1    0    0    0  501 -0.00000000000E+00  0.00000000000E+00  0.26938104759E+03  0.26938104759E+03  0.00000000000E+00 0.  1.
          1   -1    0    0  501    0  0.00000000000E+00 -0.00000000000E+00 -0.32519500575E+04  0.32519500575E+04  0.00000000000E+00 0. -1.
        -24    2    1    2    0    0  0.54178091891E+03 -0.33072935507E+03 -0.18110761017E+04  0.19208056822E+04  0.81174826810E+02 0.  0.
        254    2    1    2    0    0 -0.54178091891E+03  0.33072935507E+03 -0.11714929083E+04  0.16005254229E+04  0.88677929875E+03 0.  0.
         23    2    4    4    0    0  0.12131383690E+03  0.37296442543E+03 -0.30823879907E+03  0.50729547263E+03  0.92293172254E+02 0.  0.
         23    2    4    4    0    0 -0.66309475581E+03 -0.42235070356E+02 -0.86325410919E+03  0.10932299502E+04  0.92008753233E+02 0.  0.
          3    1    3    3  502    0  0.45669810951E+03 -0.30176865417E+03 -0.16113447495E+04  0.17017841772E+04  0.00000000000E+00 0. -1.
         -4    1    3    3    0  502  0.85082809406E+02 -0.28960700899E+02 -0.19973135211E+03  0.21902150504E+03  0.00000000000E+00 0.  1.
         13    1    5    5    0    0 -0.13631174975E+02  0.20918959379E+02 -0.11428134801E+02  0.27459316411E+02  0.00000000000E+00 0.  1.
        -13    1    5    5    0    0  0.13494501188E+03  0.35204546605E+03 -0.29681066427E+03  0.47983615622E+03  0.00000000000E+00 0. -1.
          3    1    6    6  503    0 -0.35230138220E+02 -0.17162168990E+02 -0.28737454080E+02  0.48595719466E+02  0.00000000000E+00 0.  1.
         -3    1    6    6    0  503 -0.62786461759E+03 -0.25072901366E+02 -0.83451665511E+03  0.10446342308E+04  0.00000000000E+00 0. -1.
<mgrwt>
<rscale>  0 0.18719121E+04</rscale>
<asrwt>0</asrwt>
<pdfrwt beam="1">  1        1 0.50030000E+00 0.18719121E+04</pdfrwt>
<pdfrwt beam="2">  1       -2 0.41443239E-01 0.18719121E+04</pdfrwt>
<totfact> 0.17722633E+00</totfact>
</mgrwt>
</event>
<event>
12    5  0.5801638E-008  0.1946637E+04  0.7818608E-02  0.8631984E-01
         -2   -1    0    0    0  501 -0.00000000000E+00  0.00000000000E+00  0.44121313536E+03  0.44121313536E+03  0.00000000000E+00 0.  1.
          1   -1    0    0  501    0  0.00000000000E+00 -0.00000000000E+00 -0.21471447206E+04  0.21471447206E+04  0.00000000000E+00 0. -1.
        -24    2    1    2    0    0 -0.19635954310E+03 -0.36303911350E+03  0.17724643986E+03  0.45628561337E+03  0.80161040610E+02 0.  0.
        254    2    1    2    0    0  0.19635954310E+03  0.36303911350E+03 -0.18831780250E+04  0.21320722425E+04  0.91050431372E+03 0.  0.
         23    2    4    4    0    0  0.28741697374E+03  0.25430558341E+01 -0.11521593337E+03  0.32312767721E+03  0.92313598917E+02 0.  0.
         23    2    4    4    0    0 -0.91057430641E+02  0.36049605766E+03 -0.17679620917E+04  0.18089445653E+04  0.91332467346E+02 0.  0.
          1    1    3    3  502    0 -0.15964518220E+02 -0.24037842612E+02  0.38205014981E+02  0.47878041826E+02  0.00000000000E+00 0. -1.
         -2    1    3    3    0  502 -0.18039502488E+03 -0.33900127088E+03  0.13904142488E+03  0.40840757155E+03  0.00000000000E+00 0.  1.
         13    1    5    5    0    0  0.19554459987E+03 -0.40275711659E+02 -0.64661797536E+02  0.20985940901E+03  0.00000000000E+00 0. -1.
        -13    1    5    5    0    0  0.91872373869E+02  0.42818767493E+02 -0.50554135836E+02  0.11326826820E+03  0.00000000000E+00 0.  1.
          4    1    6    6  503    0 -0.37174672536E+02  0.74488603982E+02 -0.57493938257E+03  0.58093528213E+03  0.00000000000E+00 0.  1.
         -4    1    6    6    0  503 -0.53882758105E+02  0.28600745368E+03 -0.11930227091E+04  0.12280092832E+04  0.00000000000E+00 0. -1.
<mgrwt>
<rscale>  0 0.19466365E+04</rscale>
<asrwt>0</asrwt>
<pdfrwt beam="1">  1        1 0.33032996E+00 0.19466365E+04</pdfrwt>
<pdfrwt beam="2">  1       -2 0.67878943E-01 0.19466365E+04</pdfrwt>
<totfact> 0.38514400E+00</totfact>
</mgrwt>
</event>
<event>
12    5  0.5041746E-008  0.1187806E+04  0.7818608E-02  0.9123597E-01
          3   -1    0    0  501    0  0.00000000000E+00  0.00000000000E+00  0.14845372467E+04  0.14845372467E+04  0.00000000000E+00 0. -1.
         -4   -1    0    0    0  501 -0.00000000000E+00 -0.00000000000E+00 -0.23759657536E+03  0.23759657536E+03  0.00000000000E+00 0.  1.
        -24    2    1    2    0    0 -0.19963156765E+03  0.13941505745E+03  0.27661884166E+03  0.37707338585E+03  0.79856331661E+02 0.  0.
        254    2    1    2    0    0  0.19963156765E+03 -0.13941505745E+03  0.97032182967E+03  0.13450604362E+04  0.89909610324E+03 0.  0.
         23    2    4    4    0    0  0.31802260663E+03  0.12330010212E+03  0.98083269392E+03  0.10422597682E+04  0.89058168854E+02 0.  0.
         23    2    4    4    0    0 -0.11839103897E+03 -0.26271515956E+03 -0.10510864251E+02  0.30280066800E+03  0.92423336349E+02 0.  0.
          1    1    3    3  502    0 -0.91938494393E+02  0.34307904680E+02  0.15562504943E+03  0.18398063780E+03  0.00000000000E+00 0. -1.
         -2    1    3    3    0  502 -0.10769307326E+03  0.10510715277E+03  0.12099379223E+03  0.19309274805E+03  0.00000000000E+00 0.  1.
         13    1    5    5    0    0  0.30044053909E+03  0.11520850549E+03  0.82998714253E+03  0.89017760813E+03  0.00000000000E+00 0.  1.
        -13    1    5    5    0    0  0.17582067535E+02  0.80915966255E+01  0.15084555139E+03  0.15208216006E+03  0.00000000000E+00 0. -1.
          2    1    6    6  503    0 -0.12866434992E+02 -0.11364560905E+02  0.22395967868E+02  0.28218394191E+02  0.00000000000E+00 0. -1.
         -2    1    6    6    0  503 -0.10552460398E+03 -0.25135059866E+03 -0.32906832119E+02  0.27458227381E+03  0.00000000000E+00 0.  1.
<mgrwt>
<rscale>  0 0.11878063E+04</rscale>
<asrwt>0</asrwt>
<pdfrwt beam="1">  1        3 0.22839034E+00 0.11878063E+04</pdfrwt>
<pdfrwt beam="2">  1       -4 0.36553320E-01 0.11878063E+04</pdfrwt>
<totfact> 0.16377115E+00</totfact>
</mgrwt>
</event>
<event>
12    5  0.5041746E-008  0.1393034E+04  0.7818608E-02  0.8958876E-01
          1   -1    0    0  501    0  0.00000000000E+00  0.00000000000E+00  0.48173283203E+03  0.48173283203E+03  0.00000000000E+00 0. -1.
         -2   -1    0    0    0  501 -0.00000000000E+00 -0.00000000000E+00 -0.10070645102E+04  0.10070645102E+04  0.00000000000E+00 0.  1.
        -24    2    1    2    0    0 -0.30454582729E+03  0.19524766786E+03  0.38752866120E+02  0.37254690927E+03  0.80122420416E+02 0.  0.
        254    2    1    2    0    0  0.30454582729E+03 -0.19524766786E+03 -0.56408454426E+03  0.11162504329E+04  0.89272271351E+03 0.  0.
         23    2    4    4    0    0 -0.28089415746E+03 -0.21663477548E+03 -0.24853954512E+03  0.44406853441E+03  0.97942861536E+02 0.  0.
         23    2    4    4    0    0  0.58543998474E+03  0.21387107623E+02 -0.31554499914E+03  0.67218189851E+03  0.95197027784E+02 0.  0.
          1    1    3    3  502    0 -0.11969451465E+03  0.55620657026E+02  0.48675207423E+02  0.14067590463E+03  0.00000000000E+00 0. -1.
         -2    1    3    3    0  502 -0.18485131264E+03  0.13962701083E+03 -0.99223413024E+01  0.23187100465E+03  0.00000000000E+00 0.  1.
         13    1    5    5    0    0 -0.27686189799E+03 -0.22557313923E+03 -0.23560875165E+03  0.42784019862E+03  0.00000000000E+00 0. -1.
        -13    1    5    5    0    0 -0.40322594645E+01  0.89383637460E+01 -0.12930793471E+02  0.16228335794E+02  0.00000000000E+00 0.  1.
          1    1    6    6  503    0  0.46878071956E+03  0.54877770105E+02 -0.24462231536E+03  0.53160794752E+03  0.00000000000E+00 0. -1.
         -1    1    6    6    0  503  0.11665926518E+03 -0.33490662481E+02 -0.70922683772E+02  0.14057395100E+03  0.00000000000E+00 0.  1.
<mgrwt>
<rscale>  0 0.13930342E+04</rscale>
<asrwt>0</asrwt>
<pdfrwt beam="1">  1        1 0.74112744E-01 0.13930342E+04</pdfrwt>
<pdfrwt beam="2">  1       -2 0.15493300E+00 0.13930342E+04</pdfrwt>
<totfact> 0.10928528E+01</totfact>
</mgrwt>
</event>
<event>
12    5  0.5041746E-008  0.1541804E+04  0.7818608E-02  0.8857120E-01
         -2   -1    0    0    0  501 -0.00000000000E+00  0.00000000000E+00  0.17295360275E+03  0.17295360275E+03  0.00000000000E+00 0.  1.
          1   -1    0    0  501    0  0.00000000000E+00 -0.00000000000E+00 -0.34361225098E+04  0.34361225098E+04  0.00000000000E+00 0. -1.
        -24    2    1    2    0    0  0.44055850003E+03 -0.22522802873E+03 -0.11974973153E+04  0.12983762061E+04  0.83435577124E+02 0.  0.
        254    2    1    2    0    0 -0.44055850003E+03  0.22522802873E+03 -0.20656715917E+04  0.23106999064E+04  0.90967877620E+03 0.  0.
         23    2    4    4    0    0 -0.62956970330E+03 -0.74577456002E+01 -0.17672637904E+04  0.18782514862E+04  0.90519120878E+02 0.  0.
         23    2    4    4    0    0  0.18901120327E+03  0.23268577433E+03 -0.29840780137E+03  0.43244842028E+03  0.89980640985E+02 0.  0.
          3    1    3    3  502    0  0.34451699949E+03 -0.15280955587E+03 -0.97755602949E+03  0.10476919939E+04  0.00000000000E+00 0. -1.
         -4    1    3    3    0  502  0.96041500541E+02 -0.72418472860E+02 -0.21994128581E+03  0.25068421219E+03  0.00000000000E+00 0.  1.
         13    1    5    5    0    0 -0.13688965818E+03  0.27696196321E+02 -0.46238909936E+03  0.48302125938E+03  0.00000000000E+00 0.  1.
        -13    1    5    5    0    0 -0.49268004512E+03 -0.35153941922E+02 -0.13048746910E+04  0.13952302268E+04  0.00000000000E+00 0. -1.
          3    1    6    6  503    0  0.19772857351E+03  0.21313587997E+03 -0.28539043289E+03  0.40739562013E+03  0.00000000000E+00 0. -1.
         -3    1    6    6    0  503 -0.87173702468E+01  0.19549894359E+02 -0.13017368476E+02  0.25052800153E+02  0.00000000000E+00 0.  1.
<mgrwt>
<rscale>  0 0.15418038E+04</rscale>
<asrwt>0</asrwt>
<pdfrwt beam="1">  1        1 0.52863428E+00 0.15418038E+04</pdfrwt>
<pdfrwt beam="2">  1       -2 0.26608244E-01 0.15418038E+04</pdfrwt>
<totfact> 0.30709234E+00</totfact>
</mgrwt>
</event>
<event>
12    5  0.5041746E-008  0.1108890E+04  0.7818608E-02  0.9196570E-01
          1   -1    0    0  501    0  0.00000000000E+00  0.00000000000E+00  0.35355092575E+03  0.35355092575E+03  0.00000000000E+00 0. -1.
         -2   -1    0    0    0  501 -0.00000000000E+00 -0.00000000000E+00 -0.86949134527E+03  0.86949134527E+03  0.00000000000E+00 0.  1.
        -24    2    1    2    0    0  0.12576036495E+03 -0.11737873618E+02 -0.23454927282E+03  0.27791517726E+03  0.79183567132E+02 0.  0.
        254    2    1    2    0    0 -0.12576036495E+03  0.11737873618E+02 -0.28139114670E+03  0.94512709375E+03  0.89338166470E+03 0.  0.
         23    2    4    4    0    0  0.21586043399E+03  0.89348763370E+02  0.21569578950E+03  0.33038438439E+03  0.89723126113E+02 0.  0.
         23    2    4    4    0    0 -0.34162079894E+03 -0.77610889751E+02 -0.49708693620E+03  0.61474270936E+03  0.89916383920E+02 0.  0.
          1    1    3    3  502    0  0.41159110955E+02 -0.38374930133E+02 -0.60856754718E+02  0.82886984938E+02  0.00000000000E+00 0. -1.
         -2    1    3    3    0  502  0.84601253995E+02  0.26637056515E+02 -0.17369251810E+03  0.19502819233E+03  0.00000000000E+00 0.  1.
         13    1    5    5    0    0  0.41533554784E+02 -0.47735088525E+01  0.79967376940E+02  0.90236378111E+02  0.00000000000E+00 0.  1.
        -13    1    5    5    0    0  0.17432687920E+03  0.94122272222E+02  0.13572841256E+03  0.24014800628E+03  0.00000000000E+00 0. -1.
          1    1    6    6  503    0  0.23838550689E+01 -0.90829567618E+01 -0.56253345112E+01  0.10946563702E+02  0.00000000000E+00 0. -1.
         -1    1    6    6    0  503 -0.34400465401E+03 -0.68527932990E+02 -0.49146160169E+03  0.60379614566E+03  0.00000000000E+00 0.  1.
<mgrwt>
<rscale>  0 0.11088904E+04</rscale>
<asrwt>0</asrwt>
<pdfrwt beam="1">  1        1 0.54392450E-01 0.11088904E+04</pdfrwt>
<pdfrwt beam="2">  1       -2 0.13376790E+00 0.11088904E+04</pdfrwt>
<totfact> 0.24801172E+01</totfact>
</mgrwt>
</event>
<event>
12    5  0.5041746E-008  0.1285359E+04  0.7818608E-02  0.9041257E-01
          1   -1    0    0  501    0  0.00000000000E+00  0.00000000000E+00  0.12123504868E+04  0.12123504868E+04  0.00000000000E+00 0. -1.
         -2   -1    0    0    0  501 -0.00000000000E+00 -0.00000000000E+00 -0.34069119920E+03  0.34069119920E+03  0.00000000000E+00 0.  1.
        -24    2    1    2    0    0 -0.30886636508E+03 -0.71015780587E+02  0.25366389296E+03  0.41375591364E+03  0.80043194003E+02 0.  0.
        254    2    1    2    0    0  0.30886636508E+03  0.71015780587E+02  0.61799539463E+03  0.11392857724E+04  0.90311244634E+03 0.  0.
         23    2    4    4    0    0  0.48468029925E+03  0.16263710263E+03  0.72813810324E+03  0.89485352121E+03  0.95978681986E+02 0.  0.
         23    2    4    4    0    0 -0.17581393417E+03 -0.91621322039E+02 -0.11014270861E+03  0.24443225115E+03  0.91163057438E+02 0.  0.
          1    1    3    3  502    0 -0.12242985825E+03 -0.39455427817E+02  0.15181717922E+03  0.19898305677E+03  0.00000000000E+00 0. -1.
         -2    1    3    3    0  502 -0.18643650683E+03 -0.31560352769E+02  0.10184671374E+03  0.21477285687E+03  0.00000000000E+00 0.  1.
         13    1    5    5    0    0  0.47626493594E+03  0.16699598492E+03  0.72741033353E+03  0.88534837297E+03  0.00000000000E+00 0. -1.
        -13    1    5    5    0    0  0.84153633009E+01 -0.43588822932E+01  0.72776971426E+00  0.95051482413E+01  0.00000000000E+00 0.  1.
          2    1    6    6  503    0 -0.15329407645E+03 -0.50374545185E+02 -0.11356124685E+03  0.19731402754E+03  0.00000000000E+00 0. -1.
         -2    1    6    6    0  503 -0.22519857717E+02 -0.41246776854E+02  0.34185382380E+01  0.47118223610E+02  0.00000000000E+00 0.  1.
<mgrwt>
<rscale>  0 0.12853593E+04</rscale>
<asrwt>0</asrwt>
<pdfrwt beam="1">  1        1 0.18651546E+00 0.12853593E+04</pdfrwt>
<pdfrwt beam="2">  1       -2 0.52414031E-01 0.12853593E+04</pdfrwt>
<totfact> 0.31011927E+01</totfact>
</mgrwt>
</event>
<event>
12    5  0.5041746E-008  0.1340609E+04  0.7818608E-02  0.8997968E-01
         -2   -1    0    0    0  501 -0.00000000000E+00  0.00000000000E+00  0.85198095744E+03  0.85198095744E+03  0.00000000000E+00 0.  1.
          1   -1    0    0  501    0  0.00000000000E+00 -0.00000000000E+00 -0.52736855642E+03  0.52736855642E+03  0.00000000000E+00 0. -1.
        -24    2    1    2    0    0 -0.36357504719E+02  0.34892071796E+03  0.25845515642E+02  0.36028466995E+03  0.77907105921E+02 0.  0.
        254    2    1    2    0    0  0.36357504719E+02 -0.34892071796E+03  0.29876688538E+03  0.10190648439E+04  0.90893562408E+03 0.  0.
         23    2    4    4    0    0  0.35716587488E+03  0.57276686557E+01  0.37378008282E+03  0.52443620547E+03  0.87872150990E+02 0.  0.
         23    2    4    4    0    0 -0.32080837017E+03 -0.35464838661E+03 -0.75013197448E+02  0.49462863844E+03  0.10167114476E+03 0.  0.
          1    1    3    3  502    0  0.38322664570E+01  0.16198420817E+03 -0.21101073095E+02  0.16339775166E+03  0.00000000000E+00 0. -1.
         -2    1    3    3    0  502 -0.40189771176E+02  0.18693650979E+03  0.46946588737E+02  0.19688691829E+03  0.00000000000E+00 0.  1.
         13    1    5    5    0    0  0.33143511757E+03 -0.10831095987E+01  0.30395473335E+03  0.44970978442E+03  0.00000000000E+00 0.  1.
        -13    1    5    5    0    0  0.25730757320E+02  0.68107782544E+01  0.69825349476E+02  0.74726421044E+02  0.00000000000E+00 0. -1.
          1    1    6    6  503    0 -0.82492280851E+02 -0.82864319933E+02  0.25019091001E+02  0.11957184799E+03  0.00000000000E+00 0. -1.
         -1    1    6    6    0  503 -0.23831608931E+03 -0.27178406668E+03 -0.10003228845E+03  0.37505679045E+03  0.00000000000E+00 0.  1.
<mgrwt>
<rscale>  0 0.13406088E+04</rscale>
<asrwt>0</asrwt>
<pdfrwt beam="1">  1        1 0.81133624E-01 0.13406088E+04</pdfrwt>
<pdfrwt beam="2">  1       -2 0.13107399E+00 0.13406088E+04</pdfrwt>
<totfact> 0.14988982E+01</totfact>
</mgrwt>
</event>
<event>
12    5  0.5041746E-008  0.1713430E+04  0.7818608E-02  0.8753741E-01
         -2   -1    0    0    0  501 -0.00000000000E+00  0.00000000000E+00  0.13575427006E+04  0.13575427006E+04  0.00000000000E+00 0.  1.
          1   -1    0    0  501    0  0.00000000000E+00 -0.00000000000E+00 -0.54065404964E+03  0.54065404964E+03  0.00000000000E+00 0. -1.
        -24    2    1    2    0    0  0.22782130007E+03  0.42456369166E+03  0.73544184579E+03  0.88296431401E+03  0.81205900220E+02 0.  0.
        254    2    1    2    0    0 -0.22782130007E+03 -0.42456369166E+03  0.81446805166E+02  0.10152324362E+04  0.88989125428E+03 0.  0.
         23    2    4    4    0    0  0.13987951984E+02 -0.32718101124E+03  0.44419298651E+03  0.55932667277E+03  0.91081505728E+02 0.  0.
         23    2    4    4    0    0 -0.24180925206E+03 -0.97382680415E+02 -0.36274618135E+03  0.45590576345E+03  0.91160146140E+02 0.  0.
          3    1    3    3  502    0  0.44403723453E+02  0.15369216845E+03  0.20967841919E+03  0.26373853108E+03  0.00000000000E+00 0. -1.
         -4    1    3    3    0  502  0.18341757662E+03  0.27087152320E+03  0.52576342660E+03  0.61922578293E+03  0.00000000000E+00 0.  1.
         13    1    5    5    0    0 -0.10888045516E+02 -0.30839395021E+03  0.39846274039E+03  0.50398207661E+03  0.00000000000E+00 0.  1.
        -13    1    5    5    0    0  0.24875997500E+02 -0.18787061028E+02  0.45730246123E+02  0.55344596161E+02  0.00000000000E+00 0. -1.
          1    1    6    6  503    0 -0.14818445536E+02 -0.38593551108E+02 -0.62774267295E+02  0.75164201251E+02  0.00000000000E+00 0. -1.
         -1    1    6    6    0  503 -0.22699080652E+03 -0.58789129307E+02 -0.29997191405E+03  0.38074156220E+03  0.00000000000E+00 0.  1.
<mgrwt>
<rscale>  0 0.17134304E+04</rscale>
<asrwt>0</asrwt>
<pdfrwt beam="1">  1        1 0.83177546E-01 0.17134304E+04</pdfrwt>
<pdfrwt beam="2">  1       -2 0.20885272E+00 0.17134304E+04</pdfrwt>
<totfact> 0.38471923E+00</totfact>
</mgrwt>
</event>
<event>
12    5  0.5041746E-008  0.2435538E+04  0.7818608E-02  0.8426317E-01
         -2   -1    0    0    0  501 -0.00000000000E+00  0.00000000000E+00  0.84474093626E+03  0.84474093626E+03  0.00000000000E+00 0.  1.
          1   -1    0    0  501    0  0.00000000000E+00 -0.00000000000E+00 -0.17555217831E+04  0.17555217831E+04  0.00000000000E+00 0. -1.
        -24    2    1    2    0    0  0.28499450708E+03 -0.79807342328E+03 -0.10579816362E+04  0.13578860066E+04  0.79913743479E+02 0.  0.
        254    2    1    2    0    0 -0.28499450708E+03  0.79807342328E+03  0.14720078932E+03  0.12423767128E+04  0.89648690235E+03 0.  0.
         23    2    4    4    0    0  0.28816434009E+03  0.48909287694E+03  0.42380523263E+02  0.57663350981E+03  0.91975902896E+02 0.  0.
         23    2    4    4    0    0 -0.57315884717E+03  0.30898054634E+03  0.10482026606E+03  0.66574320297E+03  0.90811243935E+02 0.  0.
          3    1    3    3  502    0  0.23155119395E+03 -0.68593938389E+03 -0.85993943583E+03  0.11241105938E+04  0.00000000000E+00 0. -1.
         -4    1    3    3    0  502  0.53443313127E+02 -0.11213403939E+03 -0.19804220037E+03  0.23377541281E+03  0.00000000000E+00 0.  1.
         13    1    5    5    0    0  0.27679772509E+02  0.98156422239E+02 -0.16064993992E+02  0.10324212834E+03  0.00000000000E+00 0. -1.
        -13    1    5    5    0    0  0.26048456758E+03  0.39093645470E+03  0.58445517254E+02  0.47339138147E+03  0.00000000000E+00 0.  1.
          2    1    6    6  503    0 -0.26799303423E+02  0.28661603448E+02  0.24942446468E+02  0.46495331078E+02  0.00000000000E+00 0. -1.
         -2    1    6    6    0  503 -0.54635954374E+03  0.28031894289E+03  0.79877819590E+02  0.61924787189E+03  0.00000000000E+00 0.  1.
<mgrwt>
<rscale>  0 0.24355378E+04</rscale>
<asrwt>0</asrwt>
<pdfrwt beam="1">  1        1 0.27008027E+00 0.24355378E+04</pdfrwt>
<pdfrwt beam="2">  1       -2 0.12996015E+00 0.24355378E+04</pdfrwt>
<totfact> 0.14899356E+00</totfact>
</mgrwt>
</event>
<event>
12    5  0.5041746E-008  0.1215530E+04  0.7818608E-02  0.9099371E-01
          1   -1    0    0  501    0  0.00000000000E+00  0.00000000000E+00  0.14086512311E+04  0.14086512311E+04  0.00000000000E+00 0. -1.
         -2   -1    0    0    0  501 -0.00000000000E+00 -0.00000000000E+00 -0.26222121408E+03  0.26222121408E+03  0.00000000000E+00 0.  1.
        -24    2    1    2    0    0  0.73539811584E+02 -0.18032322900E+03  0.34939052653E+02  0.21473253065E+03  0.83455086806E+02 0.  0.
        254    2    1    2    0    0 -0.73539811584E+02  0.18032322900E+03  0.11114909643E+04  0.14561399145E+04  0.92032967789E+03 0.  0.
         23    2    4    4    0    0  0.19835168079E+03  0.43579890114E+03  0.34101205940E+03  0.59527267367E+03  0.93788378026E+02 0.  0.
         23    2    4    4    0    0 -0.27189149237E+03 -0.25547567214E+03  0.77047890493E+03  0.86086724083E+03  0.90894778293E+02 0.  0.
          3    1    3    3  502    0  0.43041925049E+02 -0.77860652724E+02  0.56886060622E+02  0.10559788089E+03  0.00000000000E+00 0. -1.
         -4    1    3    3    0  502  0.30497886535E+02 -0.10246257627E+03 -0.21947007968E+02  0.10913464976E+03  0.00000000000E+00 0.  1.
         13    1    5    5    0    0  0.81073197282E+02  0.18812062151E+03  0.90364213792E+02  0.22389265886E+03  0.00000000000E+00 0.  1.
        -13    1    5    5    0    0  0.11727848350E+03  0.24767827963E+03  0.25064784561E+03  0.37138001481E+03  0.00000000000E+00 0. -1.
          1    1    6    6  503    0 -0.24477680552E+03 -0.25086354561E+03  0.66323464105E+03  0.75015224596E+03  0.00000000000E+00 0. -1.
         -1    1    6    6    0  503 -0.27114686847E+02 -0.46121265349E+01  0.10724426388E+03  0.11071499487E+03  0.00000000000E+00 0.  1.
<mgrwt>
<rscale>  0 0.12155299E+04</rscale>
<asrwt>0</asrwt>
<pdfrwt beam="1">  1        1 0.21671557E+00 0.12155299E+04</pdfrwt>
<pdfrwt beam="2">  1       -2 0.40341726E-01 0.12155299E+04</pdfrwt>
<totfact> 0.38213327E+01</totfact>
</mgrwt>
</event>
<event>
12    5  0.5041746E-008  0.2243471E+04  0.7818608E-02  0.8500549E-01
          1   -1    0    0  501    0  0.00000000000E+00  0.00000000000E+00  0.90442602116E+03  0.90442602116E+03  0.00000000000E+00 0. -1.
         -2   -1    0    0    0  501 -0.00000000000E+00 -0.00000000000E+00 -0.13912590968E+04  0.13912590968E+04  0.00000000000E+00 0.  1.
        -24    2    1    2    0    0  0.28179733388E+03 -0.53547713654E+03  0.53584004559E+03  0.81220904301E+03  0.80084167893E+02 0.  0.
        254    2    1    2    0    0 -0.28179733388E+03  0.53547713654E+03 -0.10226731213E+04  0.14834760750E+04  0.88808527234E+03 0.  0.
         23    2    4    4    0    0 -0.59936339336E+02  0.15136031295E+03  0.14163428879E+03  0.23365942381E+03  0.89633394793E+02 0.  0.
         23    2    4    4    0    0 -0.22186099454E+03  0.38411682359E+03 -0.11643074101E+04  0.12498166512E+04  0.98294869541E+02 0.  0.
          3    1    3    3  502    0  0.22177148678E+03 -0.34075528214E+03  0.36159458301E+03  0.54410237743E+03  0.00000000000E+00 0. -1.
         -4    1    3    3    0  502  0.60025847096E+02 -0.19472185440E+03  0.17424546258E+03  0.26810666559E+03  0.00000000000E+00 0.  1.
         13    1    5    5    0    0 -0.83008833412E+02  0.11049799417E+03  0.11435365778E+03  0.17937957572E+03  0.00000000000E+00 0. -1.
        -13    1    5    5    0    0  0.23072494076E+02  0.40862318787E+02  0.27280631011E+02  0.54279848083E+02  0.00000000000E+00 0.  1.
          3    1    6    6  503    0 -0.21768698941E+03  0.38728433098E+03 -0.11621062083E+04  0.12441332797E+04  0.00000000000E+00 0. -1.
         -3    1    6    6    0  503 -0.41740051293E+01 -0.31675073926E+01 -0.22012017873E+01  0.56833714651E+01  0.00000000000E+00 0.  1.
<mgrwt>
<rscale>  0 0.22434714E+04</rscale>
<asrwt>0</asrwt>
<pdfrwt beam="1">  1        1 0.13914246E+00 0.22434714E+04</pdfrwt>
<pdfrwt beam="2">  1       -2 0.21403986E+00 0.22434714E+04</pdfrwt>
<totfact> 0.15494785E+00</totfact>
</mgrwt>
</event>
<event>
12    5  0.5041746E-008  0.1423973E+04  0.7818608E-02  0.8936646E-01
          1   -1    0    0  501    0  0.00000000000E+00  0.00000000000E+00  0.23526707705E+04  0.23526707705E+04  0.00000000000E+00 0. -1.
         -2   -1    0    0    0  501 -0.00000000000E+00 -0.00000000000E+00 -0.21546775455E+03  0.21546775455E+03  0.00000000000E+00 0.  1.
        -24    2    1    2    0    0  0.90868523133E+01 -0.61922289962E+02 -0.10897637665E+03  0.14899252064E+03  0.80037364142E+02 0.  0.
        254    2    1    2    0    0 -0.90868523133E+01  0.61922289962E+02  0.22461793926E+04  0.24191460045E+04  0.89611862277E+03 0.  0.
         23    2    4    4    0    0 -0.35140660521E+03  0.28784354652E+03  0.95656377579E+03  0.10628381589E+04  0.90940560140E+02 0.  0.
         23    2    4    4    0    0  0.34231975290E+03 -0.22592125656E+03  0.12896156168E+04  0.13563078455E+04  0.90770618653E+02 0.  0.
          1    1    3    3  502    0  0.39502791793E+02 -0.93741196611E+01 -0.38256165029E+02  0.55784216778E+02  0.00000000000E+00 0. -1.
         -2    1    3    3    0  502 -0.30415939480E+02 -0.52548170301E+02 -0.70720211619E+02  0.93208303857E+02  0.00000000000E+00 0.  1.
         13    1    5    5    0    0  0.19654169422E+01  0.18939298714E+02  0.33941231803E+02  0.38917439739E+02  0.00000000000E+00 0.  1.
        -13    1    5    5    0    0 -0.35337202215E+03  0.26890424780E+03  0.92262254399E+03  0.10239207192E+04  0.00000000000E+00 0. -1.
          3    1    6    6  503    0  0.22156790732E+03 -0.19434555201E+03  0.93666419226E+03  0.98193805314E+03  0.00000000000E+00 0. -1.
         -3    1    6    6    0  503  0.12075184558E+03 -0.31575704546E+02  0.35295142458E+03  0.37436979237E+03  0.00000000000E+00 0.  1.
<mgrwt>
<rscale>  0 0.14239729E+04</rscale>
<asrwt>0</asrwt>
<pdfrwt beam="1">  1        1 0.36194933E+00 0.14239729E+04</pdfrwt>
<pdfrwt beam="2">  1       -2 0.33148887E-01 0.14239729E+04</pdfrwt>
<totfact> 0.12464137E+01</totfact>
</mgrwt>
</event>
<event>
12    5  0.5041746E-008  0.2022135E+04  0.7818608E-02  0.8596341E-01
          1   -1    0    0  501    0  0.00000000000E+00  0.00000000000E+00  0.22473369192E+04  0.22473369192E+04  0.00000000000E+00 0. -1.
         -2   -1    0    0    0  501 -0.00000000000E+00 -0.00000000000E+00 -0.45487517575E+03  0.45487517575E+03  0.00000000000E+00 0.  1.
        -24    2    1    2    0    0  0.61041952372E+03  0.35809356136E+03  0.20409931903E+03  0.74103746737E+03  0.81467799776E+02 0.  0.
        254    2    1    2    0    0 -0.61041952372E+03 -0.35809356136E+03  0.15883624244E+04  0.19611746275E+04  0.90690006887E+03 0.  0.
         23    2    4    4    0    0 -0.13935155779E+03 -0.43507117083E+03  0.23321069814E+03  0.52146961601E+03  0.94008246155E+02 0.  0.
         23    2    4    4    0    0 -0.47106796593E+03  0.76977609477E+02  0.13551517262E+04  0.14397050115E+04  0.92107210434E+02 0.  0.
          3    1    3    3  502    0  0.83059694043E+02  0.43100138474E+02  0.56399706661E+02  0.10925869129E+03  0.00000000000E+00 0. -1.
         -4    1    3    3    0  502  0.52735982968E+03  0.31499342288E+03  0.14769961237E+03  0.63177877608E+03  0.00000000000E+00 0.  1.
         13    1    5    5    0    0  0.18067003095E+01 -0.11193918755E+03  0.36841097786E+02  0.11785971475E+03  0.00000000000E+00 0. -1.
        -13    1    5    5    0    0 -0.14115825810E+03 -0.32313198329E+03  0.19636960036E+03  0.40360990126E+03  0.00000000000E+00 0.  1.
          3    1    6    6  503    0 -0.32096766023E+01  0.80447639874E+01  0.65693493433E+02  0.66262020275E+02  0.00000000000E+00 0. -1.
         -3    1    6    6    0  503 -0.46785828933E+03  0.68932845490E+02  0.12894582328E+04  0.13734429913E+04  0.00000000000E+00 0.  1.
<mgrwt>
<rscale>  0 0.20221353E+04</rscale>
<asrwt>0</asrwt>
<pdfrwt beam="1">  1        1 0.34574414E+00 0.20221353E+04</pdfrwt>
<pdfrwt beam="2">  1       -2 0.69980797E-01 0.20221353E+04</pdfrwt>
<totfact> 0.30595120E+00</totfact>
</mgrwt>
</event>
<event>
12    5  0.5041746E-008  0.2266301E+04  0.7818608E-02  0.8491328E-01
          1   -1    0    0  501    0  0.00000000000E+00  0.00000000000E+00  0.57339759164E+03  0.57339759164E+03  0.00000000000E+00 0. -1.
         -2   -1    0    0    0  501 -0.00000000000E+00 -0.00000000000E+00 -0.22393361120E+04  0.22393361120E+04  0.00000000000E+00 0.  1.
        -24    2    1    2    0    0 -0.25379504451E+03 -0.10982229753E+03 -0.18312056054E+04  0.18536690911E+04  0.79386826828E+02 0.  0.
        254    2    1    2    0    0  0.25379504451E+03  0.10982229753E+03  0.16526708508E+03  0.95906461253E+03  0.90333762234E+03 0.  0.
         23    2    4    4    0    0  0.51595036029E+01 -0.33027145909E+03 -0.13004702337E+03  0.36635596190E+03  0.90546150478E+02 0.  0.
         23    2    4    4    0    0  0.24863554091E+03  0.44009375661E+03  0.29531410846E+03  0.59270865063E+03  0.92687512980E+02 0.  0.
          1    1    3    3  502    0 -0.11143782894E+03 -0.28264780402E+02 -0.54148942878E+03  0.55355947197E+03  0.00000000000E+00 0. -1.
         -2    1    3    3    0  502 -0.14235721557E+03 -0.81557517125E+02 -0.12897161766E+04  0.13001096191E+04  0.00000000000E+00 0.  1.
         13    1    5    5    0    0  0.29015451596E+01  0.33916029253E+01  0.47209789509E+01  0.64968897921E+01  0.00000000000E+00 0.  1.
        -13    1    5    5    0    0  0.22579584433E+01 -0.33366306201E+03 -0.13476800232E+03  0.35985907211E+03  0.00000000000E+00 0. -1.
          1    1    6    6  503    0  0.12019678690E+03  0.26067202430E+03  0.21199900543E+03  0.35684835734E+03  0.00000000000E+00 0.  1.
         -1    1    6    6    0  503  0.12843875401E+03  0.17942173231E+03  0.83315103030E+02  0.23586029329E+03  0.00000000000E+00 0. -1.
<mgrwt>
<rscale>  0 0.22663009E+04</rscale>
<asrwt>0</asrwt>
<pdfrwt beam="1">  1        1 0.88215013E-01 0.22663009E+04</pdfrwt>
<pdfrwt beam="2">  1       -2 0.34451325E+00 0.22663009E+04</pdfrwt>
<totfact> 0.48961219E-01</totfact>
</mgrwt>
</event>
<event>
12    5  0.5041746E-008  0.1690948E+04  0.7818608E-02  0.8766544E-01
         -2   -1    0    0    0  501 -0.00000000000E+00  0.00000000000E+00  0.46005128000E+03  0.46005128000E+03  0.00000000000E+00 0.  1.
          1   -1    0    0  501    0  0.00000000000E+00 -0.00000000000E+00 -0.15537963933E+04  0.15537963933E+04  0.00000000000E+00 0. -1.
        -24    2    1    2    0    0  0.18850474947E+03  0.19404128638E+03  0.25106439081E+03  0.37756322457E+03  0.79590193023E+02 0.  0.
        254    2    1    2    0    0 -0.18850474947E+03 -0.19404128638E+03 -0.13448095041E+04  0.16362844488E+04  0.89203594849E+03 0.  0.
         23    2    4    4    0    0  0.20244241832E+03  0.24927873919E+03 -0.43914344532E+03  0.55110919401E+03  0.88042919142E+02 0.  0.
         23    2    4    4    0    0 -0.39094716779E+03 -0.44332002557E+03 -0.90566605883E+03  0.10851752547E+04  0.89453844641E+02 0.  0.
          3    1    3    3  502    0 -0.46822276339E+01  0.30784346668E+01  0.20542811614E+02  0.21293358697E+02  0.00000000000E+00 0. -1.
         -4    1    3    3    0  502  0.19318697710E+03  0.19096285171E+03  0.23052157920E+03  0.35626986588E+03  0.00000000000E+00 0.  1.
         13    1    5    5    0    0  0.18852090718E+03  0.18169416951E+03 -0.37138064510E+03  0.45439683893E+03  0.00000000000E+00 0.  1.
        -13    1    5    5    0    0  0.13921511141E+02  0.67584569683E+02 -0.67762800217E+02  0.96712355079E+02  0.00000000000E+00 0. -1.
          3    1    6    6  503    0 -0.42414773090E+02 -0.44224403530E+02 -0.51652757562E+02  0.80142486907E+02  0.00000000000E+00 0. -1.
         -3    1    6    6    0  503 -0.34853239470E+03 -0.39909562204E+03 -0.85401330127E+03  0.10050327678E+04  0.00000000000E+00 0.  1.
<mgrwt>
<rscale>  0 0.16909477E+04</rscale>
<asrwt>0</asrwt>
<pdfrwt beam="1">  1        1 0.23904560E+00 0.16909477E+04</pdfrwt>
<pdfrwt beam="2">  1       -2 0.70777119E-01 0.16909477E+04</pdfrwt>
<totfact> 0.91053556E+00</totfact>
</mgrwt>
</event>
<event>
12    5  0.5041746E-008  0.1304783E+04  0.7818608E-02  0.9025780E-01
          1   -1    0    0  501    0  0.00000000000E+00  0.00000000000E+00  0.93775316972E+03  0.93775316972E+03  0.00000000000E+00 0. -1.
         -2   -1    0    0    0  501 -0.00000000000E+00 -0.00000000000E+00 -0.45386668121E+03  0.45386668121E+03  0.00000000000E+00 0.  1.
        -24    2    1    2    0    0  0.26897100850E+03  0.13142326358E+03 -0.55755563077E+02  0.31504142526E+03  0.80777095700E+02 0.  0.
        254    2    1    2    0    0 -0.26897100850E+03 -0.13142326358E+03  0.53964205158E+03  0.10765784257E+04  0.88215082904E+03 0.  0.
         23    2    4    4    0    0  0.18523835379E+03  0.19969924804E+03 -0.72507144920E+01  0.28681826721E+03  0.89549473248E+02 0.  0.
         23    2    4    4    0    0 -0.45420936230E+03 -0.33112251162E+03  0.54689276608E+03  0.78976015847E+03  0.93172677382E+02 0.  0.
          3    1    3    3  502    0  0.88863495535E+02  0.37096394364E+01 -0.22658054441E+02  0.91781641380E+02  0.00000000000E+00 0. -1.
         -4    1    3    3    0  502  0.18010751297E+03  0.12771362414E+03 -0.33097508637E+02  0.22325978388E+03  0.00000000000E+00 0.  1.
         13    1    5    5    0    0  0.17582742764E+03  0.20459673815E+03  0.60105440308E+01  0.26983557255E+03  0.00000000000E+00 0. -1.
        -13    1    5    5    0    0  0.94109261496E+01 -0.48974901054E+01 -0.13261258523E+02  0.16982694661E+02  0.00000000000E+00 0.  1.
          3    1    6    6  503    0 -0.44706872314E+03 -0.31525522733E+03  0.50542201649E+03  0.74478702749E+03  0.00000000000E+00 0. -1.
         -3    1    6    6    0  503 -0.71406391626E+01 -0.15867284290E+02  0.41470749586E+02  0.44973130974E+02  0.00000000000E+00 0.  1.
<mgrwt>
<rscale>  0 0.13047834E+04</rscale>
<asrwt>0</asrwt>
<pdfrwt beam="1">  1        1 0.14426972E+00 0.13047834E+04</pdfrwt>
<pdfrwt beam="2">  1       -2 0.69825644E-01 0.13047834E+04</pdfrwt>
<totfact> 0.27284339E+01</totfact>
</mgrwt>
</event>
<event>
12    5  0.5041746E-008  0.1823136E+04  0.7818608E-02  0.8694092E-01
          3   -1    0    0  501    0  0.00000000000E+00  0.00000000000E+00  0.14881520063E+04  0.14881520063E+04  0.00000000000E+00 0. -1.
         -4   -1    0    0    0  501 -0.00000000000E+00 -0.00000000000E+00 -0.55838098960E+03  0.55838098960E+03  0.00000000000E+00 0.  1.
        -24    2    1    2    0    0 -0.21108288926E+02  0.10767807604E+03 -0.40441407137E+03  0.42666323393E+03  0.80315914671E+02 0.  0.
        254    2    1    2    0    0  0.21108288926E+02 -0.10767807604E+03  0.13341850881E+04  0.16198697620E+04  0.91207898158E+03 0.  0.
         23    2    4    4    0    0 -0.35231738115E+03 -0.31345533931E+03  0.72725340519E+03  0.87163052997E+03  0.91980860023E+02 0.  0.
         23    2    4    4    0    0  0.37342567008E+03  0.20577726327E+03  0.60693168291E+03  0.74823923204E+03  0.98513285860E+02 0.  0.
          3    1    3    3  502    0  0.15455437261E+02  0.15492872237E+02 -0.19943081949E+02  0.29607873087E+02  0.00000000000E+00 0. -1.
         -4    1    3    3    0  502 -0.36563726187E+02  0.92185203805E+02 -0.38447098942E+03  0.39705536085E+03  0.00000000000E+00 0.  1.
         13    1    5    5    0    0 -0.67125462385E+02 -0.11336182292E+03  0.18534556459E+03  0.22739768888E+03  0.00000000000E+00 0.  1.
        -13    1    5    5    0    0 -0.28519191877E+03 -0.20009351639E+03  0.54190784060E+03  0.64423284109E+03  0.00000000000E+00 0. -1.
          3    1    6    6  503    0  0.30878169215E+03  0.12425418044E+03  0.44364261972E+03  0.55462059896E+03  0.00000000000E+00 0. -1.
         -3    1    6    6    0  503  0.64643977929E+02  0.81523082827E+02  0.16328906319E+03  0.19361863308E+03  0.00000000000E+00 0.  1.
<mgrwt>
<rscale>  0 0.18231355E+04</rscale>
<asrwt>0</asrwt>
<pdfrwt beam="1">  1        3 0.22894646E+00 0.18231355E+04</pdfrwt>
<pdfrwt beam="2">  1       -4 0.85904768E-01 0.18231355E+04</pdfrwt>
<totfact> 0.24972278E-01</totfact>
</mgrwt>
</event>
<event>
12    5  0.5041746E-008  0.1822389E+04  0.7818608E-02  0.8694483E-01
          1   -1    0    0  501    0  0.00000000000E+00  0.00000000000E+00  0.28008432610E+04  0.28008432610E+04  0.00000000000E+00 0. -1.
         -2   -1    0    0    0  501 -0.00000000000E+00 -0.00000000000E+00 -0.29643754949E+03  0.29643754949E+03  0.00000000000E+00 0.  1.
        -24    2    1    2    0    0 -0.12877937417E+03 -0.28401241137E+03  0.19934385941E+04  0.20192489892E+04  0.79510219423E+02 0.  0.
        254    2    1    2    0    0  0.12877937417E+03  0.28401241137E+03  0.51096711741E+03  0.10780318213E+04  0.89655899726E+03 0.  0.
         23    2    4    4    0    0 -0.16298029791E+03  0.52708303976E+03  0.30406733354E+03  0.63642426235E+03  0.90552692270E+02 0.  0.
         23    2    4    4    0    0  0.29175967208E+03 -0.24307062839E+03  0.20689978386E+03  0.44160755891E+03  0.89457693294E+02 0.  0.
          1    1    3    3  502    0 -0.10517307111E+03 -0.26480549198E+03  0.18923054222E+04  0.19136361029E+04  0.00000000000E+00 0. -1.
         -2    1    3    3    0  502 -0.23606303054E+02 -0.19206919390E+02  0.10113317192E+03  0.10561288633E+03  0.00000000000E+00 0.  1.
         13    1    5    5    0    0 -0.96443886509E+02  0.38933501955E+03  0.25698910066E+03  0.47636811244E+03  0.00000000000E+00 0. -1.
        -13    1    5    5    0    0 -0.66536411401E+02  0.13774802021E+03  0.47078232882E+02  0.16005614991E+03  0.00000000000E+00 0.  1.
          3    1    6    6  503    0  0.13740561097E+03 -0.13563219593E+03  0.57583457272E+02  0.20147518222E+03  0.00000000000E+00 0. -1.
         -3    1    6    6    0  503  0.15435406110E+03 -0.10743843246E+03  0.14931632659E+03  0.24013237669E+03  0.00000000000E+00 0.  1.
<mgrwt>
<rscale>  0 0.18223887E+04</rscale>
<asrwt>0</asrwt>
<pdfrwt beam="1">  1        1 0.43089895E+00 0.18223887E+04</pdfrwt>
<pdfrwt beam="2">  1       -2 0.45605779E-01 0.18223887E+04</pdfrwt>
<totfact> 0.31453217E+00</totfact>
</mgrwt>
</event>
<event>
12    5  0.5041746E-008  0.1614484E+04  0.7818608E-02  0.8811699E-01
          1   -1    0    0  501    0  0.00000000000E+00  0.00000000000E+00  0.13267780591E+04  0.13267780591E+04  0.00000000000E+00 0. -1.
         -2   -1    0    0    0  501 -0.00000000000E+00 -0.00000000000E+00 -0.49114448318E+03  0.49114448318E+03  0.00000000000E+00 0.  1.
        -24    2    1    2    0    0  0.31043694534E+03  0.97900086016E+02 -0.21177229379E+03  0.39650269193E+03  0.80070946118E+02 0.  0.
        254    2    1    2    0    0 -0.31043694534E+03 -0.97900086016E+02  0.10474058697E+04  0.14214198503E+04  0.90411272040E+03 0.  0.
         23    2    4    4    0    0 -0.57212629027E+03 -0.75775182033E+02  0.37585765868E+03  0.69435504516E+03  0.88258591241E+02 0.  0.
         23    2    4    4    0    0  0.26168934492E+03 -0.22124903983E+02  0.67154821101E+03  0.72706480517E+03  0.93141862666E+02 0.  0.
          3    1    3    3  502    0  0.32203332689E+02  0.33594770155E+02 -0.49961103490E+02  0.68277192971E+02  0.00000000000E+00 0. -1.
         -4    1    3    3    0  502  0.27823361266E+03  0.64305315861E+02 -0.16181119031E+03  0.32822549896E+03  0.00000000000E+00 0.  1.
         13    1    5    5    0    0 -0.21076284269E+03 -0.47994715397E+02  0.18621552429E+03  0.28530806167E+03  0.00000000000E+00 0.  1.
        -13    1    5    5    0    0 -0.36136344758E+03 -0.27780466636E+02  0.18964213439E+03  0.40904698350E+03  0.00000000000E+00 0. -1.
          2    1    6    6  503    0  0.26475624838E+03 -0.22296855382E+02  0.60892582590E+03  0.66436712913E+03  0.00000000000E+00 0. -1.
         -2    1    6    6    0  503 -0.30669034572E+01  0.17195139911E+00  0.62622385111E+02  0.62697676042E+02  0.00000000000E+00 0.  1.
<mgrwt>
<rscale>  0 0.16144841E+04</rscale>
<asrwt>0</asrwt>
<pdfrwt beam="1">  1        1 0.20411970E+00 0.16144841E+04</pdfrwt>
<pdfrwt beam="2">  1       -2 0.75560690E-01 0.16144841E+04</pdfrwt>
<totfact> 0.11430507E+01</totfact>
</mgrwt>
</event>
<event>
12    5  0.5041746E-008  0.2070999E+04  0.7818608E-02  0.8574127E-01
          1   -1    0    0  501    0  0.00000000000E+00  0.00000000000E+00  0.13659396046E+04  0.13659396046E+04  0.00000000000E+00 0. -1.
         -2   -1    0    0    0  501 -0.00000000000E+00 -0.00000000000E+00 -0.78499717255E+03  0.78499717255E+03  0.00000000000E+00 0.  1.
        -24    2    1    2    0    0 -0.19181533719E+03  0.44425408688E+03 -0.47849016971E+03  0.68546367818E+03  0.82175387455E+02 0.  0.
        254    2    1    2    0    0  0.19181533719E+03 -0.44425408688E+03  0.10594326018E+04  0.14654730990E+04  0.88941505995E+03 0.  0.
         23    2    4    4    0    0  0.36809484127E+03  0.11725782115E+03  0.28517583890E+03  0.48874480220E+03  0.91120874655E+02 0.  0.
         23    2    4    4    0    0 -0.17627950408E+03 -0.56151190803E+03  0.77425676287E+03  0.97672829678E+03  0.90302516368E+02 0.  0.
          1    1    3    3  502    0 -0.16950756721E+02  0.65785048531E+02 -0.33715943987E+02  0.75840395849E+02  0.00000000000E+00 0. -1.
         -4    1    3    3    0  502 -0.17486458047E+03  0.37846903835E+03 -0.44477422572E+03  0.60962328233E+03  0.00000000000E+00 0.  1.
         13    1    5    5    0    0  0.12393495202E+03  0.83317109888E+02  0.90340937110E+02  0.17453681001E+03  0.00000000000E+00 0. -1.
        -13    1    5    5    0    0  0.24415988925E+03  0.33940711265E+02  0.19483490179E+03  0.31420799219E+03  0.00000000000E+00 0.  1.
          1    1    6    6  503    0 -0.61238091058E+02 -0.32747244649E+03  0.46827792761E+03  0.57469341783E+03  0.00000000000E+00 0. -1.
         -1    1    6    6    0  503 -0.11504141302E+03 -0.23403946154E+03  0.30597883526E+03  0.40203487895E+03  0.00000000000E+00 0.  1.
<mgrwt>
<rscale>  0 0.20709985E+04</rscale>
<asrwt>0</asrwt>
<pdfrwt beam="1">  1        1 0.21014455E+00 0.20709985E+04</pdfrwt>
<pdfrwt beam="2">  1       -2 0.12076880E+00 0.20709985E+04</pdfrwt>
<totfact> 0.34335926E+00</totfact>
</mgrwt>
</event>
<event>
12    5  0.5041746E-008  0.1419544E+04  0.7818608E-02  0.8939792E-01
          1   -1    0    0  501    0  0.00000000000E+00  0.00000000000E+00  0.76463978384E+03  0.76463978384E+03  0.00000000000E+00 0. -1.
         -2   -1    0    0    0  501 -0.00000000000E+00 -0.00000000000E+00 -0.65884177228E+03  0.65884177228E+03  0.00000000000E+00 0.  1.
        -24    2    1    2    0    0 -0.35491759087E+03  0.10697858695E+03  0.23058881478E+03  0.44400710912E+03  0.80995043540E+02 0.  0.
        254    2    1    2    0    0  0.35491759087E+03 -0.10697858695E+03 -0.12479080322E+03  0.97947444700E+03  0.89799027467E+03 0.  0.
         23    2    4    4    0    0  0.65000226241E+03 -0.46811078748E+02 -0.81223564816E+02  0.66296831371E+03  0.90749651602E+02 0.  0.
         23    2    4    4    0    0 -0.29508467155E+03 -0.60167508201E+02 -0.43567238404E+02  0.31650613330E+03  0.87080053552E+02 0.  0.
          3    1    3    3  502    0 -0.35467145292E+03  0.96170554413E+02  0.22922519134E+03  0.43311061335E+03  0.00000000000E+00 0. -1.
         -4    1    3    3    0  502 -0.24613794510E+00  0.10808032536E+02  0.13636234387E+01  0.10896495770E+02  0.00000000000E+00 0.  1.
         13    1    5    5    0    0  0.85029336533E+01  0.97785896567E+01  0.35148453735E+01  0.13426646431E+02  0.00000000000E+00 0. -1.
        -13    1    5    5    0    0  0.64149932876E+03 -0.56589668405E+02 -0.84738410190E+02  0.64954166728E+03  0.00000000000E+00 0.  1.
          4    1    6    6  503    0 -0.71833511755E+02 -0.63040305771E+01 -0.48316108019E+02  0.86800002918E+02  0.00000000000E+00 0. -1.
         -4    1    6    6    0  503 -0.22325115979E+03 -0.53863477624E+02  0.47488696152E+01  0.22970613038E+03  0.00000000000E+00 0.  1.
<mgrwt>
<rscale>  0 0.14195445E+04</rscale>
<asrwt>0</asrwt>
<pdfrwt beam="1">  1        1 0.11763689E+00 0.14195445E+04</pdfrwt>
<pdfrwt beam="2">  1       -2 0.10136027E+00 0.14195445E+04</pdfrwt>
<totfact> 0.16207084E+01</totfact>
</mgrwt>
</event>
<event>
12    5  0.5041746E-008  0.1807883E+04  0.7818608E-02  0.8702118E-01
          1   -1    0    0  501    0  0.00000000000E+00  0.00000000000E+00  0.77112942769E+03  0.77112942769E+03  0.00000000000E+00 0. -1.
         -2   -1    0    0    0  501 -0.00000000000E+00 -0.00000000000E+00 -0.10596283739E+04  0.10596283739E+04  0.00000000000E+00 0.  1.
        -24    2    1    2    0    0  0.41561609515E+03 -0.53906896587E+03 -0.11340891756E+03  0.69474484181E+03  0.80478097221E+02 0.  0.
        254    2    1    2    0    0 -0.41561609515E+03  0.53906896587E+03 -0.17509002860E+03  0.11360129597E+04  0.89248912489E+03 0.  0.
         23    2    4    4    0    0  0.39835045547E+02 -0.18815617818E+03  0.93809257952E+02  0.23300581611E+03  0.92206047651E+02 0.  0.
         23    2    4    4    0    0 -0.45545114070E+03  0.72722514405E+03 -0.26889928655E+03  0.90300714362E+03  0.82600989197E+02 0.  0.
          1    1    3    3  502    0  0.20329460285E+03 -0.24175167957E+03 -0.14287343793E+02  0.31619092067E+03  0.00000000000E+00 0. -1.
         -2    1    3    3    0  502  0.21232149231E+03 -0.29731728630E+03 -0.99121573772E+02  0.37855392114E+03  0.00000000000E+00 0.  1.
         13    1    5    5    0    0 -0.24899708730E+02 -0.48712816636E+02  0.37580740813E+01  0.54836640308E+02  0.00000000000E+00 0.  1.
        -13    1    5    5    0    0  0.64734754278E+02 -0.13944336154E+03  0.90051183871E+02  0.17816917580E+03  0.00000000000E+00 0. -1.
          2    1    6    6  503    0 -0.84734858794E+02  0.18813046436E+03 -0.87076738163E+02  0.22395407173E+03  0.00000000000E+00 0.  1.
         -2    1    6    6    0  503 -0.37071628191E+03  0.53909467968E+03 -0.18182254838E+03  0.67905307188E+03  0.00000000000E+00 0. -1.
<mgrwt>
<rscale>  0 0.18078834E+04</rscale>
<asrwt>0</asrwt>
<pdfrwt beam="1">  1        1 0.11863530E+00 0.18078834E+04</pdfrwt>
<pdfrwt beam="2">  1       -2 0.16301975E+00 0.18078834E+04</pdfrwt>
<totfact> 0.46326779E+00</totfact>
</mgrwt>
</event>
<event>
12    5  0.5041746E-008  0.1707017E+04  0.7818608E-02  0.8757372E-01
         -2   -1    0    0    0  501 -0.00000000000E+00  0.00000000000E+00  0.50288745389E+03  0.50288745389E+03  0.00000000000E+00 0.  1.
          1   -1    0    0  501    0  0.00000000000E+00 -0.00000000000E+00 -0.14485881587E+04  0.14485881587E+04  0.00000000000E+00 0. -1.
        -24    2    1    2    0    0  0.46586935597E+03 -0.39414377958E+03 -0.31682731449E+03  0.69203947511E+03  0.78457071630E+02 0.  0.
        254    2    1    2    0    0 -0.46586935597E+03  0.39414377958E+03 -0.62887339030E+03  0.12594361375E+04  0.90460713435E+03 0.  0.
         23    2    4    4    0    0 -0.39769563484E+03  0.40899421841E+03  0.40565144434E+02  0.58004539837E+03  0.96793825048E+02 0.  0.
         23    2    4    4    0    0 -0.68173721131E+02 -0.14850438832E+02 -0.66943853473E+03  0.67939073910E+03  0.92496663718E+02 0.  0.
          1    1    3    3  502    0  0.30214668705E+03 -0.24234371985E+03 -0.24130160254E+03  0.45634368894E+03  0.00000000000E+00 0. -1.
         -2    1    3    3    0  502  0.16372266892E+03 -0.15180005973E+03 -0.75525711945E+02  0.23569578617E+03  0.00000000000E+00 0.  1.
         13    1    5    5    0    0 -0.19228627658E+03  0.23826593153E+03  0.60897801160E+02  0.31217496453E+03  0.00000000000E+00 0.  1.
        -13    1    5    5    0    0 -0.20540935825E+03  0.17072828688E+03 -0.20332656726E+02  0.26787043384E+03  0.00000000000E+00 0. -1.
          1    1    6    6  503    0  0.19362040984E+02 -0.19095514316E+02 -0.12312124631E+03  0.12608873301E+03  0.00000000000E+00 0. -1.
         -1    1    6    6    0  503 -0.87535762115E+02  0.42450754834E+01 -0.54631728842E+03  0.55330200609E+03  0.00000000000E+00 0.  1.
<mgrwt>
<rscale>  0 0.17070171E+04</rscale>
<asrwt>0</asrwt>
<pdfrwt beam="1">  1        1 0.22285972E+00 0.17070171E+04</pdfrwt>
<pdfrwt beam="2">  1       -2 0.77367301E-01 0.17070171E+04</pdfrwt>
<totfact> 0.88328780E+00</totfact>
</mgrwt>
</event>
<event>
12    5  0.5041746E-008  0.1916089E+04  0.7818608E-02  0.8646889E-01
          1   -1    0    0  501    0  0.00000000000E+00  0.00000000000E+00  0.13470311959E+04  0.13470311959E+04  0.00000000000E+00 0. -1.
         -2   -1    0    0    0  501 -0.00000000000E+00 -0.00000000000E+00 -0.68138672990E+03  0.68138672990E+03  0.00000000000E+00 0.  1.
        -24    2    1    2    0    0  0.28256741107E+03 -0.28640526174E+03  0.92699965590E+03  0.10137633239E+04  0.80718021774E+02 0.  0.
        254    2    1    2    0    0 -0.28256741107E+03  0.28640526174E+03 -0.26135518987E+03  0.10146546020E+04  0.89406102154E+03 0.  0.
         23    2    4    4    0    0 -0.63374653714E+02 -0.20215911199E+03  0.19810753192E+03  0.30318349453E+03  0.88255220006E+02 0.  0.
         23    2    4    4    0    0 -0.21919275736E+03  0.48856437373E+03 -0.45946272179E+03  0.71147110742E+03  0.91348409027E+02 0.  0.
          3    1    3    3  502    0  0.24423152198E+03 -0.23991000807E+03  0.70498072533E+03  0.78371147203E+03  0.00000000000E+00 0. -1.
         -4    1    3    3    0  502  0.38335889095E+02 -0.46495253666E+02  0.22201893056E+03  0.23005185184E+03  0.00000000000E+00 0.  1.
         13    1    5    5    0    0 -0.46900870725E+02 -0.13522031121E+03  0.18350218127E+03  0.23271715616E+03  0.00000000000E+00 0.  1.
        -13    1    5    5    0    0 -0.16473782989E+02 -0.66938800780E+02  0.14605350644E+02  0.70466338370E+02  0.00000000000E+00 0. -1.
          3    1    6    6  503    0 -0.13060064702E+03  0.36065961558E+03 -0.28607666504E+03  0.47850992215E+03  0.00000000000E+00 0. -1.
         -3    1    6    6    0  503 -0.88592110335E+02  0.12790475815E+03 -0.17338605675E+03  0.23296118528E+03  0.00000000000E+00 0.  1.
<mgrwt>
<rscale>  0 0.19160889E+04</rscale>
<asrwt>0</asrwt>
<pdfrwt beam="1">  1        1 0.20723557E+00 0.19160889E+04</pdfrwt>
<pdfrwt beam="2">  1       -2 0.10482873E+00 0.19160889E+04</pdfrwt>
<totfact> 0.50664352E+00</totfact>
</mgrwt>
</event>
<event>
12    5  0.5041746E-008  0.1485694E+04  0.7818608E-02  0.8894022E-01
         -2   -1    0    0    0  501 -0.00000000000E+00  0.00000000000E+00  0.53207733184E+03  0.53207733184E+03  0.00000000000E+00 0.  1.
          1   -1    0    0  501    0  0.00000000000E+00 -0.00000000000E+00 -0.10371086903E+04  0.10371086903E+04  0.00000000000E+00 0. -1.
        -24    2    1    2    0    0 -0.22518327463E+03  0.26899261530E+03 -0.48333965423E+03  0.60256952267E+03  0.80051696000E+02 0.  0.
        254    2    1    2    0    0  0.22518327463E+03 -0.26899261530E+03 -0.21691704276E+02  0.96661649953E+03  0.90045121626E+03 0.  0.
         23    2    4    4    0    0  0.26293171766E+03  0.23886387221E+03  0.18306929782E+03  0.41003453466E+03  0.91787331433E+02 0.  0.
         23    2    4    4    0    0 -0.37748443029E+02 -0.50785648752E+03 -0.20476100209E+03  0.55658196486E+03  0.92267322323E+02 0.  0.
          1    1    3    3  502    0 -0.17607114259E+03  0.17060584441E+03 -0.37623497759E+03  0.44906587463E+03  0.00000000000E+00 0. -1.
         -2    1    3    3    0  502 -0.49112132040E+02  0.98386770892E+02 -0.10710467664E+03  0.15350364803E+03  0.00000000000E+00 0.  1.
         13    1    5    5    0    0  0.79401355375E+02  0.53047602941E+02  0.84508354124E+01  0.95864696486E+02  0.00000000000E+00 0.  1.
        -13    1    5    5    0    0  0.18353036229E+03  0.18581626927E+03  0.17461846241E+03  0.31416983818E+03  0.00000000000E+00 0. -1.
          4    1    6    6  503    0 -0.23384832270E+02 -0.48796560696E+03 -0.20957107224E+03  0.53158002058E+03  0.00000000000E+00 0. -1.
         -4    1    6    6    0  503 -0.14363610759E+02 -0.19890880555E+02  0.48100701446E+01  0.25001944286E+02  0.00000000000E+00 0.  1.
<mgrwt>
<rscale>  0 0.14856945E+04</rscale>
<asrwt>0</asrwt>
<pdfrwt beam="1">  1        1 0.15955518E+00 0.14856945E+04</pdfrwt>
<pdfrwt beam="2">  1       -2 0.81858051E-01 0.14856945E+04</pdfrwt>
<totfact> 0.15780027E+01</totfact>
</mgrwt>
</event>
<event>
12    5  0.5041746E-008  0.2337799E+04  0.7818608E-02  0.8463165E-01
          1   -1    0    0  501    0  0.00000000000E+00  0.00000000000E+00  0.20515929884E+04  0.20515929884E+04  0.00000000000E+00 0. -1.
         -4   -1    0    0    0  501 -0.00000000000E+00 -0.00000000000E+00 -0.66598302213E+03  0.66598302213E+03  0.00000000000E+00 0.  1.
        -24    2    1    2    0    0  0.29455274397E+03  0.82436063812E+03  0.88029460615E+03  0.12439659386E+04  0.78745680785E+02 0.  0.
        254    2    1    2    0    0 -0.29455274397E+03 -0.82436063812E+03  0.50531536007E+03  0.14736100718E+04  0.10723111722E+04 0.  0.
         23    2    4    4    0    0  0.25539401620E+03 -0.74602691555E+03  0.14938193365E+03  0.80774293460E+03  0.91386126163E+02 0.  0.
         23    2    4    4    0    0 -0.54994676017E+03 -0.78333722566E+02  0.35593342643E+03  0.66586713724E+03  0.90071245622E+02 0.  0.
          3    1    3    3  502    0  0.98619977318E+02  0.24462532867E+03  0.31535407572E+03  0.41111512308E+03  0.00000000000E+00 0. -1.
         -4    1    3    3    0  502  0.19593276665E+03  0.57973530944E+03  0.56494053043E+03  0.83285081556E+03  0.00000000000E+00 0.  1.
         13    1    5    5    0    0  0.50115355461E+02 -0.21244893664E+03  0.77061472658E+02  0.23148341215E+03  0.00000000000E+00 0.  1.
        -13    1    5    5    0    0  0.20527866074E+03 -0.53357797891E+03  0.72320460989E+02  0.57625952245E+03  0.00000000000E+00 0. -1.
          4    1    6    6  503    0 -0.39039352830E+03 -0.92044813804E+02  0.27601465078E+03  0.48689161230E+03  0.00000000000E+00 0. -1.
         -4    1    6    6    0  503 -0.15955323188E+03  0.13711091238E+02  0.79918775650E+02  0.17897552494E+03  0.00000000000E+00 0.  1.
<mgrwt>
<rscale>  0 0.23377990E+04</rscale>
<asrwt>0</asrwt>
<pdfrwt beam="1">  1        1 0.31562969E+00 0.23377990E+04</pdfrwt>
<pdfrwt beam="2">  1       -4 0.10245893E+00 0.23377990E+04</pdfrwt>
<totfact> 0.94878869E-01</totfact>
</mgrwt>
</event>
<event>
12    5  0.5041746E-008  0.1317099E+04  0.7818608E-02  0.9016114E-01
          1   -1    0    0  501    0  0.00000000000E+00  0.00000000000E+00  0.22365140270E+04  0.22365140270E+04  0.00000000000E+00 0. -1.
         -2   -1    0    0    0  501 -0.00000000000E+00 -0.00000000000E+00 -0.19391219646E+03  0.19391219646E+03  0.00000000000E+00 0.  1.
        -24    2    1    2    0    0  0.26932927603E+02 -0.12568168078E+03  0.11172895263E+04  0.11274441567E+04  0.79203368022E+02 0.  0.
        254    2    1    2    0    0 -0.26932927603E+02  0.12568168078E+03  0.92531230431E+03  0.13029820668E+04  0.90831610048E+03 0.  0.
         23    2    4    4    0    0  0.35820377888E+03  0.27472636794E+03  0.66297410343E+03  0.80673300167E+03  0.86596476423E+02 0.  0.
         23    2    4    4    0    0 -0.38513670648E+03 -0.14904468715E+03  0.26233820088E+03  0.49624906511E+03  0.83049392146E+02 0.  0.
          3    1    3    3  502    0 -0.23883704219E+02 -0.76513512694E+02  0.57168670734E+03  0.57727847726E+03  0.00000000000E+00 0. -1.
         -4    1    3    3    0  502  0.50816631822E+02 -0.49168168090E+02  0.54560281893E+03  0.55016567945E+03  0.00000000000E+00 0.  1.
         13    1    5    5    0    0  0.49764020542E+02  0.81708623661E+02  0.14593066397E+03  0.17449503033E+03  0.00000000000E+00 0. -1.
        -13    1    5    5    0    0  0.30843975834E+03  0.19301774427E+03  0.51704343946E+03  0.63223797135E+03  0.00000000000E+00 0.  1.
          1    1    6    6  503    0 -0.52183641627E+02 -0.25567082251E+02  0.74609366512E+02  0.94569369880E+02  0.00000000000E+00 0. -1.
         -1    1    6    6    0  503 -0.33295306486E+03 -0.12347760490E+03  0.18772883437E+03  0.40167969523E+03  0.00000000000E+00 0.  1.
<mgrwt>
<rscale>  0 0.13170989E+04</rscale>
<asrwt>0</asrwt>
<pdfrwt beam="1">  1        1 0.34407906E+00 0.13170989E+04</pdfrwt>
<pdfrwt beam="2">  1       -2 0.29832647E-01 0.13170989E+04</pdfrwt>
<totfact> 0.18408718E+01</totfact>
</mgrwt>
</event>
<event>
12    5  0.5041746E-008  0.1989582E+04  0.7818608E-02  0.8611507E-01
          1   -1    0    0  501    0  0.00000000000E+00  0.00000000000E+00  0.47755672634E+04  0.47755672634E+04  0.00000000000E+00 0. -1.
         -2   -1    0    0    0  501 -0.00000000000E+00 -0.00000000000E+00 -0.20722333040E+03  0.20722333040E+03  0.00000000000E+00 0.  1.
        -24    2    1    2    0    0 -0.72705916482E+03 -0.92491534245E+02  0.25169252097E+04  0.26226821373E+04  0.79870951098E+02 0.  0.
        254    2    1    2    0    0  0.72705916482E+03  0.92491534245E+02  0.20514187233E+04  0.23601084566E+04  0.90808779053E+03 0.  0.
         23    2    4    4    0    0 -0.17976307208E+03  0.18138342330E+02  0.15636105176E+03  0.25593164305E+03  0.91697687317E+02 0.  0.
         23    2    4    4    0    0  0.90682223690E+03  0.74353191915E+02  0.18950576716E+04  0.21041768135E+04  0.91986507162E+02 0.  0.
          3    1    3    3  502    0 -0.67835070674E+03 -0.72281127474E+02  0.22752533576E+04  0.23753235746E+04  0.00000000000E+00 0. -1.
         -4    1    3    3    0  502 -0.48708458077E+02 -0.20210406772E+02  0.24167185207E+03  0.24735856265E+03  0.00000000000E+00 0.  1.
         13    1    5    5    0    0 -0.18146393619E+03  0.35723032767E+02  0.14272354943E+03  0.23361358430E+03  0.00000000000E+00 0. -1.
        -13    1    5    5    0    0  0.17008641088E+01 -0.17584690437E+02  0.13637502326E+02  0.22318058745E+02  0.00000000000E+00 0.  1.
          4    1    6    6  503    0  0.90693327689E+03  0.74947481168E+02  0.18756137058E+04  0.20847234510E+04  0.00000000000E+00 0. -1.
         -4    1    6    6    0  503 -0.11103998524E+00 -0.59428925274E+00  0.19443965755E+02  0.19453362534E+02  0.00000000000E+00 0.  1.
<mgrwt>
<rscale>  0 0.19895818E+04</rscale>
<asrwt>0</asrwt>
<pdfrwt beam="1">  1        1 0.73470258E+00 0.19895818E+04</pdfrwt>
<pdfrwt beam="2">  1       -2 0.31880516E-01 0.19895818E+04</pdfrwt>
<totfact> 0.12290605E-01</totfact>
</mgrwt>
</event>
<event>
12    5  0.5041746E-008  0.1505610E+04  0.7818608E-02  0.8880731E-01
         -2   -1    0    0    0  501 -0.00000000000E+00  0.00000000000E+00  0.30154871648E+04  0.30154871648E+04  0.00000000000E+00 0.  1.
          1   -1    0    0  501    0  0.00000000000E+00 -0.00000000000E+00 -0.18793499704E+03  0.18793499704E+03  0.00000000000E+00 0. -1.
        -24    2    1    2    0    0 -0.30421796623E+02  0.43879633764E+03  0.49729786223E+03  0.66917574805E+03  0.83805169065E+02 0.  0.
        254    2    1    2    0    0  0.30421796623E+02 -0.43879633764E+03  0.23302543055E+04  0.25342464138E+04  0.89378523467E+03 0.  0.
         23    2    4    4    0    0 -0.26645589874E+03 -0.56494020529E+03  0.12071424142E+04  0.13621987809E+04  0.90755325253E+02 0.  0.
         23    2    4    4    0    0  0.29687769536E+03  0.12614386765E+03  0.11231118913E+04  0.11720476329E+04  0.90921350134E+02 0.  0.
          1    1    3    3  502    0 -0.49059242815E+02  0.40608999198E+03  0.44144954001E+03  0.60182521322E+03  0.00000000000E+00 0. -1.
         -2    1    3    3    0  502  0.18637446192E+02  0.32706345659E+02  0.55848322215E+02  0.67350534825E+02  0.00000000000E+00 0.  1.
         13    1    5    5    0    0 -0.14734391432E+03 -0.23909452181E+03  0.47050372665E+03  0.54795088853E+03  0.00000000000E+00 0. -1.
        -13    1    5    5    0    0 -0.11911198442E+03 -0.32584568347E+03  0.73663868757E+03  0.81424789241E+03  0.00000000000E+00 0.  1.
          1    1    6    6  503    0  0.63826001277E+02  0.47588012342E+02  0.17002671318E+03  0.18774307059E+03  0.00000000000E+00 0. -1.
         -1    1    6    6    0  503  0.23305169409E+03  0.78555855306E+02  0.95308517815E+03  0.98430456228E+03  0.00000000000E+00 0.  1.
<mgrwt>
<rscale>  0 0.15056103E+04</rscale>
<asrwt>0</asrwt>
<pdfrwt beam="1">  1        1 0.28913079E-01 0.15056103E+04</pdfrwt>
<pdfrwt beam="2">  1       -2 0.46392107E+00 0.15056103E+04</pdfrwt>
<totfact> 0.38539729E-01</totfact>
</mgrwt>
</event>
<event>
12    5  0.5041746E-008  0.1350351E+04  0.7818608E-02  0.8990562E-01
          1   -1    0    0  501    0  0.00000000000E+00  0.00000000000E+00  0.53181015034E+03  0.53181015034E+03  0.00000000000E+00 0. -1.
         -2   -1    0    0    0  501 -0.00000000000E+00 -0.00000000000E+00 -0.85718956688E+03  0.85718956688E+03  0.00000000000E+00 0.  1.
        -24    2    1    2    0    0 -0.59969519767E+01  0.55471269082E+02  0.32009506815E+03  0.33406075243E+03  0.77606111432E+02 0.  0.
        254    2    1    2    0    0  0.59969519767E+01 -0.55471269082E+02 -0.64547448469E+03  0.10549389648E+04  0.83255383245E+03 0.  0.
         23    2    4    4    0    0 -0.19217021140E+03 -0.37634384482E+03 -0.43268851206E+03  0.61193658596E+03  0.93182386143E+02 0.  0.
         23    2    4    4    0    0  0.19816716338E+03  0.32087257573E+03 -0.21278597264E+03  0.44300237884E+03  0.93508304485E+02 0.  0.
          3    1    3    3  502    0  0.22855000706E+02  0.63276121907E+01  0.19690808426E+03  0.19833099451E+03  0.00000000000E+00 0. -1.
         -4    1    3    3    0  502 -0.28851952683E+02  0.49143656892E+02  0.12318698389E+03  0.13572975792E+03  0.00000000000E+00 0.  1.
         13    1    5    5    0    0 -0.59152431080E+02 -0.10378875912E+03 -0.18569538796E+03  0.22080283905E+03  0.00000000000E+00 0. -1.
        -13    1    5    5    0    0 -0.13301778032E+03 -0.27255508570E+03 -0.24699312410E+03  0.39113374691E+03  0.00000000000E+00 0.  1.
          2    1    6    6  503    0  0.17393902844E+03  0.22329766583E+03 -0.12456543282E+03  0.30924614829E+03  0.00000000000E+00 0. -1.
         -2    1    6    6    0  503  0.24228134940E+02  0.97574909902E+02 -0.88220539814E+02  0.13375623055E+03  0.00000000000E+00 0.  1.
<mgrwt>
<rscale>  0 0.13503512E+04</rscale>
<asrwt>0</asrwt>
<pdfrwt beam="1">  1        1 0.81816946E-01 0.13503512E+04</pdfrwt>
<pdfrwt beam="2">  1       -2 0.13187532E+00 0.13503512E+04</pdfrwt>
<totfact> 0.14575689E+01</totfact>
</mgrwt>
</event>
<event>
12    5  0.5041746E-008  0.2138427E+04  0.7818608E-02  0.8544502E-01
          1   -1    0    0  501    0  0.00000000000E+00  0.00000000000E+00  0.10340621818E+04  0.10340621818E+04  0.00000000000E+00 0. -1.
         -2   -1    0    0    0  501 -0.00000000000E+00 -0.00000000000E+00 -0.11055595164E+04  0.11055595164E+04  0.00000000000E+00 0.  1.
        -24    2    1    2    0    0  0.76282569787E+03 -0.18139467326E+02  0.40289850936E+03  0.86652405617E+03  0.79401797659E+02 0.  0.
        254    2    1    2    0    0 -0.76282569787E+03  0.18139467326E+02 -0.47439584396E+03  0.12730976420E+04  0.90193907980E+03 0.  0.
         23    2    4    4    0    0 -0.48273399936E+03 -0.26036013417E+03  0.10496686751E+03  0.56584001796E+03  0.91309194778E+02 0.  0.
         23    2    4    4    0    0 -0.28009169851E+03  0.27849960149E+03 -0.57936271147E+03  0.70725762403E+03  0.92405669162E+02 0.  0.
          3    1    3    3  502    0  0.74825684764E+03 -0.27280310375E+02  0.38592604335E+03  0.84236063317E+03  0.00000000000E+00 0. -1.
         -4    1    3    3    0  502  0.14568850224E+02  0.91408430487E+01  0.16972466011E+02  0.24163422999E+02  0.00000000000E+00 0.  1.
         13    1    5    5    0    0 -0.38729349672E+03 -0.24157332841E+03  0.66672655689E+02  0.46130160266E+03  0.00000000000E+00 0. -1.
        -13    1    5    5    0    0 -0.95440502642E+02 -0.18786805760E+02  0.38294211825E+02  0.10453841530E+03  0.00000000000E+00 0.  1.
          3    1    6    6  503    0 -0.12217937233E+03  0.16171957992E+03 -0.23074633511E+03  0.30712357891E+03  0.00000000000E+00 0. -1.
         -3    1    6    6    0  503 -0.15791232618E+03  0.11678002157E+03 -0.34861637635E+03  0.40013404512E+03  0.00000000000E+00 0.  1.
<mgrwt>
<rscale>  0 0.21384268E+04</rscale>
<asrwt>0</asrwt>
<pdfrwt beam="1">  1        1 0.15908649E+00 0.21384268E+04</pdfrwt>
<pdfrwt beam="2">  1       -2 0.17008608E+00 0.21384268E+04</pdfrwt>
<totfact> 0.24348800E+00</totfact>
</mgrwt>
</event>
<event>
12    5  0.5041746E-008  0.1889000E+04  0.7818608E-02  0.8660351E-01
         -2   -1    0    0    0  501 -0.00000000000E+00  0.00000000000E+00  0.83347687864E+03  0.83347687864E+03  0.00000000000E+00 0.  1.
          1   -1    0    0  501    0  0.00000000000E+00 -0.00000000000E+00 -0.10703115387E+04  0.10703115387E+04  0.00000000000E+00 0. -1.
        -24    2    1    2    0    0  0.40262984643E+03  0.34446460637E+03  0.39973582095E+03  0.66983884723E+03  0.90159283657E+02 0.  0.
        254    2    1    2    0    0 -0.40262984643E+03 -0.34446460637E+03 -0.63657048101E+03  0.12339495701E+04  0.91468186054E+03 0.  0.
         23    2    4    4    0    0 -0.11094704260E+03  0.15274885401E+03  0.14777400527E+03  0.25619999093E+03  0.90331722315E+02 0.  0.
         23    2    4    4    0    0 -0.29168280383E+03 -0.49721346038E+03 -0.78434448628E+03  0.97774957917E+03  0.92183963775E+02 0.  0.
          3    1    3    3  502    0  0.11122734193E+03  0.74152525122E+02  0.58249272255E+02  0.14581871037E+03  0.00000000000E+00 0. -1.
         -4    1    3    3    0  502  0.29140250450E+03  0.27031208125E+03  0.34148654870E+03  0.52402013686E+03  0.00000000000E+00 0.  1.
         13    1    5    5    0    0 -0.67712098332E+02  0.54256188877E+02  0.19750548092E+02  0.88987338661E+02  0.00000000000E+00 0. -1.
        -13    1    5    5    0    0 -0.43234944264E+02  0.98492665135E+02  0.12802345718E+03  0.16721265227E+03  0.00000000000E+00 0.  1.
          2    1    6    6  503    0 -0.69669624938E+02 -0.14062539366E+03 -0.28382828262E+03  0.32432676732E+03  0.00000000000E+00 0. -1.
         -2    1    6    6    0  503 -0.22201317889E+03 -0.35658806672E+03 -0.50051620366E+03  0.65342281186E+03  0.00000000000E+00 0.  1.
<mgrwt>
<rscale>  0 0.18889997E+04</rscale>
<asrwt>0</asrwt>
<pdfrwt beam="1">  1        1 0.16466331E+00 0.18889997E+04</pdfrwt>
<pdfrwt beam="2">  1       -2 0.12822721E+00 0.18889997E+04</pdfrwt>
<totfact> 0.49303222E+00</totfact>
</mgrwt>
</event>
<event>
12    5  0.5041746E-008  0.2324320E+04  0.7818608E-02  0.8468393E-01
         -2   -1    0    0    0  501 -0.00000000000E+00  0.00000000000E+00  0.13584230033E+04  0.13584230033E+04  0.00000000000E+00 0.  1.
          1   -1    0    0  501    0  0.00000000000E+00 -0.00000000000E+00 -0.99425261577E+03  0.99425261577E+03  0.00000000000E+00 0. -1.
        -24    2    1    2    0    0 -0.83777602232E+02 -0.56178276157E+03  0.96301460248E+03  0.11211138685E+04  0.82949524972E+02 0.  0.
        254    2    1    2    0    0  0.83777602232E+02  0.56178276157E+03 -0.59884421497E+03  0.12315617506E+04  0.91406312354E+03 0.  0.
         23    2    4    4    0    0 -0.33820049583E+03  0.36252907403E+03 -0.52738815018E+02  0.50636146811E+03  0.88394846472E+02 0.  0.
         23    2    4    4    0    0  0.42197809806E+03  0.19925368754E+03 -0.54610539995E+03  0.72520028246E+03  0.99583103900E+02 0.  0.
          3    1    3    3  502    0 -0.55927928603E+02 -0.21348794713E+03  0.43802129006E+03  0.49047699978E+03  0.00000000000E+00 0. -1.
         -4    1    3    3    0  502 -0.27849673629E+02 -0.34829481444E+03  0.52499331242E+03  0.63063686871E+03  0.00000000000E+00 0.  1.
         13    1    5    5    0    0 -0.26296810977E+03  0.26948496216E+03 -0.76875774511E+02  0.38429709379E+03  0.00000000000E+00 0. -1.
        -13    1    5    5    0    0 -0.75232386055E+02  0.93044111868E+02  0.24136959492E+02  0.12206437432E+03  0.00000000000E+00 0.  1.
          4    1    6    6  503    0  0.22877510960E+03  0.10335989924E+03 -0.36803165709E+03  0.44549817077E+03  0.00000000000E+00 0. -1.
         -4    1    6    6    0  503  0.19320298846E+03  0.95893788304E+02 -0.17807374286E+03  0.27970211168E+03  0.00000000000E+00 0.  1.
<mgrwt>
<rscale>  0 0.23243198E+04</rscale>
<asrwt>0</asrwt>
<pdfrwt beam="1">  1        1 0.15296194E+00 0.23243198E+04</pdfrwt>
<pdfrwt beam="2">  1       -2 0.20898815E+00 0.23243198E+04</pdfrwt>
<totfact> 0.14054309E+00</totfact>
</mgrwt>
</event>
<event>
12    5  0.5041746E-008  0.2244006E+04  0.7818608E-02  0.8500332E-01
          1   -1    0    0  501    0  0.00000000000E+00  0.00000000000E+00  0.36056397132E+04  0.36056397132E+04  0.00000000000E+00 0. -1.
         -2   -1    0    0    0  501 -0.00000000000E+00 -0.00000000000E+00 -0.34914501830E+03  0.34914501830E+03  0.00000000000E+00 0.  1.
        -24    2    1    2    0    0  0.97392280440E+02 -0.83922569365E+03  0.64845023312E+03  0.10684253545E+04  0.85205704790E+02 0.  0.
        254    2    1    2    0    0 -0.97392280440E+02  0.83922569365E+03  0.26080444618E+04  0.28863593771E+04  0.90298921228E+03 0.  0.
         23    2    4    4    0    0  0.26775664025E+03  0.66485574759E+03  0.21541204580E+04  0.22720841558E+04  0.91677043811E+02 0.  0.
         23    2    4    4    0    0 -0.36514892069E+03  0.17436994606E+03  0.45392400386E+03  0.61427522120E+03  0.86881722659E+02 0.  0.
          3    1    3    3  502    0  0.51100645510E+02 -0.34312320204E+03  0.21588040048E+03  0.40859412020E+03  0.00000000000E+00 0. -1.
         -4    1    3    3    0  502  0.46291634930E+02 -0.49610249161E+03  0.43256983264E+03  0.65983123430E+03  0.00000000000E+00 0.  1.
         13    1    5    5    0    0  0.80713676543E+02  0.11125503833E+03  0.36987170470E+03  0.39458517341E+03  0.00000000000E+00 0. -1.
        -13    1    5    5    0    0  0.18704296371E+03  0.55360070927E+03  0.17842487533E+04  0.18774989824E+04  0.00000000000E+00 0.  1.
          4    1    6    6  503    0 -0.20174551152E+03  0.87792629034E+02  0.18257870685E+03  0.28590869404E+03  0.00000000000E+00 0.  1.
         -4    1    6    6    0  503 -0.16340340916E+03  0.86577317023E+02  0.27134529701E+03  0.32836652716E+03  0.00000000000E+00 0. -1.
<mgrwt>
<rscale>  0 0.22440064E+04</rscale>
<asrwt>0</asrwt>
<pdfrwt beam="1">  1        1 0.55471377E+00 0.22440064E+04</pdfrwt>
<pdfrwt beam="2">  1       -2 0.53714621E-01 0.22440064E+04</pdfrwt>
<totfact> 0.53816272E-01</totfact>
</mgrwt>
</event>
<event>
12    5  0.5041746E-008  0.1295407E+04  0.7818608E-02  0.9033216E-01
          1   -1    0    0  501    0  0.00000000000E+00  0.00000000000E+00  0.22285637783E+04  0.22285637783E+04  0.00000000000E+00 0. -1.
         -2   -1    0    0    0  501 -0.00000000000E+00 -0.00000000000E+00 -0.18824658404E+03  0.18824658404E+03  0.00000000000E+00 0.  1.
        -24    2    1    2    0    0 -0.52665539108E+02 -0.35897955142E+02  0.11444015200E+04  0.11488096304E+04  0.77758637630E+02 0.  0.
        254    2    1    2    0    0  0.52665539108E+02  0.35897955142E+02  0.89591567422E+03  0.12680007319E+04  0.89504113793E+03 0.  0.
         23    2    4    4    0    0 -0.61034462908E+02 -0.94364088149E+02 -0.14689823256E+03  0.20687972396E+03  0.92684101463E+02 0.  0.
         23    2    4    4    0    0  0.11370000202E+03  0.13026204329E+03  0.10428139068E+04  0.10611210079E+04  0.92849657664E+02 0.  0.
          1    1    3    3  502    0 -0.55383927721E+01 -0.48013279425E+02  0.72170900864E+03  0.72332554355E+03  0.00000000000E+00 0. -1.
         -2    1    3    3    0  502 -0.47127146336E+02  0.12115324284E+02  0.42269251136E+03  0.42548408686E+03  0.00000000000E+00 0.  1.
         13    1    5    5    0    0 -0.75088379125E+02 -0.33631704706E+02 -0.95756271464E+02  0.12624824658E+03  0.00000000000E+00 0. -1.
        -13    1    5    5    0    0  0.14053916217E+02 -0.60732383443E+02 -0.51141961092E+02  0.80631477378E+02  0.00000000000E+00 0.  1.
          3    1    6    6  503    0  0.12359550708E+03  0.89723053208E+02  0.87271490807E+03  0.88597820877E+03  0.00000000000E+00 0. -1.
         -3    1    6    6    0  503 -0.98955050665E+01  0.40538990083E+02  0.17009899871E+03  0.17514279917E+03  0.00000000000E+00 0.  1.
<mgrwt>
<rscale>  0 0.12954065E+04</rscale>
<asrwt>0</asrwt>
<pdfrwt beam="1">  1        1 0.34285595E+00 0.12954065E+04</pdfrwt>
<pdfrwt beam="2">  1       -2 0.28961014E-01 0.12954065E+04</pdfrwt>
<totfact> 0.19732821E+01</totfact>
</mgrwt>
</event>
<event>
12    5  0.5041746E-008  0.1687362E+04  0.7818608E-02  0.8768605E-01
         -2   -1    0    0    0  501 -0.00000000000E+00  0.00000000000E+00  0.20107962678E+04  0.20107962678E+04  0.00000000000E+00 0.  1.
          1   -1    0    0  501    0  0.00000000000E+00 -0.00000000000E+00 -0.35398807324E+03  0.35398807324E+03  0.00000000000E+00 0. -1.
        -24    2    1    2    0    0 -0.20519100225E+03 -0.43875058724E+03  0.11058065966E+04  0.12099849849E+04  0.81547590725E+02 0.  0.
        254    2    1    2    0    0  0.20519100225E+03  0.43875058724E+03  0.55100159801E+03  0.11547993561E+04  0.89182586118E+03 0.  0.
         23    2    4    4    0    0  0.43044015791E+03  0.56321560153E+03  0.27272186445E+03  0.76488640169E+03  0.90462416475E+02 0.  0.
         23    2    4    4    0    0 -0.22524915566E+03 -0.12446501428E+03  0.27827973356E+03  0.38991295442E+03  0.91453704200E+02 0.  0.
          1    1    3    3  502    0 -0.28021361659E+02 -0.13887720571E+03  0.28251815866E+03  0.31605155426E+03  0.00000000000E+00 0. -1.
         -2    1    3    3    0  502 -0.17716964059E+03 -0.29987338153E+03  0.82328843791E+03  0.89393343068E+03  0.00000000000E+00 0.  1.
         13    1    5    5    0    0  0.28610619885E+03  0.40863225080E+03  0.22916551645E+03  0.54895710884E+03  0.00000000000E+00 0. -1.
        -13    1    5    5    0    0  0.14433395906E+03  0.15458335073E+03  0.43556348000E+02  0.21592929285E+03  0.00000000000E+00 0.  1.
          4    1    6    6  503    0 -0.49007674256E+02  0.94375169663E+01  0.70127258200E+02  0.86073522091E+02  0.00000000000E+00 0. -1.
         -4    1    6    6    0  503 -0.17624148141E+03 -0.13390253125E+03  0.20815247536E+03  0.30383943233E+03  0.00000000000E+00 0.  1.
<mgrwt>
<rscale>  0 0.16873623E+04</rscale>
<asrwt>0</asrwt>
<pdfrwt beam="1">  1        1 0.54459705E-01 0.16873623E+04</pdfrwt>
<pdfrwt beam="2">  1       -2 0.30935326E+00 0.16873623E+04</pdfrwt>
<totfact> 0.16407656E+00</totfact>
</mgrwt>
</event>
<event>
12    5  0.5041746E-008  0.1699451E+04  0.7818608E-02  0.8761678E-01
          1   -1    0    0  501    0  0.00000000000E+00  0.00000000000E+00  0.15270127442E+04  0.15270127442E+04  0.00000000000E+00 0. -1.
         -2   -1    0    0    0  501 -0.00000000000E+00 -0.00000000000E+00 -0.47284039147E+03  0.47284039147E+03  0.00000000000E+00 0.  1.
        -24    2    1    2    0    0  0.24275349576E+03  0.27295501626E+03  0.94854524343E+03  0.10196134272E+04  0.80248124380E+02 0.  0.
        254    2    1    2    0    0 -0.24275349576E+03 -0.27295501626E+03  0.10562710933E+03  0.98023970851E+03  0.90348165411E+03 0.  0.
         23    2    4    4    0    0  0.24332717413E+03 -0.21326058158E+03  0.29432327828E+03  0.44778136417E+03  0.95884141744E+02 0.  0.
         23    2    4    4    0    0 -0.48608066989E+03 -0.59694434686E+02 -0.18869616895E+03  0.53245834434E+03  0.89820939132E+02 0.  0.
          3    1    3    3  502    0  0.23527613912E+03  0.27853890261E+03  0.92196395894E+03  0.99144153811E+03  0.00000000000E+00 0. -1.
         -4    1    3    3    0  502  0.74773566429E+01 -0.55838863521E+01  0.26581284490E+02  0.28171889079E+02  0.00000000000E+00 0.  1.
         13    1    5    5    0    0  0.17446054680E+03 -0.94133719619E+02  0.19508077239E+03  0.27812613562E+03  0.00000000000E+00 0.  1.
        -13    1    5    5    0    0  0.68866627330E+02 -0.11912686196E+03  0.99242505892E+02  0.16965522855E+03  0.00000000000E+00 0. -1.
          1    1    6    6  503    0 -0.53190910584E+02  0.21358302816E+02 -0.26223071105E+02  0.63032527524E+02  0.00000000000E+00 0. -1.
         -1    1    6    6    0  503 -0.43288975931E+03 -0.81052737502E+02 -0.16247309784E+03  0.46942581682E+03  0.00000000000E+00 0.  1.
<mgrwt>
<rscale>  0 0.16994509E+04</rscale>
<asrwt>0</asrwt>
<pdfrwt beam="1">  1        1 0.23492503E+00 0.16994509E+04</pdfrwt>
<pdfrwt beam="2">  1       -2 0.72744677E-01 0.16994509E+04</pdfrwt>
<totfact> 0.89393117E+00</totfact>
</mgrwt>
</event>
<event>
12    5  0.5041746E-008  0.1735220E+04  0.7818608E-02  0.8741528E-01
         -2   -1    0    0    0  501 -0.00000000000E+00  0.00000000000E+00  0.58876384071E+03  0.58876384071E+03  0.00000000000E+00 0.  1.
          1   -1    0    0  501    0  0.00000000000E+00 -0.00000000000E+00 -0.12785208985E+04  0.12785208985E+04  0.00000000000E+00 0. -1.
        -24    2    1    2    0    0 -0.16414592429E+03 -0.47647268232E+03  0.19685128952E+03  0.54675851176E+03  0.78894477259E+02 0.  0.
        254    2    1    2    0    0  0.16414592429E+03  0.47647268232E+03 -0.88660834736E+03  0.13205262275E+04  0.83889513912E+03 0.  0.
         23    2    4    4    0    0  0.18474214124E+03  0.13752410725E+03  0.10432696050E+03  0.26901269218E+03  0.91875867557E+02 0.  0.
         23    2    4    4    0    0 -0.20596216957E+02  0.33894857507E+03 -0.99093530786E+03  0.10515135353E+04  0.91747424419E+02 0.  0.
          3    1    3    3  502    0  0.13910687326E+01 -0.19746468965E+02 -0.54313634223E+01  0.20527002154E+02  0.00000000000E+00 0. -1.
         -4    1    3    3    0  502 -0.16553699302E+03 -0.45672621335E+03  0.20228265294E+03  0.52623150960E+03  0.00000000000E+00 0.  1.
         13    1    5    5    0    0  0.16084417334E+03  0.14829122028E+03  0.79097463246E+02  0.23263177514E+03  0.00000000000E+00 0.  1.
        -13    1    5    5    0    0  0.23897967901E+02 -0.10767113035E+02  0.25229497258E+02  0.36380917042E+02  0.00000000000E+00 0. -1.
          2    1    6    6  503    0  0.31652870347E+02  0.58886570085E+02 -0.18732409893E+03  0.19889658212E+03  0.00000000000E+00 0. -1.
         -2    1    6    6    0  503 -0.52249087304E+02  0.28006200498E+03 -0.80361120893E+03  0.85261695319E+03  0.00000000000E+00 0.  1.
<mgrwt>
<rscale>  0 0.17352197E+04</rscale>
<asrwt>0</asrwt>
<pdfrwt beam="1">  1        1 0.19669552E+00 0.17352197E+04</pdfrwt>
<pdfrwt beam="2">  1       -2 0.90579052E-01 0.17352197E+04</pdfrwt>
<totfact> 0.81228176E+00</totfact>
</mgrwt>
</event>
<event>
12    5  0.5041746E-008  0.1335435E+04  0.7818608E-02  0.9001927E-01
          1   -1    0    0  501    0  0.00000000000E+00  0.00000000000E+00  0.14316068485E+04  0.14316068485E+04  0.00000000000E+00 0. -1.
         -2   -1    0    0    0  501 -0.00000000000E+00 -0.00000000000E+00 -0.31143105179E+03  0.31143105179E+03  0.00000000000E+00 0.  1.
        -24    2    1    2    0    0  0.26278284761E+03 -0.24327934591E+03  0.38580191139E+03  0.53229764236E+03  0.79107522312E+02 0.  0.
        254    2    1    2    0    0 -0.26278284761E+03  0.24327934591E+03  0.73437388532E+03  0.12107402579E+04  0.89350282795E+03 0.  0.
         23    2    4    4    0    0  0.20373908696E+03  0.40008763539E+03  0.40010237150E+03  0.60836442892E+03  0.91900158587E+02 0.  0.
         23    2    4    4    0    0 -0.46652193457E+03 -0.15680828948E+03  0.33427151382E+03  0.60237582899E+03  0.94274277089E+02 0.  0.
          1    1    3    3  502    0  0.17552196155E+03 -0.11621880467E+03  0.25041572205E+03  0.32714339883E+03  0.00000000000E+00 0. -1.
         -2    1    3    3    0  502  0.87260886053E+02 -0.12706054124E+03  0.13538618934E+03  0.20515424353E+03  0.00000000000E+00 0.  1.
         13    1    5    5    0    0  0.26345247181E+02  0.16289045517E+02  0.52735396489E+02  0.61159031187E+02  0.00000000000E+00 0.  1.
        -13    1    5    5    0    0  0.17739383978E+03  0.38379858987E+03  0.34736697501E+03  0.54720539773E+03  0.00000000000E+00 0. -1.
          4    1    6    6  503    0 -0.35127759996E+03 -0.14451218877E+03  0.29163038155E+03  0.47888203598E+03  0.00000000000E+00 0. -1.
         -4    1    6    6    0  503 -0.11524433461E+03 -0.12296100705E+02  0.42641132262E+02  0.12349379301E+03  0.00000000000E+00 0.  1.
<mgrwt>
<rscale>  0 0.13354352E+04</rscale>
<asrwt>0</asrwt>
<pdfrwt beam="1">  1        1 0.22024720E+00 0.13354352E+04</pdfrwt>
<pdfrwt beam="2">  1       -2 0.47912470E-01 0.13354352E+04</pdfrwt>
<totfact> 0.25903270E+01</totfact>
</mgrwt>
</event>
<event>
12    5  0.5041746E-008  0.2080012E+04  0.7818608E-02  0.8570100E-01
          1   -1    0    0  501    0  0.00000000000E+00  0.00000000000E+00  0.15082150952E+04  0.15082150952E+04  0.00000000000E+00 0. -1.
         -2   -1    0    0    0  501 -0.00000000000E+00 -0.00000000000E+00 -0.71714705598E+03  0.71714705598E+03  0.00000000000E+00 0.  1.
        -24    2    1    2    0    0  0.78785019954E+03 -0.55401395658E+02  0.38694867169E+01  0.79321022373E+03  0.73418216680E+02 0.  0.
        254    2    1    2    0    0 -0.78785019954E+03  0.55401395658E+02  0.78719855252E+03  0.14321519275E+04  0.89866586155E+03 0.  0.
         23    2    4    4    0    0 -0.13040137879E+03  0.36195907494E+03  0.60040107958E+02  0.40074927530E+03  0.94743208526E+02 0.  0.
         23    2    4    4    0    0 -0.65744882075E+03 -0.30655767929E+03  0.72715844456E+03  0.10314026522E+04  0.93890706578E+02 0.  0.
          1    1    3    3  502    0  0.70511224151E+03 -0.48230753458E+02  0.26088576693E+02  0.70724118413E+03  0.00000000000E+00 0. -1.
         -2    1    3    3    0  502  0.82737958039E+02 -0.71706422004E+01 -0.22219089976E+02  0.85969039597E+02  0.00000000000E+00 0.  1.
         13    1    5    5    0    0 -0.81322182073E+02  0.97658420739E+02  0.26841505350E+02  0.12988814745E+03  0.00000000000E+00 0. -1.
        -13    1    5    5    0    0 -0.49079196721E+02  0.26430065421E+03  0.33198602608E+02  0.27086112785E+03  0.00000000000E+00 0.  1.
          2    1    6    6  503    0 -0.44380678799E+02 -0.17868182009E+02  0.86552733952E+02  0.98895360526E+02  0.00000000000E+00 0. -1.
         -2    1    6    6    0  503 -0.61306814195E+03 -0.28868949728E+03  0.64060571061E+03  0.93250729165E+03  0.00000000000E+00 0.  1.
<mgrwt>
<rscale>  0 0.20800116E+04</rscale>
<asrwt>0</asrwt>
<pdfrwt beam="1">  1        1 0.23203309E+00 0.20800116E+04</pdfrwt>
<pdfrwt beam="2">  1       -2 0.11033032E+00 0.20800116E+04</pdfrwt>
<totfact> 0.34056623E+00</totfact>
</mgrwt>
</event>
<event>
12    5  0.5041746E-008  0.3045965E+04  0.7818608E-02  0.8230726E-01
         -2   -1    0    0    0  501 -0.00000000000E+00  0.00000000000E+00  0.11500998439E+04  0.11500998439E+04  0.00000000000E+00 0.  1.
          1   -1    0    0  501    0  0.00000000000E+00 -0.00000000000E+00 -0.20167597826E+04  0.20167597826E+04  0.00000000000E+00 0. -1.
        -24    2    1    2    0    0 -0.11962664896E+03  0.10120841409E+04 -0.13751150095E+04  0.17137586754E+04  0.86038740206E+02 0.  0.
        254    2    1    2    0    0  0.11962664896E+03 -0.10120841409E+04  0.50845507086E+03  0.14531009510E+04  0.90241396898E+03 0.  0.
         23    2    4    4    0    0  0.29130676646E+03 -0.83201691764E+03  0.69734886409E+03  0.11278080031E+04  0.92431975387E+02 0.  0.
         23    2    4    4    0    0 -0.17168011750E+03 -0.18006722324E+03 -0.18889379324E+03  0.32529294797E+03  0.90754444754E+02 0.  0.
          3    1    3    3  502    0 -0.11349107630E+03  0.94514936358E+03 -0.12441865804E+04  0.15665847537E+04  0.00000000000E+00 0. -1.
         -4    1    3    3    0  502 -0.61355726634E+01  0.66934777306E+02 -0.13092842915E+03  0.14717392169E+03  0.00000000000E+00 0.  1.
         13    1    5    5    0    0  0.10175859772E+03 -0.20041704475E+03  0.21249626463E+03  0.30931612716E+03  0.00000000000E+00 0.  1.
        -13    1    5    5    0    0  0.18954816875E+03 -0.63159987289E+03  0.48485259946E+03  0.81849187590E+03  0.00000000000E+00 0. -1.
          3    1    6    6  503    0 -0.64680606113E+02 -0.95566910190E+02 -0.13769006229E+03  0.17965291087E+03  0.00000000000E+00 0. -1.
         -3    1    6    6    0  503 -0.10699951139E+03 -0.84500313052E+02 -0.51203730948E+02  0.14564003710E+03  0.00000000000E+00 0.  1.
<mgrwt>
<rscale>  0 0.30459646E+04</rscale>
<asrwt>0</asrwt>
<pdfrwt beam="1">  1        1 0.31027073E+00 0.30459646E+04</pdfrwt>
<pdfrwt beam="2">  1       -2 0.17693844E+00 0.30459646E+04</pdfrwt>
<totfact> 0.41201681E-01</totfact>
</mgrwt>
</event>
<event>
12    5  0.5041746E-008  0.1637011E+04  0.7818608E-02  0.8798128E-01
          1   -1    0    0  501    0  0.00000000000E+00  0.00000000000E+00  0.15289095383E+04  0.15289095383E+04  0.00000000000E+00 0. -1.
         -2   -1    0    0    0  501 -0.00000000000E+00 -0.00000000000E+00 -0.43818917003E+03  0.43818917003E+03  0.00000000000E+00 0.  1.
        -24    2    1    2    0    0 -0.12971860512E+03  0.50403634755E+03  0.33348936032E+03  0.62625538070E+03  0.10050419022E+03 0.  0.
        254    2    1    2    0    0  0.12971860512E+03 -0.50403634755E+03  0.75723100795E+03  0.13408433276E+04  0.97651547540E+03 0.  0.
         23    2    4    4    0    0 -0.40240435483E+02 -0.59966325762E+03  0.89638172620E+03  0.10831675515E+04  0.92392804632E+02 0.  0.
         23    2    4    4    0    0  0.16995904060E+03  0.95626910073E+02 -0.13915071825E+03  0.25767577614E+03  0.94885730266E+02 0.  0.
          3    1    3    3  502    0 -0.17599564537E+02  0.17279301132E+03  0.15883447136E+03  0.23536261114E+03  0.00000000000E+00 0. -1.
         -4    1    3    3    0  502 -0.11211904058E+03  0.33124333623E+03  0.17465488896E+03  0.39089276956E+03  0.00000000000E+00 0.  1.
         13    1    5    5    0    0  0.30100344618E+02 -0.20121664551E+03  0.30266626755E+03  0.36469307464E+03  0.00000000000E+00 0.  1.
        -13    1    5    5    0    0 -0.70340780101E+02 -0.39844661211E+03  0.59371545865E+03  0.71847447685E+03  0.00000000000E+00 0. -1.
          4    1    6    6  503    0  0.11432738501E+03  0.10526173601E+02 -0.81501074198E+02  0.14079764341E+03  0.00000000000E+00 0. -1.
         -4    1    6    6    0  503  0.55631655593E+02  0.85100736472E+02 -0.57649644054E+02  0.11687813274E+03  0.00000000000E+00 0.  1.
<mgrwt>
<rscale>  0 0.16370114E+04</rscale>
<asrwt>0</asrwt>
<pdfrwt beam="1">  1        1 0.23521685E+00 0.16370114E+04</pdfrwt>
<pdfrwt beam="2">  1       -2 0.67413719E-01 0.16370114E+04</pdfrwt>
<totfact> 0.10580800E+01</totfact>
</mgrwt>
</event>
<event>
12    5  0.5041746E-008  0.2237482E+04  0.7818608E-02  0.8502987E-01
         -2   -1    0    0    0  501 -0.00000000000E+00  0.00000000000E+00  0.18873702799E+04  0.18873702799E+04  0.00000000000E+00 0.  1.
          1   -1    0    0  501    0  0.00000000000E+00 -0.00000000000E+00 -0.66313487711E+03  0.66313487711E+03  0.00000000000E+00 0. -1.
        -24    2    1    2    0    0 -0.64743240785E+03  0.66270151994E+03  0.65872634562E+03  0.11396283163E+04  0.80562234567E+02 0.  0.
        254    2    1    2    0    0  0.64743240785E+03 -0.66270151994E+03  0.56550905713E+03  0.14108768407E+04  0.90134950966E+03 0.  0.
         23    2    4    4    0    0  0.57568569603E+03 -0.82047950075E+03  0.24633972135E+03  0.10361989155E+04  0.91783998970E+02 0.  0.
         23    2    4    4    0    0  0.71746711824E+02  0.15777798080E+03  0.31916933578E+03  0.37467792514E+03  0.92048904403E+02 0.  0.
          1    1    3    3  502    0 -0.44815515698E+03  0.46602724337E+03  0.50364136064E+03  0.81956028237E+03  0.00000000000E+00 0. -1.
         -2    1    3    3    0  502 -0.19927725087E+03  0.19667427658E+03  0.15508498498E+03  0.32006803394E+03  0.00000000000E+00 0.  1.
         13    1    5    5    0    0  0.42435317921E+03 -0.64683966437E+03  0.15847524718E+03  0.78967814714E+03  0.00000000000E+00 0.  1.
        -13    1    5    5    0    0  0.15133251681E+03 -0.17363983638E+03  0.87864474168E+02  0.24652076838E+03  0.00000000000E+00 0. -1.
          3    1    6    6  503    0 -0.19509682234E+02  0.33278575185E+02  0.94694241741E+02  0.10225013783E+03  0.00000000000E+00 0. -1.
         -3    1    6    6    0  503  0.91256394057E+02  0.12449940562E+03  0.22447509404E+03  0.27242778731E+03  0.00000000000E+00 0.  1.
<mgrwt>
<rscale>  0 0.22374817E+04</rscale>
<asrwt>0</asrwt>
<pdfrwt beam="1">  1        1 0.10202075E+00 0.22374817E+04</pdfrwt>
<pdfrwt beam="2">  1       -2 0.29036466E+00 0.22374817E+04</pdfrwt>
<totfact> 0.85715096E-01</totfact>
</mgrwt>
</event>
<event>
12    5  0.5041746E-008  0.1761263E+04  0.7818608E-02  0.8727175E-01
          1   -1    0    0  501    0  0.00000000000E+00  0.00000000000E+00  0.63322050655E+03  0.63322050655E+03  0.00000000000E+00 0. -1.
         -2   -1    0    0    0  501 -0.00000000000E+00 -0.00000000000E+00 -0.12247101200E+04  0.12247101200E+04  0.00000000000E+00 0.  1.
        -24    2    1    2    0    0  0.16902712998E+03  0.61543282507E+03 -0.95941268332E+02  0.65258475819E+03  0.96614733924E+02 0.  0.
        254    2    1    2    0    0 -0.16902712998E+03 -0.61543282507E+03 -0.49554834513E+03  0.12053458684E+04  0.89440637697E+03 0.  0.
         23    2    4    4    0    0  0.35374818718E+03 -0.22404870147E+03 -0.11561339982E+03  0.44428637574E+03  0.93211184360E+02 0.  0.
         23    2    4    4    0    0 -0.52277531716E+03 -0.39138412361E+03 -0.37993494531E+03  0.76105949262E+03  0.91571961888E+02 0.  0.
          3    1    3    3  502    0  0.15547578021E+03  0.53629009642E+03 -0.11492461969E+03  0.57007670884E+03  0.00000000000E+00 0. -1.
         -4    1    3    3    0  502  0.13551349766E+02  0.79142728650E+02  0.18983351361E+02  0.82508049350E+02  0.00000000000E+00 0.  1.
         13    1    5    5    0    0  0.20641461764E+03 -0.11276719286E+03 -0.10975526864E+03  0.25955664730E+03  0.00000000000E+00 0.  1.
        -13    1    5    5    0    0  0.14733356954E+03 -0.11128150860E+03 -0.58581311808E+01  0.18472972844E+03  0.00000000000E+00 0. -1.
          1    1    6    6  503    0 -0.40751031166E+03 -0.34750477623E+03 -0.32070017755E+03  0.62423779724E+03  0.00000000000E+00 0. -1.
         -1    1    6    6    0  503 -0.11526500549E+03 -0.43879347378E+02 -0.59234767753E+02  0.13682169539E+03  0.00000000000E+00 0.  1.
<mgrwt>
<rscale>  0 0.17612627E+04</rscale>
<asrwt>0</asrwt>
<pdfrwt beam="1">  1        1 0.97418540E-01 0.17612627E+04</pdfrwt>
<pdfrwt beam="2">  1       -2 0.18841694E+00 0.17612627E+04</pdfrwt>
<totfact> 0.41646441E+00</totfact>
</mgrwt>
</event>
<event>
12    5  0.5041746E-008  0.1457758E+04  0.7818608E-02  0.8913040E-01
          1   -1    0    0  501    0  0.00000000000E+00  0.00000000000E+00  0.46684829559E+03  0.46684829559E+03  0.00000000000E+00 0. -1.
         -2   -1    0    0    0  501 -0.00000000000E+00 -0.00000000000E+00 -0.11379810549E+04  0.11379810549E+04  0.00000000000E+00 0.  1.
        -24    2    1    2    0    0 -0.49780736172E+02 -0.36103172449E+03 -0.49486824996E+03  0.61750007923E+03  0.59914399352E+02 0.  0.
        254    2    1    2    0    0  0.49780736172E+02  0.36103172449E+03 -0.17626450932E+03  0.98732927123E+03  0.90051534401E+03 0.  0.
         23    2    4    4    0    0  0.18162326058E+03  0.62339948772E+03 -0.53993304061E+02  0.65655192763E+03  0.80816005358E+02 0.  0.
         23    2    4    4    0    0 -0.13184252441E+03 -0.26236776323E+03 -0.12227120526E+03  0.33077734360E+03  0.90797075832E+02 0.  0.
          3    1    3    3  502    0 -0.42433343250E+02 -0.11400730499E+03 -0.14753916394E+03  0.19122253817E+03  0.00000000000E+00 0. -1.
         -4    1    3    3    0  502 -0.73473929219E+01 -0.24702441950E+03 -0.34732908602E+03  0.42627754106E+03  0.00000000000E+00 0.  1.
         13    1    5    5    0    0  0.39367216861E+02  0.60280973815E+02  0.80164748348E+01  0.72441959086E+02  0.00000000000E+00 0. -1.
        -13    1    5    5    0    0  0.14225604372E+03  0.56311851390E+03 -0.62009778896E+02  0.58410996854E+03  0.00000000000E+00 0.  1.
          2    1    6    6  503    0  0.48906190344E+01 -0.73206133114E+02 -0.20734194223E+02  0.76242789103E+02  0.00000000000E+00 0. -1.
         -2    1    6    6    0  503 -0.13673314344E+03 -0.18916163012E+03 -0.10153701103E+03  0.25453455450E+03  0.00000000000E+00 0.  1.
<mgrwt>
<rscale>  0 0.14577579E+04</rscale>
<asrwt>0</asrwt>
<pdfrwt beam="1">  1        1 0.71822815E-01 0.14577579E+04</pdfrwt>
<pdfrwt beam="2">  1       -2 0.17507401E+00 0.14577579E+04</pdfrwt>
<totfact> 0.81032690E+00</totfact>
</mgrwt>
</event>
<event>
12    5  0.5041746E-008  0.1229279E+04  0.7818608E-02  0.9087608E-01
         -4   -1    0    0    0  501 -0.00000000000E+00  0.00000000000E+00  0.26530899531E+03  0.26530899531E+03  0.00000000000E+00 0.  1.
          3   -1    0    0  501    0  0.00000000000E+00 -0.00000000000E+00 -0.14239316200E+04  0.14239316200E+04  0.00000000000E+00 0. -1.
        -24    2    1    2    0    0 -0.72270832240E+01 -0.20565754404E+03 -0.51291415355E+03  0.55839728656E+03  0.79870799258E+02 0.  0.
        254    2    1    2    0    0  0.72270832240E+01  0.20565754404E+03 -0.64570847116E+03  0.11308433288E+04  0.90527341083E+03 0.  0.
         23    2    4    4    0    0 -0.43202856856E+03  0.15976291896E+03 -0.39767792961E+03  0.61508061387E+03  0.89462570590E+02 0.  0.
         23    2    4    4    0    0  0.43925565178E+03  0.45894625084E+02 -0.24803054156E+03  0.51576271490E+03  0.97160610887E+02 0.  0.
          1    1    3    3  502    0  0.15627101276E+02 -0.14372287349E+03 -0.42174886521E+03  0.44583918173E+03  0.00000000000E+00 0. -1.
         -2    1    3    3    0  502 -0.22854184500E+02 -0.61934670553E+02 -0.91165288341E+02  0.11255810483E+03  0.00000000000E+00 0.  1.
         13    1    5    5    0    0 -0.24542986563E+03  0.66731400547E+02 -0.26831962990E+03  0.36970842911E+03  0.00000000000E+00 0. -1.
        -13    1    5    5    0    0 -0.18659870293E+03  0.93031518414E+02 -0.12935829971E+03  0.24537218476E+03  0.00000000000E+00 0.  1.
          4    1    6    6  503    0  0.21160152154E+03  0.66955581817E+02 -0.10025043802E+03  0.24353316853E+03  0.00000000000E+00 0. -1.
         -4    1    6    6    0  503  0.22765413025E+03 -0.21060956733E+02 -0.14778010354E+03  0.27222954637E+03  0.00000000000E+00 0.  1.
<mgrwt>
<rscale>  0 0.12292792E+04</rscale>
<asrwt>0</asrwt>
<pdfrwt beam="1">  1        3 0.21906640E+00 0.12292792E+04</pdfrwt>
<pdfrwt beam="2">  1       -4 0.40816769E-01 0.12292792E+04</pdfrwt>
<totfact> 0.14874792E+00</totfact>
</mgrwt>
</event>
<event>
12    5  0.5041746E-008  0.1480685E+04  0.7818608E-02  0.8897400E-01
         -2   -1    0    0    0  501 -0.00000000000E+00  0.00000000000E+00  0.33183609566E+03  0.33183609566E+03  0.00000000000E+00 0.  1.
          1   -1    0    0  501    0  0.00000000000E+00 -0.00000000000E+00 -0.16517391304E+04  0.16517391304E+04  0.00000000000E+00 0. -1.
        -24    2    1    2    0    0  0.13555382508E+03  0.35418053148E+02  0.17759423508E+03  0.23792898061E+03  0.73764554473E+02 0.  0.
        254    2    1    2    0    0 -0.13555382508E+03 -0.35418053148E+02 -0.14974972699E+04  0.17456462455E+04  0.88608885740E+03 0.  0.
         23    2    4    4    0    0 -0.19397859503E+03  0.21983932754E+03 -0.10299597369E+03  0.32390672983E+03  0.91380379543E+02 0.  0.
         23    2    4    4    0    0  0.58424769950E+02 -0.25525738069E+03 -0.13945012962E+04  0.14217395157E+04  0.90219738863E+02 0.  0.
          1    1    3    3  502    0  0.93464120631E+02  0.48731673028E+02  0.85212084700E+02  0.13554120104E+03  0.00000000000E+00 0. -1.
         -2    1    3    3    0  502  0.42089704446E+02 -0.13313619881E+02  0.92382150381E+02  0.10238777956E+03  0.00000000000E+00 0.  1.
         13    1    5    5    0    0 -0.14502123068E+03  0.21113255753E+03 -0.75258030681E+02  0.26696794823E+03  0.00000000000E+00 0. -1.
        -13    1    5    5    0    0 -0.48957364343E+02  0.87067700155E+01 -0.27737943012E+02  0.56938781600E+02  0.00000000000E+00 0.  1.
          4    1    6    6  503    0  0.36269343125E+02 -0.19876863098E+03 -0.84140040682E+03  0.86532021733E+03  0.00000000000E+00 0. -1.
         -4    1    6    6    0  503  0.22155426825E+02 -0.56488749710E+02 -0.55310088933E+03  0.55641929834E+03  0.00000000000E+00 0.  1.
<mgrwt>
<rscale>  0 0.14806845E+04</rscale>
<asrwt>0</asrwt>
<pdfrwt beam="1">  1        1 0.25411371E+00 0.14806845E+04</pdfrwt>
<pdfrwt beam="2">  1       -2 0.51051708E-01 0.14806845E+04</pdfrwt>
<totfact> 0.15856925E+01</totfact>
</mgrwt>
</event>
<event>
12    5  0.5041746E-008  0.2467127E+04  0.7818608E-02  0.8414791E-01
         -2   -1    0    0    0  501 -0.00000000000E+00  0.00000000000E+00  0.12041721443E+04  0.12041721443E+04  0.00000000000E+00 0.  1.
          1   -1    0    0  501    0  0.00000000000E+00 -0.00000000000E+00 -0.12636727240E+04  0.12636727240E+04  0.00000000000E+00 0. -1.
        -24    2    1    2    0    0  0.50246573048E+03  0.67677106243E+02 -0.99337092605E+03  0.11177843068E+04  0.74859593308E+02 0.  0.
        254    2    1    2    0    0 -0.50246573048E+03 -0.67677106243E+02  0.93387034639E+03  0.13500605615E+04  0.83276508990E+03 0.  0.
         23    2    4    4    0    0 -0.11092826985E+03 -0.29255469398E+03  0.80956169601E+03  0.87263652154E+03  0.90614728767E+02 0.  0.
         23    2    4    4    0    0 -0.39153746063E+03  0.22487758774E+03  0.12430865038E+03  0.47742404000E+03  0.92787719375E+02 0.  0.
          3    1    3    3  502    0  0.32053976252E+03  0.72062330318E+02 -0.59113743223E+03  0.67630036418E+03  0.00000000000E+00 0. -1.
         -4    1    3    3    0  502  0.18192596796E+03 -0.43852240749E+01 -0.40223349383E+03  0.44148394259E+03  0.00000000000E+00 0.  1.
         13    1    5    5    0    0 -0.59957330513E+02 -0.25506914787E+03  0.63337067544E+03  0.68542947426E+03  0.00000000000E+00 0. -1.
        -13    1    5    5    0    0 -0.50970939340E+02 -0.37485546107E+02  0.17619102056E+03  0.18720704728E+03  0.00000000000E+00 0.  1.
          1    1    6    6  503    0 -0.26815295374E+03  0.20080204160E+03  0.83475289391E+02  0.34524714402E+03  0.00000000000E+00 0. -1.
         -1    1    6    6    0  503 -0.12338450689E+03  0.24075546131E+02  0.40833360991E+02  0.13217689598E+03  0.00000000000E+00 0.  1.
<mgrwt>
<rscale>  0 0.24671275E+04</rscale>
<asrwt>0</asrwt>
<pdfrwt beam="1">  1        1 0.19441119E+00 0.24671275E+04</pdfrwt>
<pdfrwt beam="2">  1       -2 0.18525725E+00 0.24671275E+04</pdfrwt>
<totfact> 0.12533180E+00</totfact>
</mgrwt>
</event>
<event>
12    5  0.5041746E-008  0.1554755E+04  0.7818608E-02  0.8848836E-01
         -2   -1    0    0    0  501 -0.00000000000E+00  0.00000000000E+00  0.98781813826E+03  0.98781813826E+03  0.00000000000E+00 0.  1.
          1   -1    0    0  501    0  0.00000000000E+00 -0.00000000000E+00 -0.61176822627E+03  0.61176822627E+03  0.00000000000E+00 0. -1.
        -24    2    1    2    0    0 -0.46467192923E+03  0.99619168382E+02 -0.66002216295E+02  0.48681064396E+03  0.82367044299E+02 0.  0.
        254    2    1    2    0    0  0.46467192923E+03 -0.99619168382E+02  0.44205212829E+03  0.11127757206E+04  0.90388922974E+03 0.  0.
         23    2    4    4    0    0  0.28979236123E+03  0.28865166732E+03 -0.86654195965E+02  0.42776241558E+03  0.90400978019E+02 0.  0.
         23    2    4    4    0    0  0.17487956800E+03 -0.38827083570E+03  0.52870632426E+03  0.68501330499E+03  0.91519099350E+02 0.  0.
          3    1    3    3  502    0 -0.24385622217E+03  0.20694667446E+02 -0.62118310541E+01  0.24481158714E+03  0.00000000000E+00 0. -1.
         -4    1    3    3    0  502 -0.22081570706E+03  0.78924500936E+02 -0.59790385241E+02  0.24199905682E+03  0.00000000000E+00 0.  1.
         13    1    5    5    0    0  0.29496779932E+03  0.27145966260E+03 -0.81342591342E+02  0.40903907908E+03  0.00000000000E+00 0. -1.
        -13    1    5    5    0    0 -0.51754380844E+01  0.17192004726E+02 -0.53116046223E+01  0.18723336496E+02  0.00000000000E+00 0.  1.
          3    1    6    6  503    0  0.13293208580E+03 -0.18591868189E+03  0.29139574988E+03  0.37033522484E+03  0.00000000000E+00 0. -1.
         -3    1    6    6    0  503  0.41947482199E+02 -0.20235215381E+03  0.23731057438E+03  0.31467808015E+03  0.00000000000E+00 0.  1.
<mgrwt>
<rscale>  0 0.15547550E+04</rscale>
<asrwt>0</asrwt>
<pdfrwt beam="1">  1        1 0.94118189E-01 0.15547550E+04</pdfrwt>
<pdfrwt beam="2">  1       -2 0.15197202E+00 0.15547550E+04</pdfrwt>
<totfact> 0.81159891E+00</totfact>
</mgrwt>
</event>
<event>
12    5  0.5041746E-008  0.1281988E+04  0.7818608E-02  0.9043972E-01
         -4   -1    0    0    0  501 -0.00000000000E+00  0.00000000000E+00  0.31761084472E+03  0.31761084472E+03  0.00000000000E+00 0.  1.
          3   -1    0    0  501    0  0.00000000000E+00 -0.00000000000E+00 -0.12936370335E+04  0.12936370335E+04  0.00000000000E+00 0. -1.
        -24    2    1    2    0    0 -0.12435710017E+03  0.22680342027E+03 -0.47898766511E+03  0.55019000329E+03  0.79845955380E+02 0.  0.
        254    2    1    2    0    0  0.12435710017E+03 -0.22680342027E+03 -0.49703852371E+03  0.10610578750E+04  0.90105052031E+03 0.  0.
         23    2    4    4    0    0  0.70519376633E+02  0.81456550903E+02 -0.67509265875E+03  0.68969862611E+03  0.91246615267E+02 0.  0.
         23    2    4    4    0    0  0.53837723540E+02 -0.30825997118E+03  0.17805413504E+03  0.37135924885E+03  0.91003881198E+02 0.  0.
          1    1    3    3  502    0 -0.37605164237E+02  0.13106921510E+03 -0.29910694576E+03  0.32872215095E+03  0.00000000000E+00 0. -1.
         -4    1    3    3    0  502 -0.86751935937E+02  0.95734205174E+02 -0.17988071934E+03  0.22146785234E+03  0.00000000000E+00 0.  1.
         13    1    5    5    0    0  0.14279274805E+01  0.64377035456E+02 -0.22573623127E+03  0.23474089498E+03  0.00000000000E+00 0. -1.
        -13    1    5    5    0    0  0.69091449153E+02  0.17079515447E+02 -0.44935642748E+03  0.45495773113E+03  0.00000000000E+00 0.  1.
          1    1    6    6  503    0  0.54243711118E+02 -0.26502947034E+03  0.11283456530E+03  0.29311199135E+03  0.00000000000E+00 0. -1.
         -1    1    6    6    0  503 -0.40598757784E+00 -0.43230500830E+02  0.65219569746E+02  0.78247257497E+02  0.00000000000E+00 0.  1.
<mgrwt>
<rscale>  0 0.12819878E+04</rscale>
<asrwt>0</asrwt>
<pdfrwt beam="1">  1        3 0.19902108E+00 0.12819878E+04</pdfrwt>
<pdfrwt beam="2">  1       -4 0.48863208E-01 0.12819878E+04</pdfrwt>
<totfact> 0.13612608E+00</totfact>
</mgrwt>
</event>
<event>
12    5  0.5041746E-008  0.1701019E+04  0.7818608E-02  0.8760784E-01
          1   -1    0    0  501    0  0.00000000000E+00  0.00000000000E+00  0.13292658868E+04  0.13292658868E+04  0.00000000000E+00 0. -1.
         -2   -1    0    0    0  501 -0.00000000000E+00 -0.00000000000E+00 -0.54418461204E+03  0.54418461204E+03  0.00000000000E+00 0.  1.
        -24    2    1    2    0    0 -0.21389808634E+03  0.57158867128E+03  0.28904327459E+03  0.67938428587E+03  0.74504985211E+02 0.  0.
        254    2    1    2    0    0  0.21389808634E+03 -0.57158867128E+03  0.49603800013E+03  0.11940662129E+04  0.89848451451E+03 0.  0.
         23    2    4    4    0    0  0.22624596882E+03  0.37377579971E+02 -0.16087596529E+03  0.29311480074E+03  0.86318528228E+02 0.  0.
         23    2    4    4    0    0 -0.12347882472E+02 -0.60896625125E+03  0.65691396542E+03  0.90095141219E+03  0.95839051530E+02 0.  0.
          3    1    3    3  502    0 -0.17958429478E+03  0.52715249402E+03  0.24687733061E+03  0.60917049112E+03  0.00000000000E+00 0. -1.
         -4    1    3    3    0  502 -0.34313791561E+02  0.44436177259E+02  0.42165943986E+02  0.70213794748E+02  0.00000000000E+00 0.  1.
         13    1    5    5    0    0  0.50943418936E+02  0.45584555991E+02 -0.32593150431E+02  0.75733064990E+02  0.00000000000E+00 0. -1.
        -13    1    5    5    0    0  0.17530254988E+03 -0.82069760201E+01 -0.12828281486E+03  0.21738173575E+03  0.00000000000E+00 0.  1.
          2    1    6    6  503    0  0.14585959909E+02 -0.56386631629E+03  0.60107122817E+03  0.82428429211E+03  0.00000000000E+00 0. -1.
         -2    1    6    6    0  503 -0.26933842381E+02 -0.45099934961E+02  0.55842737249E+02  0.76667120086E+02  0.00000000000E+00 0.  1.
<mgrwt>
<rscale>  0 0.17010186E+04</rscale>
<asrwt>0</asrwt>
<pdfrwt beam="1">  1        1 0.20450244E+00 0.17010186E+04</pdfrwt>
<pdfrwt beam="2">  1       -2 0.83720710E-01 0.17010186E+04</pdfrwt>
<totfact> 0.89757272E+00</totfact>
</mgrwt>
</event>
<event>
12    5  0.5041746E-008  0.2905927E+04  0.7818608E-02  0.8271116E-01
         -2   -1    0    0    0  501 -0.00000000000E+00  0.00000000000E+00  0.10990000283E+04  0.10990000283E+04  0.00000000000E+00 0.  1.
          1   -1    0    0  501    0  0.00000000000E+00 -0.00000000000E+00 -0.19209301875E+04  0.19209301875E+04  0.00000000000E+00 0. -1.
        -24    2    1    2    0    0  0.52828589831E+03  0.52029433818E+03  0.75018660354E+03  0.10576607592E+04  0.77936851170E+02 0.  0.
        254    2    1    2    0    0 -0.52828589831E+03 -0.52029433818E+03 -0.15721167627E+04  0.19622694565E+04  0.91058119667E+03 0.  0.
         23    2    4    4    0    0 -0.60199554153E+03 -0.16653358708E+03 -0.14307596805E+04  0.15638679037E+04  0.92073281981E+02 0.  0.
         23    2    4    4    0    0  0.73709643216E+02 -0.35376075110E+03 -0.14135708223E+03  0.39840155284E+03  0.90344850912E+02 0.  0.
          3    1    3    3  502    0  0.25550857425E+03  0.22086486563E+03  0.29593132586E+03  0.44904484187E+03  0.00000000000E+00 0. -1.
         -4    1    3    3    0  502  0.27277732406E+03  0.29942947255E+03  0.45425527768E+03  0.60861591735E+03  0.00000000000E+00 0.  1.
         13    1    5    5    0    0 -0.39954932427E+03 -0.64783910866E+02 -0.92155343466E+03  0.10065273720E+04  0.00000000000E+00 0.  1.
        -13    1    5    5    0    0 -0.20244621726E+03 -0.10174967622E+03 -0.50920624582E+03  0.55734053170E+03  0.00000000000E+00 0. -1.
          2    1    6    6  503    0  0.87124533062E+02 -0.27943308753E+03 -0.87033310293E+02  0.30536589818E+03  0.00000000000E+00 0. -1.
         -2    1    6    6    0  503 -0.13414889846E+02 -0.74327663570E+02 -0.54323771935E+02  0.93035654663E+02  0.00000000000E+00 0.  1.
<mgrwt>
<rscale>  0 0.29059266E+04</rscale>
<asrwt>0</asrwt>
<pdfrwt beam="1">  1        1 0.29552772E+00 0.29059266E+04</pdfrwt>
<pdfrwt beam="2">  1       -2 0.16907693E+00 0.29059266E+04</pdfrwt>
<totfact> 0.55024622E-01</totfact>
</mgrwt>
</event>
<event>
12    5  0.5041746E-008  0.1754775E+04  0.7818608E-02  0.8730726E-01
          1   -1    0    0  501    0  0.00000000000E+00  0.00000000000E+00  0.15827927164E+04  0.15827927164E+04  0.00000000000E+00 0. -1.
         -2   -1    0    0    0  501 -0.00000000000E+00 -0.00000000000E+00 -0.48636136801E+03  0.48636136801E+03  0.00000000000E+00 0.  1.
        -24    2    1    2    0    0 -0.18843183807E+03  0.35255148321E+03  0.96692923693E+03  0.10494137305E+04  0.80733651741E+02 0.  0.
        254    2    1    2    0    0  0.18843183807E+03 -0.35255148321E+03  0.12950211151E+03  0.10197403540E+04  0.92913964870E+03 0.  0.
         23    2    4    4    0    0 -0.50360336007E+02 -0.53683370633E+03  0.33616419044E+03  0.64184721188E+03  0.90746287918E+02 0.  0.
         23    2    4    4    0    0  0.23879217408E+03  0.18428222311E+03 -0.20666207893E+03  0.37789314213E+03  0.95458744190E+02 0.  0.
          3    1    3    3  502    0 -0.14707677292E+03  0.30186932110E+03  0.72834031175E+03  0.80202012062E+03  0.00000000000E+00 0. -1.
         -4    1    3    3    0  502 -0.41355065152E+02  0.50682162110E+02  0.23858892518E+03  0.24739360984E+03  0.00000000000E+00 0.  1.
         13    1    5    5    0    0 -0.52866186408E+02 -0.33088588321E+03  0.16233723434E+03  0.37233543885E+03  0.00000000000E+00 0. -1.
        -13    1    5    5    0    0  0.25058504010E+01 -0.20594782312E+03  0.17382695609E+03  0.26951177302E+03  0.00000000000E+00 0.  1.
          3    1    6    6  503    0  0.28370130688E+00 -0.89468439458E+00 -0.26003799110E+02  0.26020732402E+02  0.00000000000E+00 0. -1.
         -3    1    6    6    0  503  0.23850847277E+03  0.18517690751E+03 -0.18065827982E+03  0.35187240973E+03  0.00000000000E+00 0.  1.
<mgrwt>
<rscale>  0 0.17547755E+04</rscale>
<asrwt>0</asrwt>
<pdfrwt beam="1">  1        1 0.24350657E+00 0.17547755E+04</pdfrwt>
<pdfrwt beam="2">  1       -2 0.74824826E-01 0.17547755E+04</pdfrwt>
<totfact> 0.76516651E+00</totfact>
</mgrwt>
</event>
<event>
12    5  0.5041746E-008  0.1658657E+04  0.7818608E-02  0.8785301E-01
          3   -1    0    0  501    0  0.00000000000E+00  0.00000000000E+00  0.10689579113E+04  0.10689579113E+04  0.00000000000E+00 0. -1.
         -4   -1    0    0    0  501 -0.00000000000E+00 -0.00000000000E+00 -0.64341739672E+03  0.64341739672E+03  0.00000000000E+00 0.  1.
        -24    2    1    2    0    0  0.42507390208E+03  0.38318062145E+03 -0.26378798970E+02  0.57860608257E+03  0.81079879554E+02 0.  0.
        254    2    1    2    0    0 -0.42507390208E+03 -0.38318062145E+03  0.45191931355E+03  0.11337692254E+04  0.86815112724E+03 0.  0.
         23    2    4    4    0    0 -0.24964226668E+03  0.25673478120E+03  0.15338565907E+03  0.39984470442E+03  0.90081174797E+02 0.  0.
         23    2    4    4    0    0 -0.17543163541E+03 -0.63991540266E+03  0.29853365447E+03  0.73392452103E+03  0.96202278851E+02 0.  0.
          3    1    3    3  502    0  0.42640425278E+03  0.38468205388E+03 -0.29337106946E+02  0.57503176888E+03  0.00000000000E+00 0. -1.
         -4    1    3    3    0  502 -0.13303507018E+01 -0.15014324313E+01  0.29583079754E+01  0.35743136982E+01  0.00000000000E+00 0.  1.
         13    1    5    5    0    0 -0.11919648198E+03  0.60987077204E+02  0.50526109181E+02  0.14310874400E+03  0.00000000000E+00 0. -1.
        -13    1    5    5    0    0 -0.13044578470E+03  0.19574770400E+03  0.10285954989E+03  0.25673596042E+03  0.00000000000E+00 0.  1.
          3    1    6    6  503    0 -0.79521536673E+02 -0.26344960495E+03  0.72976240341E+02  0.28470142395E+03  0.00000000000E+00 0. -1.
         -3    1    6    6    0  503 -0.95910098733E+02 -0.37646579770E+03  0.22555741413E+03  0.44922309708E+03  0.00000000000E+00 0.  1.
<mgrwt>
<rscale>  0 0.16586574E+04</rscale>
<asrwt>0</asrwt>
<pdfrwt beam="1">  1        3 0.16445506E+00 0.16586574E+04</pdfrwt>
<pdfrwt beam="2">  1       -4 0.98987292E-01 0.16586574E+04</pdfrwt>
<totfact> 0.46975740E-01</totfact>
</mgrwt>
</event>
<event>
12    5  0.5041746E-008  0.2105423E+04  0.7818608E-02  0.8558858E-01
          1   -1    0    0  501    0  0.00000000000E+00  0.00000000000E+00  0.21314509186E+04  0.21314509186E+04  0.00000000000E+00 0. -1.
         -2   -1    0    0    0  501 -0.00000000000E+00 -0.00000000000E+00 -0.51992820392E+03  0.51992820392E+03  0.00000000000E+00 0.  1.
        -24    2    1    2    0    0 -0.28321284387E+02  0.59458374923E+03  0.14337155971E+04  0.15543832758E+04  0.78962174397E+02 0.  0.
        254    2    1    2    0    0  0.28321284387E+02 -0.59458374923E+03  0.17780711759E+03  0.10969958466E+04  0.90413084588E+03 0.  0.
         23    2    4    4    0    0  0.19376268668E+03  0.58647858348E+02  0.33266749614E+03  0.39994160140E+03  0.91115703954E+02 0.  0.
         23    2    4    4    0    0 -0.16544140229E+03 -0.65323160758E+03 -0.15486037855E+03  0.69705424523E+03  0.88433552563E+02 0.  0.
          3    1    3    3  502    0 -0.17118029421E+02  0.30957450158E+03  0.84815887023E+03  0.90305197420E+03  0.00000000000E+00 0. -1.
         -4    1    3    3    0  502 -0.11203254966E+02  0.28500924765E+03  0.58555672683E+03  0.65133130165E+03  0.00000000000E+00 0.  1.
         13    1    5    5    0    0 -0.96999977298E+01  0.24677230731E+00  0.92204997468E+01  0.13385382629E+02  0.00000000000E+00 0. -1.
        -13    1    5    5    0    0  0.20346268441E+03  0.58401086040E+02  0.32344699639E+03  0.38655621878E+03  0.00000000000E+00 0.  1.
          4    1    6    6  503    0 -0.13004512503E+03 -0.50214404978E+03 -0.80286812079E+02  0.52488699114E+03  0.00000000000E+00 0.  1.
         -4    1    6    6    0  503 -0.35396277269E+02 -0.15108755779E+03 -0.74573566470E+02  0.17216725409E+03  0.00000000000E+00 0. -1.
<mgrwt>
<rscale>  0 0.21054229E+04</rscale>
<asrwt>0</asrwt>
<pdfrwt beam="1">  1        1 0.32791552E+00 0.21054229E+04</pdfrwt>
<pdfrwt beam="2">  1       -2 0.79988956E-01 0.21054229E+04</pdfrwt>
<totfact> 0.27085611E+00</totfact>
</mgrwt>
</event>
<event>
12    5  0.5041746E-008  0.1055153E+04  0.7818608E-02  0.9250040E-01
          1   -1    0    0  501    0  0.00000000000E+00  0.00000000000E+00  0.91290534854E+03  0.91290534854E+03  0.00000000000E+00 0. -1.
         -2   -1    0    0    0  501 -0.00000000000E+00 -0.00000000000E+00 -0.30489164181E+03  0.30489164181E+03  0.00000000000E+00 0.  1.
        -24    2    1    2    0    0  0.71905238795E+02  0.61821603314E+02  0.14619777937E+03  0.19170289127E+03  0.79899523310E+02 0.  0.
        254    2    1    2    0    0 -0.71905238795E+02 -0.61821603314E+02  0.46181592737E+03  0.10260940991E+04  0.91137416871E+03 0.  0.
         23    2    4    4    0    0 -0.43604313834E+03 -0.51391599402E+02  0.47006757272E+03  0.64980701785E+03  0.92254661382E+02 0.  0.
         23    2    4    4    0    0  0.36413789955E+03 -0.10430003912E+02 -0.82516453501E+01  0.37628708123E+03  0.93907843017E+02 0.  0.
          1    1    3    3  502    0  0.20525904058E+02  0.67117370929E+02  0.10146078172E+03  0.12337076009E+03  0.00000000000E+00 0. -1.
         -2    1    3    3    0  502  0.51379334737E+02 -0.52957676158E+01  0.44736997655E+02  0.68332131182E+02  0.00000000000E+00 0.  1.
         13    1    5    5    0    0 -0.37295348541E+03 -0.37695122525E+02  0.34687168631E+03  0.51072026718E+03  0.00000000000E+00 0.  1.
        -13    1    5    5    0    0 -0.63089652931E+02 -0.13696476877E+02  0.12319588641E+03  0.13908675068E+03  0.00000000000E+00 0. -1.
          1    1    6    6  503    0  0.18597599445E+02  0.22097112203E+02  0.29982904442E+01  0.29036921642E+02  0.00000000000E+00 0. -1.
         -1    1    6    6    0  503  0.34554030010E+03 -0.32527116115E+02 -0.11249935794E+02  0.34725015959E+03  0.00000000000E+00 0.  1.
<mgrwt>
<rscale>  0 0.10551535E+04</rscale>
<asrwt>0</asrwt>
<pdfrwt beam="1">  1        1 0.14044698E+00 0.10551535E+04</pdfrwt>
<pdfrwt beam="2">  1       -2 0.46906407E-01 0.10551535E+04</pdfrwt>
<totfact> 0.67004892E+01</totfact>
</mgrwt>
</event>
<event>
12    5  0.5041746E-008  0.2142320E+04  0.7818608E-02  0.8542827E-01
          1   -1    0    0  501    0  0.00000000000E+00  0.00000000000E+00  0.10265555244E+04  0.10265555244E+04  0.00000000000E+00 0. -1.
         -2   -1    0    0    0  501 -0.00000000000E+00 -0.00000000000E+00 -0.11177020637E+04  0.11177020637E+04  0.00000000000E+00 0.  1.
        -24    2    1    2    0    0  0.53694070274E+03  0.68793198155E+03 -0.13015682784E+03  0.88876908504E+03  0.10683612312E+03 0.  0.
        254    2    1    2    0    0 -0.53694070274E+03 -0.68793198155E+03  0.39010288567E+02  0.12554885031E+04  0.90176152568E+03 0.  0.
         23    2    4    4    0    0  0.12018113649E+03 -0.24302527132E+03  0.29931377465E+03  0.41529586834E+03  0.96835605541E+02 0.  0.
         23    2    4    4    0    0 -0.65712183923E+03 -0.44490671023E+03 -0.26030348608E+03  0.84019263472E+03  0.91731489557E+02 0.  0.
          1    1    3    3  502    0  0.27543157199E+03  0.30123091764E+03 -0.17505161049E+02  0.40854503699E+03  0.00000000000E+00 0. -1.
         -2    1    3    3    0  502  0.26150913075E+03  0.38670106391E+03 -0.11265166679E+03  0.48022404805E+03  0.00000000000E+00 0.  1.
         13    1    5    5    0    0  0.98381052717E+02 -0.20723069837E+03  0.18879569039E+03  0.29709797473E+03  0.00000000000E+00 0.  1.
        -13    1    5    5    0    0  0.21800083769E+02 -0.35794572946E+02  0.11051808426E+03  0.11819789361E+03  0.00000000000E+00 0. -1.
          3    1    6    6  503    0 -0.12757055134E+03 -0.97673833500E+02 -0.91252741346E+02  0.18477414896E+03  0.00000000000E+00 0. -1.
         -3    1    6    6    0  503 -0.52955128788E+03 -0.34723287673E+03 -0.16905074473E+03  0.65541848576E+03  0.00000000000E+00 0.  1.
<mgrwt>
<rscale>  0 0.21423195E+04</rscale>
<asrwt>0</asrwt>
<pdfrwt beam="1">  1        1 0.15793162E+00 0.21423195E+04</pdfrwt>
<pdfrwt beam="2">  1       -2 0.17195416E+00 0.21423195E+04</pdfrwt>
<totfact> 0.23926027E+00</totfact>
</mgrwt>
</event>
<event>
12    5  0.5041746E-008  0.2732546E+04  0.7818608E-02  0.8324521E-01
         -2   -1    0    0    0  501 -0.00000000000E+00  0.00000000000E+00  0.17148853199E+04  0.17148853199E+04  0.00000000000E+00 0.  1.
          1   -1    0    0  501    0  0.00000000000E+00 -0.00000000000E+00 -0.10885289484E+04  0.10885289484E+04  0.00000000000E+00 0. -1.
        -24    2    1    2    0    0  0.67613140303E+03  0.91437163707E+03  0.72700454037E+03  0.13521485884E+04  0.80876687798E+02 0.  0.
        254    2    1    2    0    0 -0.67613140303E+03 -0.91437163707E+03 -0.10064816888E+03  0.14512656798E+04  0.89599824476E+03 0.  0.
         23    2    4    4    0    0 -0.24263993843E+03 -0.91176684883E+03  0.12269967674E+03  0.95573948267E+03  0.90497633786E+02 0.  0.
         23    2    4    4    0    0 -0.43349146460E+03 -0.26047882373E+01 -0.22334784562E+03  0.49552619712E+03  0.87979071879E+02 0.  0.
          1    1    3    3  502    0  0.20803216016E+03  0.34310360103E+03  0.24181245537E+03  0.46847702640E+03  0.00000000000E+00 0. -1.
         -2    1    3    3    0  502  0.46809924287E+03  0.57126803604E+03  0.48519208500E+03  0.88367156202E+03  0.00000000000E+00 0.  1.
         13    1    5    5    0    0 -0.13733955487E+03 -0.44925457677E+03  0.18848290518E+02  0.47015644858E+03  0.00000000000E+00 0. -1.
        -13    1    5    5    0    0 -0.10530038356E+03 -0.46251227206E+03  0.10385138622E+03  0.48558303410E+03  0.00000000000E+00 0.  1.
          2    1    6    6  503    0 -0.17992114965E+03  0.13698694677E+02 -0.47727488810E+02  0.18664722745E+03  0.00000000000E+00 0. -1.
         -2    1    6    6    0  503 -0.25357031495E+03 -0.16303482915E+02 -0.17562035681E+03  0.30887896967E+03  0.00000000000E+00 0.  1.
<mgrwt>
<rscale>  0 0.27325463E+04</rscale>
<asrwt>0</asrwt>
<pdfrwt beam="1">  1        1 0.16746599E+00 0.27325463E+04</pdfrwt>
<pdfrwt beam="2">  1       -2 0.26382851E+00 0.27325463E+04</pdfrwt>
<totfact> 0.52237651E-01</totfact>
</mgrwt>
</event>
<event>
12    5  0.5041746E-008  0.2484367E+04  0.7818608E-02  0.8408576E-01
         -2   -1    0    0    0  501 -0.00000000000E+00  0.00000000000E+00  0.47423780984E+03  0.47423780984E+03  0.00000000000E+00 0.  1.
          1   -1    0    0  501    0  0.00000000000E+00 -0.00000000000E+00 -0.32536828814E+04  0.32536828814E+04  0.00000000000E+00 0. -1.
        -24    2    1    2    0    0 -0.33112050363E+03 -0.30976655190E+03 -0.26723424801E+04  0.27117206369E+04  0.80114773917E+02 0.  0.
        254    2    1    2    0    0  0.33112050363E+03  0.30976655190E+03 -0.10710259147E+03  0.10162000544E+04  0.90310325033E+03 0.  0.
         23    2    4    4    0    0  0.18625182327E+03 -0.14180328967E+03  0.29613327420E+03  0.38708531726E+03  0.85686709102E+02 0.  0.
         23    2    4    4    0    0  0.14486868036E+03  0.45156984157E+03 -0.40323586567E+03  0.62911473710E+03  0.91016112336E+02 0.  0.
          3    1    3    3  502    0 -0.30104327334E+03 -0.24183882944E+03 -0.22476999681E+04  0.22806289085E+04  0.00000000000E+00 0. -1.
         -4    1    3    3    0  502 -0.30077230294E+02 -0.67927722464E+02 -0.42464251200E+03  0.43109172836E+03  0.00000000000E+00 0.  1.
         13    1    5    5    0    0  0.16366614037E+03 -0.13923472868E+03  0.29413821378E+03  0.36426666602E+03  0.00000000000E+00 0. -1.
        -13    1    5    5    0    0  0.22585682909E+02 -0.25685609902E+01  0.19950604174E+01  0.22818651233E+02  0.00000000000E+00 0.  1.
          2    1    6    6  503    0  0.90857010901E+02  0.38436017216E+03 -0.30967731260E+03  0.50188422600E+03  0.00000000000E+00 0. -1.
         -2    1    6    6    0  503  0.54011669458E+02  0.67209669405E+02 -0.93558553074E+02  0.12723051109E+03  0.00000000000E+00 0.  1.
<mgrwt>
<rscale>  0 0.24843667E+04</rscale>
<asrwt>0</asrwt>
<pdfrwt beam="1">  1        1 0.50056662E+00 0.24843667E+04</pdfrwt>
<pdfrwt beam="2">  1       -2 0.72959659E-01 0.24843667E+04</pdfrwt>
<totfact> 0.51438458E-01</totfact>
</mgrwt>
</event>
<event>
12    5  0.5041746E-008  0.1873660E+04  0.7818608E-02  0.8668080E-01
          1   -1    0    0  501    0  0.00000000000E+00  0.00000000000E+00  0.99327225002E+03  0.99327225002E+03  0.00000000000E+00 0. -1.
         -2   -1    0    0    0  501 -0.00000000000E+00 -0.00000000000E+00 -0.88359480051E+03  0.88359480051E+03  0.00000000000E+00 0.  1.
        -24    2    1    2    0    0 -0.19044923055E+03  0.29710929145E+03  0.66665433947E+03  0.75813679435E+03  0.76148211667E+02 0.  0.
        254    2    1    2    0    0  0.19044923055E+03 -0.29710929145E+03 -0.55697688996E+03  0.11187302562E+04  0.90376395682E+03 0.  0.
         23    2    4    4    0    0  0.33177874044E+03 -0.33548668636E+03 -0.72813041957E+03  0.87255316901E+03  0.92448231486E+02 0.  0.
         23    2    4    4    0    0 -0.14132950989E+03  0.38377394914E+02  0.17115352961E+03  0.24617708717E+03  0.99311493506E+02 0.  0.
          1    1    3    3  502    0 -0.21778736049E+02  0.47364882408E+02  0.16374571080E+03  0.17184412482E+03  0.00000000000E+00 0. -1.
         -2    1    3    3    0  502 -0.16867049450E+03  0.24974440904E+03  0.50290862867E+03  0.58629266954E+03  0.00000000000E+00 0.  1.
         13    1    5    5    0    0  0.28323417808E+03 -0.25878943314E+03 -0.63907120776E+03  0.74538954844E+03  0.00000000000E+00 0.  1.
        -13    1    5    5    0    0  0.48544562356E+02 -0.76697253226E+02 -0.89059211808E+02  0.12716362056E+03  0.00000000000E+00 0. -1.
          1    1    6    6  503    0 -0.65221397971E+02  0.27542620174E+02  0.15355000552E+02  0.72444480267E+02  0.00000000000E+00 0. -1.
         -1    1    6    6    0  503 -0.76108111917E+02  0.10834774740E+02  0.15579852906E+03  0.17373260690E+03  0.00000000000E+00 0.  1.
<mgrwt>
<rscale>  0 0.18736597E+04</rscale>
<asrwt>0</asrwt>
<pdfrwt beam="1">  1        1 0.15281112E+00 0.18736597E+04</pdfrwt>
<pdfrwt beam="2">  1       -2 0.13593766E+00 0.18736597E+04</pdfrwt>
<totfact> 0.48792758E+00</totfact>
</mgrwt>
</event>
<event>
12    5  0.5041746E-008  0.2035950E+04  0.7818608E-02  0.8589995E-01
         -2   -1    0    0    0  501 -0.00000000000E+00  0.00000000000E+00  0.75618488772E+03  0.75618488772E+03  0.00000000000E+00 0.  1.
          1   -1    0    0  501    0  0.00000000000E+00 -0.00000000000E+00 -0.13703961362E+04  0.13703961362E+04  0.00000000000E+00 0. -1.
        -24    2    1    2    0    0 -0.58251016212E+03 -0.35216330627E+03 -0.71186722593E+03  0.98810065102E+03  0.79062417995E+02 0.  0.
        254    2    1    2    0    0  0.58251016212E+03  0.35216330627E+03  0.97655977419E+02  0.11384803729E+04  0.90733884871E+03 0.  0.
         23    2    4    4    0    0 -0.96919128311E+02  0.79984562465E+02 -0.27159582182E+03  0.31345674729E+03  0.93273760104E+02 0.  0.
         23    2    4    4    0    0  0.67942929043E+03  0.27217874380E+03  0.36925179924E+03  0.82502362565E+03  0.92799042903E+02 0.  0.
          1    1    3    3  502    0 -0.40409758370E+03 -0.20058747988E+03 -0.46563901112E+03  0.64834395417E+03  0.00000000000E+00 0. -1.
         -2    1    3    3    0  502 -0.17841257841E+03 -0.15157582639E+03 -0.24622821482E+03  0.33975669685E+03  0.00000000000E+00 0.  1.
         13    1    5    5    0    0 -0.99729758438E+02  0.92145352692E+02 -0.26805411956E+03  0.30048261473E+03  0.00000000000E+00 0. -1.
        -13    1    5    5    0    0  0.28106301268E+01 -0.12160790227E+02 -0.35417022545E+01  0.12974132553E+02  0.00000000000E+00 0.  1.
          2    1    6    6  503    0 -0.30972601389E+01  0.18125593881E+01  0.25890114384E+01  0.44250844208E+01  0.00000000000E+00 0.  1.
         -2    1    6    6    0  503  0.68252655057E+03  0.27036618442E+03  0.36666278780E+03  0.82059854122E+03  0.00000000000E+00 0. -1.
<mgrwt>
<rscale>  0 0.20359498E+04</rscale>
<asrwt>0</asrwt>
<pdfrwt beam="1">  1        1 0.21083017E+00 0.20359498E+04</pdfrwt>
<pdfrwt beam="2">  1       -2 0.11633614E+00 0.20359498E+04</pdfrwt>
<totfact> 0.37500205E+00</totfact>
</mgrwt>
</event>
<event>
12    5  0.5041746E-008  0.1395551E+04  0.7818608E-02  0.8957045E-01
          1   -1    0    0  501    0  0.00000000000E+00  0.00000000000E+00  0.66273672939E+03  0.66273672939E+03  0.00000000000E+00 0. -1.
         -2   -1    0    0    0  501 -0.00000000000E+00 -0.00000000000E+00 -0.73466712373E+03  0.73466712373E+03  0.00000000000E+00 0.  1.
        -24    2    1    2    0    0  0.11824253523E+03  0.79153933553E+02 -0.38954828508E+03  0.42321928385E+03  0.84380409303E+02 0.  0.
        254    2    1    2    0    0 -0.11824253523E+03 -0.79153933553E+02  0.31761789074E+03  0.97418456927E+03  0.90989439396E+03 0.  0.
         23    2    4    4    0    0  0.36836514312E+02  0.36909707726E+03  0.30913301298E+03  0.49108550692E+03  0.89510748876E+02 0.  0.
         23    2    4    4    0    0 -0.15507904955E+03 -0.44825101081E+03  0.84848777632E+01  0.48309906235E+03  0.91292007280E+02 0.  0.
          1    1    3    3  502    0  0.39538972591E+02  0.63599018105E+02 -0.11536529955E+03  0.13754024065E+03  0.00000000000E+00 0. -1.
         -2    1    3    3    0  502  0.78703562643E+02  0.15554915448E+02 -0.27418298553E+03  0.28567904320E+03  0.00000000000E+00 0.  1.
         13    1    5    5    0    0  0.11575090217E+02  0.34886514731E+03  0.27887831092E+03  0.44678181031E+03  0.00000000000E+00 0.  1.
        -13    1    5    5    0    0  0.25261424095E+02  0.20231929954E+02  0.30254702058E+02  0.44303696613E+02  0.00000000000E+00 0. -1.
          3    1    6    6  503    0 -0.38671840490E+02 -0.51185390395E+02  0.25348212282E+02  0.68978165405E+02  0.00000000000E+00 0. -1.
         -3    1    6    6    0  503 -0.11640720906E+03 -0.39706562042E+03 -0.16863334519E+02  0.41412089695E+03  0.00000000000E+00 0.  1.
<mgrwt>
<rscale>  0 0.13955513E+04</rscale>
<asrwt>0</asrwt>
<pdfrwt beam="1">  1        1 0.10195950E+00 0.13955513E+04</pdfrwt>
<pdfrwt beam="2">  1       -2 0.11302571E+00 0.13955513E+04</pdfrwt>
<totfact> 0.15538834E+01</totfact>
</mgrwt>
</event>
<event>
12    5  0.5041746E-008  0.3062560E+04  0.7818608E-02  0.8226089E-01
          1   -1    0    0  501    0  0.00000000000E+00  0.00000000000E+00  0.10429937274E+04  0.10429937274E+04  0.00000000000E+00 0. -1.
         -2   -1    0    0    0  501 -0.00000000000E+00 -0.00000000000E+00 -0.22481614759E+04  0.22481614759E+04  0.00000000000E+00 0.  1.
        -24    2    1    2    0    0  0.10425262455E+04  0.38851528491E+03 -0.14568249408E+04  0.18347891707E+04  0.79418470607E+02 0.  0.
        254    2    1    2    0    0 -0.10425262455E+04 -0.38851528491E+03  0.25165719236E+03  0.14563660327E+04  0.90546428947E+03 0.  0.
         23    2    4    4    0    0 -0.52772052556E+03  0.22393897515E+03 -0.78746555305E+02  0.58586870382E+03  0.91670608466E+02 0.  0.
         23    2    4    4    0    0 -0.51480571993E+03 -0.61245426005E+03  0.33040374767E+03  0.87049732885E+03  0.92053316801E+02 0.  0.
          1    1    3    3  502    0  0.24740821044E+03  0.57243308395E+02 -0.32219159908E+03  0.41023779137E+03  0.00000000000E+00 0. -1.
         -2    1    3    3    0  502  0.79511803505E+03  0.33127197651E+03 -0.11346333417E+04  0.14245513793E+04  0.00000000000E+00 0.  1.
         13    1    5    5    0    0 -0.29155249880E+03  0.83217105703E+02 -0.14476887331E+02  0.30354163883E+03  0.00000000000E+00 0.  1.
        -13    1    5    5    0    0 -0.23616802676E+03  0.14072186944E+03 -0.64269667973E+02  0.28232706499E+03  0.00000000000E+00 0. -1.
          2    1    6    6  503    0 -0.13175344070E+03 -0.99216041412E+02  0.67570877759E+02  0.17823752560E+03  0.00000000000E+00 0. -1.
         -2    1    6    6    0  503 -0.38305227923E+03 -0.51323821864E+03  0.26283286991E+03  0.69225980325E+03  0.00000000000E+00 0.  1.
<mgrwt>
<rscale>  0 0.30625599E+04</rscale>
<asrwt>0</asrwt>
<pdfrwt beam="1">  1        1 0.16046058E+00 0.30625599E+04</pdfrwt>
<pdfrwt beam="2">  1       -2 0.34587099E+00 0.30625599E+04</pdfrwt>
<totfact> 0.17188938E-01</totfact>
</mgrwt>
</event>
<event>
12    5  0.5041746E-008  0.2162637E+04  0.7818608E-02  0.8534143E-01
         -2   -1    0    0    0  501 -0.00000000000E+00  0.00000000000E+00  0.96826553782E+03  0.96826553782E+03  0.00000000000E+00 0.  1.
          1   -1    0    0  501    0  0.00000000000E+00 -0.00000000000E+00 -0.12075708151E+04  0.12075708151E+04  0.00000000000E+00 0. -1.
        -24    2    1    2    0    0  0.39588574060E+03  0.79483896030E+03 -0.43181543197E+02  0.89276472680E+03  0.81668349614E+02 0.  0.
        254    2    1    2    0    0 -0.39588574060E+03 -0.79483896030E+03 -0.19612373404E+03  0.12830716261E+04  0.90515953629E+03 0.  0.
         23    2    4    4    0    0  0.18938840059E+03 -0.38258179957E+03 -0.33146851147E+03  0.54820476316E+03  0.91762130603E+02 0.  0.
         23    2    4    4    0    0 -0.58527414119E+03 -0.41225716073E+03  0.13534477743E+03  0.73486686290E+03  0.95965152517E+02 0.  0.
          1    1    3    3  502    0  0.93529499002E+02  0.25992775916E+03 -0.33222666950E+02  0.27823362982E+03  0.00000000000E+00 0. -1.
         -2    1    3    3    0  502  0.30235624160E+03  0.53491120115E+03 -0.99588762466E+01  0.61453109698E+03  0.00000000000E+00 0.  1.
         13    1    5    5    0    0  0.11911852245E+02 -0.49065027211E+02 -0.79197407206E+02  0.93922832300E+02  0.00000000000E+00 0. -1.
        -13    1    5    5    0    0  0.17747654835E+03 -0.33351677236E+03 -0.25227110427E+03  0.45428193086E+03  0.00000000000E+00 0.  1.
          2    1    6    6  503    0 -0.13345586913E+03 -0.62656782099E+02  0.57759988852E+02  0.15834316424E+03  0.00000000000E+00 0. -1.
         -2    1    6    6    0  503 -0.45181827206E+03 -0.34960037863E+03  0.77584788578E+02  0.57652369867E+03  0.00000000000E+00 0.  1.
<mgrwt>
<rscale>  0 0.21626365E+04</rscale>
<asrwt>0</asrwt>
<pdfrwt beam="1">  1        1 0.18578012E+00 0.21626365E+04</pdfrwt>
<pdfrwt beam="2">  1       -2 0.14896393E+00 0.21626365E+04</pdfrwt>
<totfact> 0.25836156E+00</totfact>
</mgrwt>
</event>
<event>
12    5  0.5041746E-008  0.1085669E+04  0.7818608E-02  0.9219274E-01
          1   -1    0    0  501    0  0.00000000000E+00  0.00000000000E+00  0.99402740463E+03  0.99402740463E+03  0.00000000000E+00 0. -1.
         -2   -1    0    0    0  501 -0.00000000000E+00 -0.00000000000E+00 -0.29643961834E+03  0.29643961834E+03  0.00000000000E+00 0.  1.
        -24    2    1    2    0    0 -0.47965177425E+02 -0.88578085095E+02  0.27187363994E+03  0.30115401194E+03  0.81435418656E+02 0.  0.
        254    2    1    2    0    0  0.47965177425E+02  0.88578085095E+02  0.42571414635E+03  0.98931301103E+03  0.88733362608E+03 0.  0.
         23    2    4    4    0    0  0.79150077233E+02  0.44371615964E+03  0.48388707287E+02  0.46185627315E+03  0.88436333052E+02 0.  0.
         23    2    4    4    0    0 -0.31184899808E+02 -0.35513807455E+03  0.37732543907E+03  0.52745673787E+03  0.93491033756E+02 0.  0.
          3    1    3    3  502    0 -0.55592838207E+02 -0.71798990498E+02  0.26710118497E+03  0.28211469601E+03  0.00000000000E+00 0. -1.
         -4    1    3    3    0  502  0.76276607821E+01 -0.16779094597E+02  0.47724549684E+01  0.19039315926E+02  0.00000000000E+00 0.  1.
         13    1    5    5    0    0  0.59654017794E+00  0.43328317963E+02  0.31342447380E+02  0.53479416652E+02  0.00000000000E+00 0. -1.
        -13    1    5    5    0    0  0.78553537055E+02  0.40038784168E+03  0.17046259908E+02  0.40837685650E+03  0.00000000000E+00 0.  1.
          2    1    6    6  503    0  0.31944575634E+02 -0.90654085038E+02  0.11120592831E+03  0.14698767819E+03  0.00000000000E+00 0. -1.
         -2    1    6    6    0  503 -0.63129475442E+02 -0.26448398951E+03  0.26611951075E+03  0.38046905969E+03  0.00000000000E+00 0.  1.
<mgrwt>
<rscale>  0 0.10856687E+04</rscale>
<asrwt>0</asrwt>
<pdfrwt beam="1">  1        1 0.15292729E+00 0.10856687E+04</pdfrwt>
<pdfrwt beam="2">  1       -2 0.45606095E-01 0.10856687E+04</pdfrwt>
<totfact> 0.60958677E+01</totfact>
</mgrwt>
</event>
<event>
12    5  0.5041746E-008  0.1556547E+04  0.7818608E-02  0.8847697E-01
          1   -1    0    0  501    0  0.00000000000E+00  0.00000000000E+00  0.80040740144E+03  0.80040740144E+03  0.00000000000E+00 0. -1.
         -2   -1    0    0    0  501 -0.00000000000E+00 -0.00000000000E+00 -0.75675190732E+03  0.75675190732E+03  0.00000000000E+00 0.  1.
        -24    2    1    2    0    0  0.43261075807E+03 -0.47622652259E+02 -0.25382308056E+03  0.51027205570E+03  0.80817260472E+02 0.  0.
        254    2    1    2    0    0 -0.43261075807E+03  0.47622652259E+02  0.29747857468E+03  0.10468872531E+04  0.90446638037E+03 0.  0.
         23    2    4    4    0    0  0.46017006364E+01 -0.14926473203E+03 -0.25604749449E+03  0.30876805340E+03  0.86465342713E+02 0.  0.
         23    2    4    4    0    0 -0.43721245871E+03  0.19688738429E+03  0.55352606917E+03  0.73811919966E+03  0.92246775096E+02 0.  0.
          3    1    3    3  502    0  0.15485521392E+03 -0.41761874555E+02 -0.12841144020E+03  0.20545970266E+03  0.00000000000E+00 0. -1.
         -4    1    3    3    0  502  0.27775554416E+03 -0.58607777044E+01 -0.12541164036E+03  0.30481235304E+03  0.00000000000E+00 0.  1.
         13    1    5    5    0    0 -0.21657591863E+02 -0.14271317360E+03 -0.22750803001E+03  0.26943645805E+03  0.00000000000E+00 0.  1.
        -13    1    5    5    0    0  0.26259292499E+02 -0.65515584238E+01 -0.28539464478E+02  0.39331595353E+02  0.00000000000E+00 0. -1.
          4    1    6    6  503    0 -0.20121557192E+03  0.48069388639E+02  0.19983924472E+03  0.28763535290E+03  0.00000000000E+00 0. -1.
         -4    1    6    6    0  503 -0.23599688679E+03  0.14881799565E+03  0.35368682446E+03  0.45048384676E+03  0.00000000000E+00 0.  1.
<mgrwt>
<rscale>  0 0.15565472E+04</rscale>
<asrwt>0</asrwt>
<pdfrwt beam="1">  1        1 0.12313960E+00 0.15565472E+04</pdfrwt>
<pdfrwt beam="2">  1       -2 0.11642337E+00 0.15565472E+04</pdfrwt>
<totfact> 0.10661019E+01</totfact>
</mgrwt>
</event>
<event>
12    5  0.5041746E-008  0.1691759E+04  0.7818608E-02  0.8766079E-01
          1   -1    0    0  501    0  0.00000000000E+00  0.00000000000E+00  0.16852024616E+04  0.16852024616E+04  0.00000000000E+00 0. -1.
         -2   -1    0    0    0  501 -0.00000000000E+00 -0.00000000000E+00 -0.42458509201E+03  0.42458509201E+03  0.00000000000E+00 0.  1.
        -24    2    1    2    0    0 -0.14201487180E+03  0.44463965243E+03 -0.30907745393E+02  0.47476042446E+03  0.81052622330E+02 0.  0.
        254    2    1    2    0    0  0.14201487180E+03 -0.44463965243E+03  0.12915251150E+04  0.16350271292E+04  0.88735784559E+03 0.  0.
         23    2    4    4    0    0  0.38757709039E+03 -0.40347151109E+03  0.12409039661E+04  0.13643417467E+04  0.92630920482E+02 0.  0.
         23    2    4    4    0    0 -0.24556221859E+03 -0.41168141337E+02  0.50621148914E+02  0.27068538249E+03  0.93340540574E+02 0.  0.
          1    1    3    3  502    0 -0.19150996149E+01  0.84561018337E+02  0.14186674153E+02  0.85764183388E+02  0.00000000000E+00 0. -1.
         -2    1    3    3    0  502 -0.14009977219E+03  0.36007863409E+03 -0.45094419547E+02  0.38899624107E+03  0.00000000000E+00 0.  1.
         13    1    5    5    0    0  0.53255395781E+02 -0.90515066094E+02  0.30138265996E+03  0.31915610929E+03  0.00000000000E+00 0. -1.
        -13    1    5    5    0    0  0.33432169461E+03 -0.31295644500E+03  0.93952130615E+03  0.10451856374E+04  0.00000000000E+00 0.  1.
          2    1    6    6  503    0 -0.96707111025E+02 -0.50181253725E+02 -0.10630004110E+02  0.10946881079E+03  0.00000000000E+00 0. -1.
         -2    1    6    6    0  503 -0.14885510757E+03  0.90131123885E+01  0.61251153024E+02  0.16121657170E+03  0.00000000000E+00 0.  1.
<mgrwt>
<rscale>  0 0.16917587E+04</rscale>
<asrwt>0</asrwt>
<pdfrwt beam="1">  1        1 0.25926191E+00 0.16917587E+04</pdfrwt>
<pdfrwt beam="2">  1       -2 0.65320784E-01 0.16917587E+04</pdfrwt>
<totfact> 0.88076757E+00</totfact>
</mgrwt>
</event>
<event>
12    5  0.5041746E-008  0.1367967E+04  0.7818608E-02  0.8977338E-01
         -2   -1    0    0    0  501 -0.00000000000E+00  0.00000000000E+00  0.36338615410E+03  0.36338615410E+03  0.00000000000E+00 0.  1.
          1   -1    0    0  501    0  0.00000000000E+00 -0.00000000000E+00 -0.12874272569E+04  0.12874272569E+04  0.00000000000E+00 0. -1.
        -24    2    1    2    0    0  0.14742933334E+02  0.18616327486E+03  0.17499803736E+03  0.26534550063E+03  0.70069983846E+02 0.  0.
        254    2    1    2    0    0 -0.14742933334E+02 -0.18616327486E+03 -0.10990391401E+04  0.13854679104E+04  0.82265435030E+03 0.  0.
         23    2    4    4    0    0 -0.22730116002E+03  0.19545754940E+03 -0.17304525234E+03  0.35767750782E+03  0.90105878175E+02 0.  0.
         23    2    4    4    0    0  0.21255822668E+03 -0.38162082425E+03 -0.92599388781E+03  0.10277904025E+04  0.89849752673E+02 0.  0.
          3    1    3    3  502    0 -0.30186732907E+01 -0.32988266576E+01  0.18300736548E+02  0.18839097748E+02  0.00000000000E+00 0. -1.
         -4    1    3    3    0  502  0.17761606624E+02  0.18946210152E+03  0.15669730081E+03  0.24650640288E+03  0.00000000000E+00 0.  1.
         13    1    5    5    0    0 -0.19232238972E+03  0.13354024361E+03 -0.96641042011E+02  0.25329901155E+03  0.00000000000E+00 0. -1.
        -13    1    5    5    0    0 -0.34978770293E+02  0.61917305791E+02 -0.76404210327E+02  0.10437849627E+03  0.00000000000E+00 0.  1.
          3    1    6    6  503    0  0.16032675776E+03 -0.21080087542E+03 -0.49869698304E+03  0.56465950733E+03  0.00000000000E+00 0. -1.
         -3    1    6    6    0  503  0.52231468923E+02 -0.17081994884E+03 -0.42729690477E+03  0.46313089521E+03  0.00000000000E+00 0.  1.
<mgrwt>
<rscale>  0 0.13679667E+04</rscale>
<asrwt>0</asrwt>
<pdfrwt beam="1">  1        1 0.19806573E+00 0.13679667E+04</pdfrwt>
<pdfrwt beam="2">  1       -2 0.55905562E-01 0.13679667E+04</pdfrwt>
<totfact> 0.23793200E+01</totfact>
</mgrwt>
</event>
<event>
12    5  0.5041746E-008  0.2391783E+04  0.7818608E-02  0.8442586E-01
         -2   -1    0    0    0  501 -0.00000000000E+00  0.00000000000E+00  0.18926405461E+04  0.18926405461E+04  0.00000000000E+00 0.  1.
          1   -1    0    0  501    0  0.00000000000E+00 -0.00000000000E+00 -0.75564104572E+03  0.75564104572E+03  0.00000000000E+00 0. -1.
        -24    2    1    2    0    0  0.27116130342E+03  0.15180870132E+03 -0.59246004802E+03  0.67439528837E+03  0.85004483423E+02 0.  0.
        254    2    1    2    0    0 -0.27116130342E+03 -0.15180870132E+03  0.17294595484E+04  0.19738863035E+04  0.89923438277E+03 0.  0.
         23    2    4    4    0    0 -0.30933133813E+03 -0.37683159252E+03  0.44310816381E+03  0.66445593012E+03  0.86422869464E+02 0.  0.
         23    2    4    4    0    0  0.38170034717E+02  0.22502289119E+03  0.12863513846E+04  0.13094303733E+04  0.88406814593E+02 0.  0.
          3    1    3    3  502    0  0.22548790383E+03  0.15709180248E+03 -0.52774038092E+03  0.59500633512E+03  0.00000000000E+00 0. -1.
         -4    1    3    3    0  502  0.45673399587E+02 -0.52831011596E+01 -0.64719667098E+02  0.79388953243E+02  0.00000000000E+00 0.  1.
         13    1    5    5    0    0 -0.21739142716E+03 -0.30169062153E+03  0.29520466540E+03  0.47478632899E+03  0.00000000000E+00 0. -1.
        -13    1    5    5    0    0 -0.91939910975E+02 -0.75140970984E+02  0.14790349841E+03  0.18966960113E+03  0.00000000000E+00 0.  1.
          3    1    6    6  503    0  0.59221214010E+02  0.17917427504E+03  0.11131035918E+04  0.11289863502E+04  0.00000000000E+00 0. -1.
         -3    1    6    6    0  503 -0.21051179293E+02  0.45848616157E+02  0.17324779284E+03  0.18044402311E+03  0.00000000000E+00 0.  1.
<mgrwt>
<rscale>  0 0.23917833E+04</rscale>
<asrwt>0</asrwt>
<pdfrwt beam="1">  1        1 0.11625247E+00 0.23917833E+04</pdfrwt>
<pdfrwt beam="2">  1       -2 0.29117547E+00 0.23917833E+04</pdfrwt>
<totfact> 0.68494715E-01</totfact>
</mgrwt>
</event>
<event>
12    5  0.5041746E-008  0.2189451E+04  0.7818608E-02  0.8522832E-01
          1   -1    0    0  501    0  0.00000000000E+00  0.00000000000E+00  0.23661047893E+04  0.23661047893E+04  0.00000000000E+00 0. -1.
         -2   -1    0    0    0  501 -0.00000000000E+00 -0.00000000000E+00 -0.50649640548E+03  0.50649640548E+03  0.00000000000E+00 0.  1.
        -24    2    1    2    0    0 -0.23133814230E+03  0.74735761663E+03  0.13886389505E+04  0.15957469205E+04  0.77648927762E+02 0.  0.
        254    2    1    2    0    0  0.23133814230E+03 -0.74735761663E+03  0.47096943330E+03  0.12768542743E+04  0.89245945992E+03 0.  0.
         23    2    4    4    0    0 -0.16493401359E+03 -0.11919811667E+02 -0.13954627335E+03  0.23790730408E+03  0.98901022131E+02 0.  0.
         23    2    4    4    0    0  0.39627215589E+03 -0.73543780497E+03  0.61051570666E+03  0.10389469703E+04  0.93706949885E+02 0.  0.
          3    1    3    3  502    0 -0.21739483105E+03  0.60579660712E+03  0.11544197063E+04  0.13217166489E+04  0.00000000000E+00 0. -1.
         -4    1    3    3    0  502 -0.13943311249E+02  0.14156100951E+03  0.23421924422E+03  0.27403027151E+03  0.00000000000E+00 0.  1.
         13    1    5    5    0    0 -0.10509895159E+03 -0.19581523277E+02 -0.27079269328E+02  0.11028378170E+03  0.00000000000E+00 0. -1.
        -13    1    5    5    0    0 -0.59835061997E+02  0.76617116105E+01 -0.11246700403E+03  0.12762352238E+03  0.00000000000E+00 0.  1.
          2    1    6    6  503    0  0.22267244777E+03 -0.32272645035E+03  0.30790982468E+03  0.49854171429E+03  0.00000000000E+00 0. -1.
         -2    1    6    6    0  503  0.17359970812E+03 -0.41271135462E+03  0.30260588198E+03  0.54040525598E+03  0.00000000000E+00 0.  1.
<mgrwt>
<rscale>  0 0.21894507E+04</rscale>
<asrwt>0</asrwt>
<pdfrwt beam="1">  1        1 0.36401612E+00 0.21894507E+04</pdfrwt>
<pdfrwt beam="2">  1       -2 0.77922525E-01 0.21894507E+04</pdfrwt>
<totfact> 0.19711218E+00</totfact>
</mgrwt>
</event>
<event>
12    5  0.5041746E-008  0.1968827E+04  0.7818608E-02  0.8621335E-01
         -4   -1    0    0    0  501 -0.00000000000E+00  0.00000000000E+00  0.42128319072E+03  0.42128319072E+03  0.00000000000E+00 0.  1.
          1   -1    0    0  501    0  0.00000000000E+00 -0.00000000000E+00 -0.23002810680E+04  0.23002810680E+04  0.00000000000E+00 0. -1.
        -24    2    1    2    0    0  0.68448682044E+03  0.35456901916E+03 -0.88639283750E+03  0.11775037604E+04  0.81126116262E+02 0.  0.
        254    2    1    2    0    0 -0.68448682044E+03 -0.35456901916E+03 -0.99260503981E+03  0.15440604983E+04  0.89700427020E+03 0.  0.
         23    2    4    4    0    0  0.11953581662E+03 -0.17932247686E+03  0.22549101813E+02  0.23414933107E+03  0.88724771557E+02 0.  0.
         23    2    4    4    0    0 -0.80402263706E+03 -0.17524654230E+03 -0.10151541416E+04  0.13099111673E+04  0.90363617497E+02 0.  0.
          3    1    3    3  502    0  0.67713258484E+03  0.34293054381E+03 -0.85545100764E+03  0.11436373209E+04  0.00000000000E+00 0. -1.
         -4    1    3    3    0  502  0.73542356054E+01  0.11638475348E+02 -0.30941829864E+02  0.33866439510E+02  0.00000000000E+00 0.  1.
         13    1    5    5    0    0  0.12847562185E+03 -0.13442288690E+03  0.28014317290E+02  0.18804334582E+03  0.00000000000E+00 0.  1.
        -13    1    5    5    0    0 -0.89398052362E+01 -0.44899589958E+02 -0.54652154763E+01  0.46105985255E+02  0.00000000000E+00 0. -1.
          1    1    6    6  503    0 -0.65487800173E+01 -0.13793331476E+01 -0.29166425542E+02  0.29924395709E+02  0.00000000000E+00 0. -1.
         -1    1    6    6    0  503 -0.79747385704E+03 -0.17386720915E+03 -0.98598771608E+03  0.12799867715E+04  0.00000000000E+00 0.  1.
<mgrwt>
<rscale>  0 0.19688268E+04</rscale>
<asrwt>0</asrwt>
<pdfrwt beam="1">  1        1 0.35388940E+00 0.19688268E+04</pdfrwt>
<pdfrwt beam="2">  1       -4 0.64812798E-01 0.19688268E+04</pdfrwt>
<totfact> 0.18979434E+00</totfact>
</mgrwt>
</event>
<event>
12    5  0.5041746E-008  0.3276728E+04  0.7818608E-02  0.8168842E-01
          1   -1    0    0  501    0  0.00000000000E+00  0.00000000000E+00  0.36552089375E+04  0.36552089375E+04  0.00000000000E+00 0. -1.
         -2   -1    0    0    0  501 -0.00000000000E+00 -0.00000000000E+00 -0.73435911917E+03  0.73435911917E+03  0.00000000000E+00 0.  1.
        -24    2    1    2    0    0  0.80391231587E+02 -0.40336784108E+03 -0.60023171768E+03  0.73197847429E+03  0.79661826367E+02 0.  0.
        254    2    1    2    0    0 -0.80391231587E+02  0.40336784108E+03  0.35210815360E+04  0.36575895824E+04  0.90043212104E+03 0.  0.
         23    2    4    4    0    0 -0.18926504125E+03  0.70290698194E+02  0.15252035942E+03  0.26951846749E+03  0.92820828406E+02 0.  0.
         23    2    4    4    0    0  0.10887380966E+03  0.33307714289E+03  0.33685611766E+04  0.33880711149E+04  0.95013628661E+02 0.  0.
          1    1    3    3  502    0  0.43819644413E+02 -0.10350185852E+03 -0.21316749231E+03  0.24098376653E+03  0.00000000000E+00 0. -1.
         -2    1    3    3    0  502  0.36571587174E+02 -0.29986598256E+03 -0.38706422537E+03  0.49099470776E+03  0.00000000000E+00 0.  1.
         13    1    5    5    0    0 -0.17374990834E+03  0.28701600189E+02  0.13458242889E+03  0.22164215002E+03  0.00000000000E+00 0.  1.
        -13    1    5    5    0    0 -0.15515132914E+02  0.41589098004E+02  0.17937930529E+02  0.47876317463E+02  0.00000000000E+00 0. -1.
          3    1    6    6  503    0 -0.57601607466E+01  0.12479563418E+03  0.12370665277E+04  0.12433586465E+04  0.00000000000E+00 0. -1.
         -3    1    6    6    0  503  0.11463397041E+03  0.20828150870E+03  0.21314946489E+04  0.21447124684E+04  0.00000000000E+00 0.  1.
<mgrwt>
<rscale>  0 0.32767276E+04</rscale>
<asrwt>0</asrwt>
<pdfrwt beam="1">  1        1 0.56233983E+00 0.32767276E+04</pdfrwt>
<pdfrwt beam="2">  1       -2 0.11297833E+00 0.32767276E+04</pdfrwt>
<totfact> 0.84477943E-02</totfact>
</mgrwt>
</event>
<event>
12    5  0.5041746E-008  0.1672964E+04  0.7818608E-02  0.8776936E-01
         -2   -1    0    0    0  501 -0.00000000000E+00  0.00000000000E+00  0.49778837789E+03  0.49778837789E+03  0.00000000000E+00 0.  1.
          1   -1    0    0  501    0  0.00000000000E+00 -0.00000000000E+00 -0.14056215374E+04  0.14056215374E+04  0.00000000000E+00 0. -1.
        -24    2    1    2    0    0 -0.30992990726E+03 -0.13926959185E+03 -0.87525445554E+03  0.94256965254E+03  0.83154202052E+02 0.  0.
        254    2    1    2    0    0  0.30992990726E+03  0.13926959185E+03 -0.32578703989E+02  0.96084026277E+03  0.89816483564E+03 0.  0.
         23    2    4    4    0    0  0.34852008757E+03  0.40060735906E+03 -0.26213123038E+03  0.59916323199E+03  0.91275895247E+02 0.  0.
         23    2    4    4    0    0 -0.38590180313E+02 -0.26133776721E+03  0.22955252639E+03  0.36167703078E+03  0.91264898155E+02 0.  0.
          1    1    3    3  502    0 -0.29941872287E+03 -0.11076407178E+03 -0.80732936619E+03  0.86815952262E+03  0.00000000000E+00 0. -1.
         -2    1    3    3    0  502 -0.10511184392E+02 -0.28505520068E+02 -0.67925089347E+02  0.74410129919E+02  0.00000000000E+00 0.  1.
         13    1    5    5    0    0  0.20153193988E+03  0.20160918120E+03 -0.18575347860E+03  0.34024364733E+03  0.00000000000E+00 0. -1.
        -13    1    5    5    0    0  0.14698814769E+03  0.19899817785E+03 -0.76377751775E+02  0.25891958465E+03  0.00000000000E+00 0.  1.
          1    1    6    6  503    0 -0.39851236977E+02 -0.20210739864E+03  0.22048468113E+03  0.30174329535E+03  0.00000000000E+00 0.  1.
         -1    1    6    6    0  503  0.12610566634E+01 -0.59230368576E+02  0.90678452554E+01  0.59933735435E+02  0.00000000000E+00 0. -1.
<mgrwt>
<rscale>  0 0.16729639E+04</rscale>
<asrwt>0</asrwt>
<pdfrwt beam="1">  1        1 0.21624947E+00 0.16729639E+04</pdfrwt>
<pdfrwt beam="2">  1       -2 0.76582828E-01 0.16729639E+04</pdfrwt>
<totfact> 0.97113468E+00</totfact>
</mgrwt>
</event>
<event>
12    5  0.5041746E-008  0.3079663E+04  0.7818608E-02  0.8221342E-01
          1   -1    0    0  501    0  0.00000000000E+00  0.00000000000E+00  0.16754072034E+04  0.16754072034E+04  0.00000000000E+00 0. -1.
         -2   -1    0    0    0  501 -0.00000000000E+00 -0.00000000000E+00 -0.14152262889E+04  0.14152262889E+04  0.00000000000E+00 0.  1.
        -24    2    1    2    0    0 -0.15856059356E+03  0.70877240046E+03 -0.10950964793E+04  0.13165614801E+04  0.81228408582E+02 0.  0.
        254    2    1    2    0    0  0.15856059356E+03 -0.70877240046E+03  0.13552773938E+04  0.17740720122E+04  0.88490390038E+03 0.  0.
         23    2    4    4    0    0  0.36383798105E+03 -0.81371089898E+03  0.10797163034E+04  0.14029760558E+04  0.89727441594E+02 0.  0.
         23    2    4    4    0    0 -0.20527738748E+03  0.10493849852E+03  0.27556109034E+03  0.37109595636E+03  0.92883798570E+02 0.  0.
          1    1    3    3  502    0  0.92402360166E+01  0.24230182253E+02 -0.42558063939E+02  0.49836457537E+02  0.00000000000E+00 0. -1.
         -2    1    3    3    0  502 -0.16780082958E+03  0.68454221821E+03 -0.10525384154E+04  0.12667250225E+04  0.00000000000E+00 0.  1.
         13    1    5    5    0    0  0.20991747171E+03 -0.40536139468E+03  0.60897418905E+03  0.76107343152E+03  0.00000000000E+00 0. -1.
        -13    1    5    5    0    0  0.15392050933E+03 -0.40834950430E+03  0.47074211437E+03  0.64190262431E+03  0.00000000000E+00 0.  1.
          4    1    6    6  503    0 -0.64906024508E+02  0.36862452320E+01  0.32426063550E+02  0.72648675271E+02  0.00000000000E+00 0.  1.
         -4    1    6    6    0  503 -0.14037136297E+03  0.10125225329E+03  0.24313502679E+03  0.29844728109E+03  0.00000000000E+00 0. -1.
<mgrwt>
<rscale>  0 0.30796625E+04</rscale>
<asrwt>0</asrwt>
<pdfrwt beam="1">  1        1 0.25775496E+00 0.30796625E+04</pdfrwt>
<pdfrwt beam="2">  1       -2 0.21772712E+00 0.30796625E+04</pdfrwt>
<totfact> 0.37595218E-01</totfact>
</mgrwt>
</event>
<event>
12    5  0.5041746E-008  0.1650478E+04  0.7818608E-02  0.8790124E-01
          1   -1    0    0  501    0  0.00000000000E+00  0.00000000000E+00  0.15308184541E+04  0.15308184541E+04  0.00000000000E+00 0. -1.
         -2   -1    0    0    0  501 -0.00000000000E+00 -0.00000000000E+00 -0.44487284157E+03  0.44487284157E+03  0.00000000000E+00 0.  1.
        -24    2    1    2    0    0 -0.55184781255E+03  0.15102473010E+03  0.34699607174E+03  0.67378625276E+03  0.78975713225E+02 0.  0.
        254    2    1    2    0    0  0.55184781255E+03 -0.15102473010E+03  0.73894954081E+03  0.13019050429E+04  0.90640269177E+03 0.  0.
         23    2    4    4    0    0  0.62295057799E+02 -0.13619536115E+02 -0.19979708746E+03  0.23040054411E+03  0.95390610552E+02 0.  0.
         23    2    4    4    0    0  0.48955275475E+03 -0.13740519398E+03  0.93874662826E+03  0.10715044988E+04  0.91293876590E+02 0.  0.
          3    1    3    3  502    0 -0.49603487110E+03  0.13780690838E+03  0.33765931137E+03  0.61567454706E+03  0.00000000000E+00 0. -1.
         -4    1    3    3    0  502 -0.55812941457E+02  0.13217821714E+02  0.93367603730E+01  0.58111705698E+02  0.00000000000E+00 0.  1.
         13    1    5    5    0    0  0.44390636639E+02  0.13007576118E+02 -0.24799547643E+02  0.52485647762E+02  0.00000000000E+00 0. -1.
        -13    1    5    5    0    0  0.17904421160E+02 -0.26627112233E+02 -0.17499753981E+03  0.17791489635E+03  0.00000000000E+00 0.  1.
          2    1    6    6  503    0  0.10871394397E+02 -0.66027062423E+01  0.68918998524E+02  0.70082888806E+02  0.00000000000E+00 0. -1.
         -2    1    6    6    0  503  0.47868136036E+03 -0.13080248774E+03  0.86982762974E+03  0.10014216100E+04  0.00000000000E+00 0.  1.
<mgrwt>
<rscale>  0 0.16504782E+04</rscale>
<asrwt>0</asrwt>
<pdfrwt beam="1">  1        1 0.23551053E+00 0.16504782E+04</pdfrwt>
<pdfrwt beam="2">  1       -2 0.68441976E-01 0.16504782E+04</pdfrwt>
<totfact> 0.10196101E+01</totfact>
</mgrwt>
</event>
<event>
12    5  0.5041746E-008  0.1117798E+04  0.7818608E-02  0.9188016E-01
         -4   -1    0    0    0  501 -0.00000000000E+00  0.00000000000E+00  0.30404808271E+03  0.30404808271E+03  0.00000000000E+00 0.  1.
          3   -1    0    0  501    0  0.00000000000E+00 -0.00000000000E+00 -0.10273644864E+04  0.10273644864E+04  0.00000000000E+00 0. -1.
        -24    2    1    2    0    0  0.17548373794E+03 -0.23144283303E+02 -0.12271212217E+03  0.22907924383E+03  0.78030986767E+02 0.  0.
        254    2    1    2    0    0 -0.17548373794E+03  0.23144283303E+02 -0.60060428154E+03  0.11023333253E+04  0.90723925011E+03 0.  0.
         23    2    4    4    0    0 -0.12027914531E+03 -0.18892419194E+03  0.16915176374E+03  0.29687583030E+03  0.96765264145E+02 0.  0.
         23    2    4    4    0    0 -0.55204592635E+02  0.21206847525E+03 -0.76975604528E+03  0.80545749500E+03  0.90646686499E+02 0.  0.
          1    1    3    3  502    0  0.15902687647E+03 -0.45500761537E+02 -0.10921604646E+03  0.19821203683E+03  0.00000000000E+00 0. -1.
         -2    1    3    3    0  502  0.16456861472E+02  0.22356478234E+02 -0.13496075711E+02  0.30867207003E+02  0.00000000000E+00 0.  1.
         13    1    5    5    0    0 -0.11548784315E+03 -0.98420505615E+02  0.12208175678E+03  0.19475110572E+03  0.00000000000E+00 0.  1.
        -13    1    5    5    0    0 -0.47913021527E+01 -0.90503686328E+02  0.47070006955E+02  0.10212472458E+03  0.00000000000E+00 0. -1.
          2    1    6    6  503    0  0.21248396878E+02  0.26905081590E+02 -0.16020171852E+03  0.16382908289E+03  0.00000000000E+00 0. -1.
         -2    1    6    6    0  503 -0.76452989513E+02  0.18516339365E+03 -0.60955432676E+03  0.64162841211E+03  0.00000000000E+00 0.  1.
<mgrwt>
<rscale>  0 0.11177982E+04</rscale>
<asrwt>0</asrwt>
<pdfrwt beam="1">  1        3 0.15805607E+00 0.11177982E+04</pdfrwt>
<pdfrwt beam="2">  1       -4 0.46776628E-01 0.11177982E+04</pdfrwt>
<totfact> 0.28386772E+00</totfact>
</mgrwt>
</event>
<event>
12    5  0.5041746E-008  0.2647924E+04  0.7818608E-02  0.8352102E-01
         -2   -1    0    0    0  501 -0.00000000000E+00  0.00000000000E+00  0.62310815192E+03  0.62310815192E+03  0.00000000000E+00 0.  1.
          1   -1    0    0  501    0  0.00000000000E+00 -0.00000000000E+00 -0.28131158599E+04  0.28131158599E+04  0.00000000000E+00 0. -1.
        -24    2    1    2    0    0 -0.11056659120E+04  0.32585573523E+03 -0.11912039289E+04  0.16595279902E+04  0.79920467349E+02 0.  0.
        254    2    1    2    0    0  0.11056659120E+04 -0.32585573523E+03 -0.99880377908E+03  0.17766960216E+04  0.91124129345E+03 0.  0.
         23    2    4    4    0    0  0.22283282484E+03  0.29913412590E+03 -0.26284530604E+03  0.46525843480E+03  0.90785809145E+02 0.  0.
         23    2    4    4    0    0  0.88283308713E+03 -0.62498986113E+03 -0.73595847304E+03  0.13114375868E+04  0.90703272881E+02 0.  0.
          3    1    3    3  502    0 -0.10807148401E+04  0.30515785698E+03 -0.11549201522E+04  0.16108713298E+04  0.00000000000E+00 0. -1.
         -4    1    3    3    0  502 -0.24951071862E+02  0.20697878249E+02 -0.36283776718E+02  0.48656660427E+02  0.00000000000E+00 0.  1.
         13    1    5    5    0    0  0.10805193646E+03  0.21374355093E+03 -0.18308778747E+03  0.30146751808E+03  0.00000000000E+00 0. -1.
        -13    1    5    5    0    0  0.11478088839E+03  0.85390574971E+02 -0.79757518567E+02  0.16379091672E+03  0.00000000000E+00 0.  1.
          2    1    6    6  503    0  0.26990837249E+03 -0.14121224078E+03 -0.20809172965E+03  0.36890865324E+03  0.00000000000E+00 0. -1.
         -2    1    6    6    0  503  0.61292471464E+03 -0.48377762035E+03 -0.52786674340E+03  0.94252893353E+03  0.00000000000E+00 0.  1.
<mgrwt>
<rscale>  0 0.26479240E+04</rscale>
<asrwt>0</asrwt>
<pdfrwt beam="1">  1        1 0.43278706E+00 0.26479240E+04</pdfrwt>
<pdfrwt beam="2">  1       -2 0.95862792E-01 0.26479240E+04</pdfrwt>
<totfact> 0.57389081E-01</totfact>
</mgrwt>
</event>
<event>
12    5  0.5041746E-008  0.1840803E+04  0.7818608E-02  0.8684897E-01
          1   -1    0    0  501    0  0.00000000000E+00  0.00000000000E+00  0.46584254236E+03  0.46584254236E+03  0.00000000000E+00 0. -1.
         -2   -1    0    0    0  501 -0.00000000000E+00 -0.00000000000E+00 -0.18185100458E+04  0.18185100458E+04  0.00000000000E+00 0.  1.
        -24    2    1    2    0    0  0.18531275558E+03 -0.62996284310E+03 -0.80873304566E+03  0.10447994330E+04  0.79766627636E+02 0.  0.
        254    2    1    2    0    0 -0.18531275558E+03  0.62996284310E+03 -0.54393445775E+03  0.12395531552E+04  0.89968512775E+03 0.  0.
         23    2    4    4    0    0 -0.29717828115E+03  0.80177847643E+03 -0.54071854660E+03  0.10160415677E+04  0.93809725498E+02 0.  0.
         23    2    4    4    0    0  0.11186552557E+03 -0.17181563332E+03 -0.32159111563E+01  0.22351158748E+03  0.88952683989E+02 0.  0.
          1    1    3    3  502    0  0.16634497756E+01  0.23192871331E+01 -0.55211873766E+01  0.62152769857E+01  0.00000000000E+00 0. -1.
         -2    1    3    3    0  502  0.18364930581E+03 -0.63228213024E+03 -0.80321185829E+03  0.10385841560E+04  0.00000000000E+00 0.  1.
         13    1    5    5    0    0 -0.75630616444E+02  0.20152561641E+03 -0.89538984146E+02  0.23313042250E+03  0.00000000000E+00 0. -1.
        -13    1    5    5    0    0 -0.22154766471E+03  0.60025286002E+03 -0.45117956245E+03  0.78291114520E+03  0.00000000000E+00 0.  1.
          4    1    6    6  503    0  0.11658329523E+03 -0.13665693978E+03 -0.25779274823E+02  0.18146998354E+03  0.00000000000E+00 0. -1.
         -4    1    6    6    0  503 -0.47177696537E+01 -0.35158693541E+02  0.22563363666E+02  0.42041603941E+02  0.00000000000E+00 0.  1.
<mgrwt>
<rscale>  0 0.18408035E+04</rscale>
<asrwt>0</asrwt>
<pdfrwt beam="1">  1        1 0.71668084E-01 0.18408035E+04</pdfrwt>
<pdfrwt beam="2">  1       -2 0.27977078E+00 0.18408035E+04</pdfrwt>
<totfact> 0.16993553E+00</totfact>
</mgrwt>
</event>
<event>
12    5  0.5041746E-008  0.1262083E+04  0.7818608E-02  0.9060186E-01
          1   -1    0    0  501    0  0.00000000000E+00  0.00000000000E+00  0.30146231549E+03  0.30146231549E+03  0.00000000000E+00 0. -1.
         -2   -1    0    0    0  501 -0.00000000000E+00 -0.00000000000E+00 -0.13209394409E+04  0.13209394409E+04  0.00000000000E+00 0.  1.
        -24    2    1    2    0    0 -0.15983234414E+03  0.80878203065E+02 -0.56386556862E+03  0.59698602262E+03  0.79751299471E+02 0.  0.
        254    2    1    2    0    0  0.15983234414E+03 -0.80878203065E+02 -0.45561155682E+03  0.10254157338E+04  0.90100381488E+03 0.  0.
         23    2    4    4    0    0  0.28470616875E+03  0.68354613989E+02 -0.66052710964E+03  0.72833330678E+03  0.91887906801E+02 0.  0.
         23    2    4    4    0    0 -0.12487382461E+03 -0.14923281705E+03  0.20491555282E+03  0.29708242701E+03  0.91671581694E+02 0.  0.
          3    1    3    3  502    0  0.10037489539E+01  0.22532315155E+02 -0.40400908459E+02  0.46270359222E+02  0.00000000000E+00 0. -1.
         -4    1    3    3    0  502 -0.16083609309E+03  0.58345887910E+02 -0.52346466016E+03  0.55071566340E+03  0.00000000000E+00 0.  1.
         13    1    5    5    0    0  0.91091185575E+02 -0.88815852261E+01 -0.27825954034E+03  0.29292466341E+03  0.00000000000E+00 0. -1.
        -13    1    5    5    0    0  0.19361498317E+03  0.77236199215E+02 -0.38226756930E+03  0.43540864337E+03  0.00000000000E+00 0.  1.
          3    1    6    6  503    0 -0.60750737149E+02 -0.85213687151E+02  0.17070220601E+03  0.20022803919E+03  0.00000000000E+00 0. -1.
         -3    1    6    6    0  503 -0.64123087464E+02 -0.64019129903E+02  0.34213346811E+02  0.96854387817E+02  0.00000000000E+00 0.  1.
<mgrwt>
<rscale>  0 0.12620831E+04</rscale>
<asrwt>0</asrwt>
<pdfrwt beam="1">  1        1 0.46378818E-01 0.12620831E+04</pdfrwt>
<pdfrwt beam="2">  1       -2 0.20322145E+00 0.12620831E+04</pdfrwt>
<totfact> 0.94863959E+00</totfact>
</mgrwt>
</event>
<event>
12    5  0.5041746E-008  0.1934097E+04  0.7818608E-02  0.8638068E-01
         -2   -1    0    0    0  501 -0.00000000000E+00  0.00000000000E+00  0.10559362693E+04  0.10559362693E+04  0.00000000000E+00 0.  1.
          1   -1    0    0  501    0  0.00000000000E+00 -0.00000000000E+00 -0.88564277113E+03  0.88564277113E+03  0.00000000000E+00 0. -1.
        -24    2    1    2    0    0 -0.18417528844E+03 -0.29256384406E+02  0.82535524891E+03  0.84978061917E+03  0.78353946358E+02 0.  0.
        254    2    1    2    0    0  0.18417528844E+03  0.29256384406E+02 -0.65506175075E+03  0.10917984213E+04  0.85331203112E+03 0.  0.
         23    2    4    4    0    0  0.42730069180E+03  0.72417722155E+02 -0.67395905245E+02  0.44783921360E+03  0.90485056756E+02 0.  0.
         23    2    4    4    0    0 -0.24312540336E+03 -0.43161337748E+02 -0.58766584550E+03  0.64395920765E+03  0.91430040539E+02 0.  0.
          3    1    3    3  502    0 -0.63748402626E+02 -0.38968966901E+02  0.21582902865E+03  0.22839572857E+03  0.00000000000E+00 0. -1.
         -4    1    3    3    0  502 -0.12042688581E+03  0.97125824946E+01  0.60952622026E+03  0.62138489060E+03  0.00000000000E+00 0.  1.
         13    1    5    5    0    0  0.29922448954E+03  0.86710014116E+01 -0.37554324882E+02  0.30169655073E+03  0.00000000000E+00 0.  1.
        -13    1    5    5    0    0  0.12807620227E+03  0.63746720743E+02 -0.29841580363E+02  0.14614266287E+03  0.00000000000E+00 0. -1.
          4    1    6    6  503    0 -0.55187267121E+02  0.28432107000E+02 -0.13061181922E+03  0.14461489025E+03  0.00000000000E+00 0. -1.
         -4    1    6    6    0  503 -0.18793813624E+03 -0.71593444749E+02 -0.45705402628E+03  0.49934431740E+03  0.00000000000E+00 0.  1.
<mgrwt>
<rscale>  0 0.19340965E+04</rscale>
<asrwt>0</asrwt>
<pdfrwt beam="1">  1        1 0.13625273E+00 0.19340965E+04</pdfrwt>
<pdfrwt beam="2">  1       -2 0.16245173E+00 0.19340965E+04</pdfrwt>
<totfact> 0.36929693E+00</totfact>
</mgrwt>
</event>
<event>
12    5  0.5041746E-008  0.1331787E+04  0.7818608E-02  0.9004731E-01
          1   -1    0    0  501    0  0.00000000000E+00  0.00000000000E+00  0.10993731405E+04  0.10993731405E+04  0.00000000000E+00 0. -1.
         -2   -1    0    0    0  501 -0.00000000000E+00 -0.00000000000E+00 -0.40333369810E+03  0.40333369810E+03  0.00000000000E+00 0.  1.
        -24    2    1    2    0    0 -0.27425244268E+03 -0.73617757995E+02 -0.14192766847E+03  0.32526117449E+03  0.70833550989E+02 0.  0.
        254    2    1    2    0    0  0.27425244268E+03  0.73617757995E+02  0.83796711083E+03  0.11774456641E+04  0.77688830366E+03 0.  0.
         23    2    4    4    0    0  0.29258226023E+02 -0.18672842710E+03  0.77518686026E+03  0.80320459339E+03  0.92192197312E+02 0.  0.
         23    2    4    4    0    0  0.24499421666E+03  0.26034618510E+03  0.62780250574E+02  0.37424107067E+03  0.91174101710E+02 0.  0.
          1    1    3    3  502    0 -0.15456796692E+02  0.37902364702E+00 -0.30001039524E+02  0.33750831033E+02  0.00000000000E+00 0. -1.
         -2    1    3    3    0  502 -0.25879564599E+03 -0.73996781642E+02 -0.11192662895E+03  0.29151034346E+03  0.00000000000E+00 0.  1.
         13    1    5    5    0    0  0.62733753543E+02 -0.11475193253E+03  0.49605597723E+03  0.51300590874E+03  0.00000000000E+00 0.  1.
        -13    1    5    5    0    0 -0.33475527519E+02 -0.71976494577E+02  0.27913088303E+03  0.29019868465E+03  0.00000000000E+00 0. -1.
          3    1    6    6  503    0  0.11174411183E+03  0.14129934237E+03  0.75014211665E+02  0.19513939283E+03  0.00000000000E+00 0. -1.
         -3    1    6    6    0  503  0.13325010483E+03  0.11904684272E+03 -0.12233961091E+02  0.17910167784E+03  0.00000000000E+00 0.  1.
<mgrwt>
<rscale>  0 0.13317871E+04</rscale>
<asrwt>0</asrwt>
<pdfrwt beam="1">  1        1 0.16913433E+00 0.13317871E+04</pdfrwt>
<pdfrwt beam="2">  1       -2 0.62051338E-01 0.13317871E+04</pdfrwt>
<totfact> 0.26307060E+01</totfact>
</mgrwt>
</event>
<event>
12    5  0.5041746E-008  0.2351975E+04  0.7818608E-02  0.8457706E-01
         -4   -1    0    0    0  501 -0.00000000000E+00  0.00000000000E+00  0.90399558894E+03  0.90399558894E+03  0.00000000000E+00 0.  1.
          3   -1    0    0  501    0  0.00000000000E+00 -0.00000000000E+00 -0.15298152041E+04  0.15298152041E+04  0.00000000000E+00 0. -1.
        -24    2    1    2    0    0 -0.57775591109E+03 -0.80763139077E+03 -0.16876979088E+03  0.10096482769E+04  0.69541675549E+02 0.  0.
        254    2    1    2    0    0  0.57775591109E+03  0.80763139077E+03 -0.45704982432E+03  0.14241625161E+04  0.91283841633E+03 0.  0.
         23    2    4    4    0    0  0.12727474061E+03  0.66815848433E+03 -0.61200856307E+03  0.91953089763E+03  0.91367229566E+02 0.  0.
         23    2    4    4    0    0  0.45048117048E+03  0.13947290644E+03  0.15495873875E+03  0.50463161852E+03  0.90856387288E+02 0.  0.
          1    1    3    3  502    0 -0.54433859342E+03 -0.75285678806E+03 -0.14074465101E+03  0.93963125980E+03  0.00000000000E+00 0. -1.
         -2    1    3    3    0  502 -0.33417317669E+02 -0.54774602718E+02 -0.28025139874E+02  0.70017017132E+02  0.00000000000E+00 0.  1.
         13    1    5    5    0    0 -0.54798528160E+01  0.96254738791E+01 -0.46720239893E+00  0.11085883472E+02  0.00000000000E+00 0.  1.
        -13    1    5    5    0    0  0.13275459343E+03  0.65853301045E+03 -0.61154136067E+03  0.90844501415E+03  0.00000000000E+00 0. -1.
          4    1    6    6  503    0  0.74240062329E+01 -0.25425608857E+01 -0.84280240012E+01  0.11515731543E+02  0.00000000000E+00 0.  1.
         -4    1    6    6    0  503  0.44305716424E+03  0.14201546733E+03  0.16338676275E+03  0.49311588698E+03  0.00000000000E+00 0. -1.
<mgrwt>
<rscale>  0 0.23519747E+04</rscale>
<asrwt>0</asrwt>
<pdfrwt beam="1">  1        3 0.23535618E+00 0.23519747E+04</pdfrwt>
<pdfrwt beam="2">  1       -4 0.13907624E+00 0.23519747E+04</pdfrwt>
<totfact> 0.67434598E-02</totfact>
</mgrwt>
</event>
<event>
12    5  0.5041746E-008  0.1929797E+04  0.7818608E-02  0.8640165E-01
         -2   -1    0    0    0  501 -0.00000000000E+00  0.00000000000E+00  0.62422561049E+03  0.62422561049E+03  0.00000000000E+00 0.  1.
          1   -1    0    0  501    0  0.00000000000E+00 -0.00000000000E+00 -0.14914939717E+04  0.14914939717E+04  0.00000000000E+00 0. -1.
        -24    2    1    2    0    0 -0.51988187122E+02 -0.28193501231E+03 -0.10613953692E+04  0.11024133042E+04  0.81023705594E+02 0.  0.
        254    2    1    2    0    0  0.51988187122E+02  0.28193501231E+03  0.19412700797E+03  0.10133062780E+04  0.95232042661E+03 0.  0.
         23    2    4    4    0    0 -0.34053493386E+03  0.27195191154E+03 -0.16320265628E+03  0.47443788634E+03  0.92381370460E+02 0.  0.
         23    2    4    4    0    0  0.39252312098E+03  0.99831007769E+01  0.35732966425E+03  0.53886839161E+03  0.92307051315E+02 0.  0.
          1    1    3    3  502    0 -0.52869020620E+02 -0.28712542640E+03 -0.10504658776E+04  0.10902819378E+04  0.00000000000E+00 0. -1.
         -2    1    3    3    0  502  0.88083349784E+00  0.51904140904E+01 -0.10929491591E+02  0.12131366474E+02  0.00000000000E+00 0.  1.
         13    1    5    5    0    0 -0.10734757033E+03  0.14205345081E+03 -0.54276545563E+02  0.18614141705E+03  0.00000000000E+00 0.  1.
        -13    1    5    5    0    0 -0.23318736353E+03  0.12989846073E+03 -0.10892611072E+03  0.28829646929E+03  0.00000000000E+00 0. -1.
          3    1    6    6  503    0  0.21253250817E+03 -0.34746106190E+02  0.22189823743E+03  0.30921867133E+03  0.00000000000E+00 0. -1.
         -3    1    6    6    0  503  0.17999061282E+03  0.44729206967E+02  0.13543142681E+03  0.22964972028E+03  0.00000000000E+00 0.  1.
<mgrwt>
<rscale>  0 0.19297966E+04</rscale>
<asrwt>0</asrwt>
<pdfrwt beam="1">  1        1 0.22946061E+00 0.19297966E+04</pdfrwt>
<pdfrwt beam="2">  1       -2 0.96034710E-01 0.19297966E+04</pdfrwt>
<totfact> 0.49353558E+00</totfact>
</mgrwt>
</event>
<event>
12    5  0.5041746E-008  0.1989868E+04  0.7818608E-02  0.8611372E-01
          1   -1    0    0  501    0  0.00000000000E+00  0.00000000000E+00  0.69348962786E+03  0.69348962786E+03  0.00000000000E+00 0. -1.
         -2   -1    0    0    0  501 -0.00000000000E+00 -0.00000000000E+00 -0.14274098782E+04  0.14274098782E+04  0.00000000000E+00 0.  1.
        -24    2    1    2    0    0  0.34778622641E+03 -0.20380534664E+03 -0.10065999927E+04  0.10873246604E+04  0.80867133034E+02 0.  0.
        254    2    1    2    0    0 -0.34778622641E+03  0.20380534664E+03  0.27267974240E+03  0.10335748456E+04  0.91182829577E+03 0.  0.
         23    2    4    4    0    0 -0.77985310631E+02  0.38807954721E+03  0.48507902865E+03  0.63235960824E+03  0.88823231591E+02 0.  0.
         23    2    4    4    0    0 -0.26980091578E+03 -0.18427420057E+03 -0.21239928624E+03  0.40121523737E+03  0.95449959401E+02 0.  0.
          1    1    3    3  502    0  0.69057253233E+02 -0.27557159796E+02 -0.27424253148E+03  0.28414304030E+03  0.00000000000E+00 0. -1.
         -2    1    3    3    0  502  0.27872897318E+03 -0.17624818684E+03 -0.73235746126E+03  0.80318162013E+03  0.00000000000E+00 0.  1.
         13    1    5    5    0    0 -0.15926552163E+02  0.46261550556E+01  0.27749471207E+02  0.32327844449E+02  0.00000000000E+00 0. -1.
        -13    1    5    5    0    0 -0.62058758468E+02  0.38345339215E+03  0.45732955744E+03  0.60003176379E+03  0.00000000000E+00 0.  1.
          2    1    6    6  503    0 -0.49318975703E+02 -0.64167250996E+02 -0.16109783419E+02  0.82518619635E+02  0.00000000000E+00 0. -1.
         -2    1    6    6    0  503 -0.22048194008E+03 -0.12010694957E+03 -0.19628950282E+03  0.31869661773E+03  0.00000000000E+00 0.  1.
<mgrwt>
<rscale>  0 0.19898683E+04</rscale>
<asrwt>0</asrwt>
<pdfrwt beam="1">  1        1 0.10669071E+00 0.19898683E+04</pdfrwt>
<pdfrwt beam="2">  1       -2 0.21960152E+00 0.19898683E+04</pdfrwt>
<totfact> 0.22329735E+00</totfact>
</mgrwt>
</event>
<event>
12    5  0.5041746E-008  0.2340685E+04  0.7818608E-02  0.8462050E-01
          1   -1    0    0  501    0  0.00000000000E+00  0.00000000000E+00  0.88052879972E+03  0.88052879972E+03  0.00000000000E+00 0. -1.
         -2   -1    0    0    0  501 -0.00000000000E+00 -0.00000000000E+00 -0.15555448218E+04  0.15555448218E+04  0.00000000000E+00 0.  1.
        -24    2    1    2    0    0 -0.97790882470E+02 -0.33560972966E+02 -0.13188682496E+04  0.13247727293E+04  0.70142205484E+02 0.  0.
        254    2    1    2    0    0  0.97790882470E+02  0.33560972966E+02  0.64385222745E+03  0.11113008922E+04  0.89986364896E+03 0.  0.
         23    2    4    4    0    0  0.22169807065E+03  0.40892580706E+03  0.21772318237E+03  0.52281315385E+03  0.97774533906E+02 0.  0.
         23    2    4    4    0    0 -0.12390718818E+03 -0.37536483410E+03  0.42612904508E+03  0.58848773840E+03  0.92087486847E+02 0.  0.
          1    1    3    3  502    0 -0.38877562626E+02 -0.46643696264E+02 -0.49781222714E+03  0.50150185719E+03  0.00000000000E+00 0. -1.
         -2    1    3    3    0  502 -0.58913319844E+02  0.13082723298E+02 -0.82105602242E+03  0.82327087211E+03  0.00000000000E+00 0.  1.
         13    1    5    5    0    0 -0.74854755003E+01  0.10945877702E+02  0.17132106341E+02  0.21664571305E+02  0.00000000000E+00 0. -1.
        -13    1    5    5    0    0  0.22918354615E+03  0.39797992936E+03  0.20059107603E+03  0.50114858254E+03  0.00000000000E+00 0.  1.
          3    1    6    6  503    0  0.10768016679E+02 -0.85820087713E+02  0.94465123531E+02  0.12808082293E+03  0.00000000000E+00 0. -1.
         -3    1    6    6    0  503 -0.13467520486E+03 -0.28954474639E+03  0.33166392155E+03  0.46040691548E+03  0.00000000000E+00 0.  1.
<mgrwt>
<rscale>  0 0.23406854E+04</rscale>
<asrwt>0</asrwt>
<pdfrwt beam="1">  1        1 0.13546597E+00 0.23406854E+04</pdfrwt>
<pdfrwt beam="2">  1       -2 0.23931459E+00 0.23406854E+04</pdfrwt>
<totfact> 0.11152216E+00</totfact>
</mgrwt>
</event>
<event>
12    5  0.5041746E-008  0.2145036E+04  0.7818608E-02  0.8541660E-01
         -2   -1    0    0    0  501 -0.00000000000E+00  0.00000000000E+00  0.13557993246E+04  0.13557993246E+04  0.00000000000E+00 0.  1.
          1   -1    0    0  501    0  0.00000000000E+00 -0.00000000000E+00 -0.84842589002E+03  0.84842589002E+03  0.00000000000E+00 0. -1.
        -24    2    1    2    0    0 -0.34528367712E+03  0.30035225968E+03 -0.56434625512E+03  0.73090581106E+03  0.79399693875E+02 0.  0.
        254    2    1    2    0    0  0.34528367712E+03 -0.30035225968E+03  0.10717196897E+04  0.14733194036E+04  0.90147361252E+03 0.  0.
         23    2    4    4    0    0  0.55921939142E+02 -0.50501124099E+03  0.96166433205E+03  0.10914369931E+04  0.90954964852E+02 0.  0.
         23    2    4    4    0    0  0.28936173798E+03  0.20465898131E+03  0.11005535768E+03  0.38188241046E+03  0.90035990749E+02 0.  0.
          3    1    3    3  502    0 -0.29375479475E+03  0.27108720011E+03 -0.44845687008E+03  0.60074429987E+03  0.00000000000E+00 0. -1.
         -4    1    3    3    0  502 -0.51528882369E+02  0.29265059576E+02 -0.11588938504E+03  0.13016151119E+03  0.00000000000E+00 0.  1.
         13    1    5    5    0    0  0.71825148900E+02 -0.39538430693E+03  0.69739158671E+03  0.80488671712E+03  0.00000000000E+00 0. -1.
        -13    1    5    5    0    0 -0.15903209758E+02 -0.10962693406E+03  0.26427274534E+03  0.28655027601E+03  0.00000000000E+00 0.  1.
          1    1    6    6  503    0  0.16414150710E+03  0.16706229930E+03  0.82148115179E+02  0.24819459911E+03  0.00000000000E+00 0. -1.
         -1    1    6    6    0  503  0.12522023088E+03  0.37596682004E+02  0.27907242496E+02  0.13368781134E+03  0.00000000000E+00 0.  1.
<mgrwt>
<rscale>  0 0.21450364E+04</rscale>
<asrwt>0</asrwt>
<pdfrwt beam="1">  1        1 0.13052706E+00 0.21450364E+04</pdfrwt>
<pdfrwt beam="2">  1       -2 0.20858451E+00 0.21450364E+04</pdfrwt>
<totfact> 0.18855293E+00</totfact>
</mgrwt>
</event>
<event>
12    5  0.5041746E-008  0.2561821E+04  0.7818608E-02  0.8381286E-01
          1   -1    0    0  501    0  0.00000000000E+00  0.00000000000E+00  0.12622468228E+04  0.12622468228E+04  0.00000000000E+00 0. -1.
         -2   -1    0    0    0  501 -0.00000000000E+00 -0.00000000000E+00 -0.12998503903E+04  0.12998503903E+04  0.00000000000E+00 0.  1.
        -24    2    1    2    0    0 -0.10452893233E+03 -0.10712600700E+04  0.27605032798E+03  0.11140253241E+04  0.79524863267E+02 0.  0.
        254    2    1    2    0    0  0.10452893233E+03  0.10712600700E+04 -0.31365389541E+03  0.14480718890E+04  0.91652004587E+03 0.  0.
         23    2    4    4    0    0  0.38043477095E+03  0.17798244371E+03 -0.27072908941E+03  0.50783754216E+03  0.90533773531E+02 0.  0.
         23    2    4    4    0    0 -0.27590583863E+03  0.89327762626E+03 -0.42924805999E+02  0.94023434687E+03  0.90161736369E+02 0.  0.
          1    1    3    3  502    0 -0.60730521682E+02 -0.88494375989E+03  0.24392654106E+03  0.91995315743E+03  0.00000000000E+00 0. -1.
         -4    1    3    3    0  502 -0.43798410647E+02 -0.18631631007E+03  0.32123786924E+02  0.19407216663E+03  0.00000000000E+00 0.  1.
         13    1    5    5    0    0  0.97518252600E+02  0.56417714586E+02 -0.28924582503E+02  0.11631594724E+03  0.00000000000E+00 0. -1.
        -13    1    5    5    0    0  0.28291651835E+03  0.12156472912E+03 -0.24180450691E+03  0.39152159492E+03  0.00000000000E+00 0.  1.
          1    1    6    6  503    0 -0.11948054235E+03  0.25313184837E+03 -0.89136463402E+00  0.27991449978E+03  0.00000000000E+00 0. -1.
         -1    1    6    6    0  503 -0.15642529628E+03  0.64014577789E+03 -0.42033441365E+02  0.66031984709E+03  0.00000000000E+00 0.  1.
<mgrwt>
<rscale>  0 0.25618212E+04</rscale>
<asrwt>0</asrwt>
<pdfrwt beam="1">  1        1 0.19419182E+00 0.25618212E+04</pdfrwt>
<pdfrwt beam="2">  1       -2 0.19997698E+00 0.25618212E+04</pdfrwt>
<totfact> 0.99347442E-01</totfact>
</mgrwt>
</event>
<event>
12    5  0.5041746E-008  0.1295454E+04  0.7818608E-02  0.9033178E-01
         -2   -1    0    0    0  501 -0.00000000000E+00  0.00000000000E+00  0.22006557206E+03  0.22006557206E+03  0.00000000000E+00 0.  1.
          1   -1    0    0  501    0  0.00000000000E+00 -0.00000000000E+00 -0.19064782915E+04  0.19064782915E+04  0.00000000000E+00 0. -1.
        -24    2    1    2    0    0 -0.27530067835E+03  0.10605027193E+03 -0.19561738607E+03  0.36374350429E+03  0.83702159493E+02 0.  0.
        254    2    1    2    0    0  0.27530067835E+03 -0.10605027193E+03 -0.14907953334E+04  0.17628003593E+04  0.89328453304E+03 0.  0.
         23    2    4    4    0    0  0.38617002556E+03 -0.13144522916E+02 -0.15350866751E+04  0.15857055987E+04  0.93118626482E+02 0.  0.
         23    2    4    4    0    0 -0.11086934721E+03 -0.92905749012E+02  0.44291341765E+02  0.17709476052E+03  0.92072476337E+02 0.  0.
          1    1    3    3  502    0 -0.17746758963E+03  0.88518509315E+02 -0.16973599019E+03  0.26103750348E+03  0.00000000000E+00 0. -1.
         -2    1    3    3    0  502 -0.97833088721E+02  0.17531762612E+02 -0.25881395888E+02  0.10270600081E+03  0.00000000000E+00 0.  1.
         13    1    5    5    0    0  0.25102827100E+03 -0.13802201308E+02 -0.80952384217E+03  0.84766416973E+03  0.00000000000E+00 0.  1.
        -13    1    5    5    0    0  0.13514175456E+03  0.65767839234E+00 -0.72556283296E+03  0.73804142901E+03  0.00000000000E+00 0. -1.
          2    1    6    6  503    0 -0.10737447429E+02 -0.66791945285E+02  0.22946356825E+02  0.71435229570E+02  0.00000000000E+00 0. -1.
         -2    1    6    6    0  503 -0.10013189978E+03 -0.26113803727E+02  0.21344984940E+02  0.10565953095E+03  0.00000000000E+00 0.  1.
<mgrwt>
<rscale>  0 0.12954540E+04</rscale>
<asrwt>0</asrwt>
<pdfrwt beam="1">  1        1 0.29330436E+00 0.12954540E+04</pdfrwt>
<pdfrwt beam="2">  1       -2 0.33856241E-01 0.12954540E+04</pdfrwt>
<totfact> 0.24311748E+01</totfact>
</mgrwt>
</event>
<event>
12    5  0.5041746E-008  0.1538723E+04  0.7818608E-02  0.8859103E-01
          1   -1    0    0  501    0  0.00000000000E+00  0.00000000000E+00  0.39624766832E+03  0.39624766832E+03  0.00000000000E+00 0. -1.
         -2   -1    0    0    0  501 -0.00000000000E+00 -0.00000000000E+00 -0.14938061723E+04  0.14938061723E+04  0.00000000000E+00 0.  1.
        -24    2    1    2    0    0  0.67800403920E+02 -0.49748277464E+03 -0.35945345700E+03  0.62246019507E+03  0.78510514356E+02 0.  0.
        254    2    1    2    0    0 -0.67800403920E+02  0.49748277464E+03 -0.73810504698E+03  0.12675936455E+04  0.89994921191E+03 0.  0.
         23    2    4    4    0    0  0.13279333706E+03  0.70780861515E+03 -0.50288633705E+03  0.88292156249E+03  0.89603077318E+02 0.  0.
         23    2    4    4    0    0 -0.20059374098E+03 -0.21032584051E+03 -0.23521870993E+03  0.38467208306E+03  0.90387841413E+02 0.  0.
          3    1    3    3  502    0  0.51419710335E+02 -0.13369077332E+03 -0.11727801064E+03  0.18512520428E+03  0.00000000000E+00 0. -1.
         -4    1    3    3    0  502  0.16380693584E+02 -0.36379200132E+03 -0.24217544636E+03  0.43733499079E+03  0.00000000000E+00 0.  1.
         13    1    5    5    0    0  0.11144291000E+03  0.38885626644E+03 -0.30926913601E+03  0.50919163056E+03  0.00000000000E+00 0. -1.
        -13    1    5    5    0    0  0.21350427065E+02  0.31895234872E+03 -0.19361720103E+03  0.37372993193E+03  0.00000000000E+00 0.  1.
          1    1    6    6  503    0 -0.19670882494E+03 -0.18078572344E+03 -0.23350673457E+03  0.35482845813E+03  0.00000000000E+00 0. -1.
         -1    1    6    6    0  503 -0.38849160456E+01 -0.29540117075E+02 -0.17119753595E+01  0.29843624932E+02  0.00000000000E+00 0.  1.
<mgrwt>
<rscale>  0 0.15387231E+04</rscale>
<asrwt>0</asrwt>
<pdfrwt beam="1">  1        1 0.60961179E-01 0.15387231E+04</pdfrwt>
<pdfrwt beam="2">  1       -2 0.22981634E+00 0.15387231E+04</pdfrwt>
<totfact> 0.43888214E+00</totfact>
</mgrwt>
</event>
<event>
12    5  0.5041746E-008  0.1276470E+04  0.7818608E-02  0.9048436E-01
         -2   -1    0    0    0  501 -0.00000000000E+00  0.00000000000E+00  0.38032605131E+03  0.38032605131E+03  0.00000000000E+00 0.  1.
          1   -1    0    0  501    0  0.00000000000E+00 -0.00000000000E+00 -0.10710382106E+04  0.10710382106E+04  0.00000000000E+00 0. -1.
        -24    2    1    2    0    0 -0.61095953264E+02  0.20730239860E+03 -0.31068950412E+03  0.39309275021E+03  0.10624002226E+03 0.  0.
        254    2    1    2    0    0  0.61095953264E+02 -0.20730239860E+03 -0.38002265518E+03  0.10582715117E+04  0.96375016164E+03 0.  0.
         23    2    4    4    0    0 -0.25667982210E+03 -0.11144081237E+03  0.21927260556E+03  0.36725476206E+03  0.92152042680E+02 0.  0.
         23    2    4    4    0    0  0.31777577537E+03 -0.95861586224E+02 -0.59929526074E+03  0.69101674964E+03  0.90434792036E+02 0.  0.
          1    1    3    3  502    0 -0.24250435548E+02  0.20047543775E+03 -0.24530145293E+03  0.31772832353E+03  0.00000000000E+00 0. -1.
         -2    1    3    3    0  502 -0.36845517716E+02  0.68269608434E+01 -0.65388051192E+02  0.75364426680E+02  0.00000000000E+00 0.  1.
         13    1    5    5    0    0 -0.22852451482E+03 -0.10081344911E+03  0.14907492985E+03  0.29087822212E+03  0.00000000000E+00 0. -1.
        -13    1    5    5    0    0 -0.28155307287E+02 -0.10627363264E+02  0.70197675712E+02  0.76376539943E+02  0.00000000000E+00 0.  1.
          3    1    6    6  503    0  0.12186742468E+03  0.52438620123E+01 -0.18257549014E+03  0.21957453606E+03  0.00000000000E+00 0. -1.
         -3    1    6    6    0  503  0.19590835069E+03 -0.10110544824E+03 -0.41671977060E+03  0.47144221358E+03  0.00000000000E+00 0.  1.
<mgrwt>
<rscale>  0 0.12764697E+04</rscale>
<asrwt>0</asrwt>
<pdfrwt beam="1">  1        1 0.16477511E+00 0.12764697E+04</pdfrwt>
<pdfrwt beam="2">  1       -2 0.58511700E-01 0.12764697E+04</pdfrwt>
<totfact> 0.31431410E+01</totfact>
</mgrwt>
</event>
<event>
12    5  0.5041746E-008  0.2732520E+04  0.7818608E-02  0.8324530E-01
          1   -1    0    0  501    0  0.00000000000E+00  0.00000000000E+00  0.13492402334E+04  0.13492402334E+04  0.00000000000E+00 0. -1.
         -2   -1    0    0    0  501 -0.00000000000E+00 -0.00000000000E+00 -0.13834945840E+04  0.13834945840E+04  0.00000000000E+00 0.  1.
        -24    2    1    2    0    0 -0.26151314671E+03 -0.11293663771E+04 -0.38249167271E+03  0.12234378886E+04  0.81503668825E+02 0.  0.
        254    2    1    2    0    0  0.26151314671E+03  0.11293663771E+04  0.34823732215E+03  0.15092969287E+04  0.90158219084E+03 0.  0.
         23    2    4    4    0    0 -0.31295712166E+03  0.35368010895E+03  0.91294915960E+01  0.48171718090E+03  0.94532086049E+02 0.  0.
         23    2    4    4    0    0  0.57447026837E+03  0.77568626816E+03  0.33910783056E+03  0.10275797478E+04  0.96024692278E+02 0.  0.
          1    1    3    3  502    0 -0.62702341980E+02 -0.23274205761E+03 -0.46363367464E+02  0.24545877640E+03  0.00000000000E+00 0. -1.
         -2    1    3    3    0  502 -0.19881080473E+03 -0.89662431950E+03 -0.33612830525E+03  0.97797911224E+03  0.00000000000E+00 0.  1.
         13    1    5    5    0    0 -0.12597537979E+02  0.37495115357E+02 -0.20601937585E+02  0.44598446958E+02  0.00000000000E+00 0. -1.
        -13    1    5    5    0    0 -0.30035958368E+03  0.31618499360E+03  0.29731429181E+02  0.43711873394E+03  0.00000000000E+00 0.  1.
          2    1    6    6  503    0  0.30213864089E+03  0.48727620216E+03  0.20040687636E+03  0.60736214206E+03  0.00000000000E+00 0. -1.
         -2    1    6    6    0  503  0.27233162749E+03  0.28841006599E+03  0.13870095419E+03  0.42021760576E+03  0.00000000000E+00 0.  1.
<mgrwt>
<rscale>  0 0.27325201E+04</rscale>
<asrwt>0</asrwt>
<pdfrwt beam="1">  1        1 0.20757542E+00 0.27325201E+04</pdfrwt>
<pdfrwt beam="2">  1       -2 0.21284532E+00 0.27325201E+04</pdfrwt>
<totfact> 0.70021896E-01</totfact>
</mgrwt>
</event>
<event>
12    5  0.5041746E-008  0.1522760E+04  0.7818608E-02  0.8869457E-01
         -2   -1    0    0    0  501 -0.00000000000E+00  0.00000000000E+00  0.61066385693E+03  0.61066385693E+03  0.00000000000E+00 0.  1.
          1   -1    0    0  501    0  0.00000000000E+00 -0.00000000000E+00 -0.94929411312E+03  0.94929411312E+03  0.00000000000E+00 0. -1.
        -24    2    1    2    0    0  0.12924880585E+03 -0.45935686692E+03  0.29594985428E+02  0.48476567608E+03  0.80049438108E+02 0.  0.
        254    2    1    2    0    0 -0.12924880585E+03  0.45935686692E+03 -0.36822524161E+03  0.10751922940E+04  0.89035647661E+03 0.  0.
         23    2    4    4    0    0 -0.36587692149E+03  0.58890208595E+03 -0.36791610956E+03  0.79004726161E+03  0.90226511504E+02 0.  0.
         23    2    4    4    0    0  0.23662811564E+03 -0.12954521903E+03 -0.30913205156E+00  0.28514503236E+03  0.92372966998E+02 0.  0.
          1    1    3    3  502    0  0.63724829532E+02 -0.26596568719E+03 -0.21321617767E+02  0.27432318904E+03  0.00000000000E+00 0. -1.
         -2    1    3    3    0  502  0.65523976317E+02 -0.19339117974E+03  0.50916603195E+02  0.21044248704E+03  0.00000000000E+00 0.  1.
         13    1    5    5    0    0 -0.28277827850E+03  0.47867857915E+03 -0.25475210853E+03  0.61155161166E+03  0.00000000000E+00 0.  1.
        -13    1    5    5    0    0 -0.83098642994E+02  0.11022350680E+03 -0.11316400103E+03  0.17849564995E+03  0.00000000000E+00 0. -1.
          2    1    6    6  503    0  0.93473964604E+02 -0.30922849821E+02  0.40698447448E+02  0.10653623010E+03  0.00000000000E+00 0. -1.
         -2    1    6    6    0  503  0.14315415104E+03 -0.98622369210E+02 -0.41007579500E+02  0.17860880226E+03  0.00000000000E+00 0.  1.
<mgrwt>
<rscale>  0 0.15227601E+04</rscale>
<asrwt>0</asrwt>
<pdfrwt beam="1">  1        1 0.14604525E+00 0.15227601E+04</pdfrwt>
<pdfrwt beam="2">  1       -2 0.93948286E-01 0.15227601E+04</pdfrwt>
<totfact> 0.13436637E+01</totfact>
</mgrwt>
</event>
<event>
12    5  0.5041746E-008  0.1141621E+04  0.7818608E-02  0.9165548E-01
          1   -1    0    0  501    0  0.00000000000E+00  0.00000000000E+00  0.24885434406E+04  0.24885434406E+04  0.00000000000E+00 0. -1.
         -2   -1    0    0    0  501 -0.00000000000E+00 -0.00000000000E+00 -0.13092994186E+03  0.13092994186E+03  0.00000000000E+00 0.  1.
        -24    2    1    2    0    0 -0.10203598499E+03 -0.17347805579E+03  0.41830565601E+03  0.47055961646E+03  0.77076278563E+02 0.  0.
        254    2    1    2    0    0  0.10203598499E+03  0.17347805579E+03  0.19393078427E+04  0.21489137660E+04  0.90355380954E+03 0.  0.
         23    2    4    4    0    0  0.25845159282E+03 -0.16999789510E+03  0.16033706366E+04  0.16355835577E+04  0.92949803288E+02 0.  0.
         23    2    4    4    0    0 -0.15641560783E+03  0.34347595090E+03  0.33593720619E+03  0.51333020829E+03  0.90622982879E+02 0.  0.
          1    1    3    3  502    0 -0.10137122101E+03 -0.18112478353E+03  0.40734583429E+03  0.45717933065E+03  0.00000000000E+00 0. -1.
         -2    1    3    3    0  502 -0.66476398135E+00  0.76467277374E+01  0.10959821712E+02  0.13380285804E+02  0.00000000000E+00 0.  1.
         13    1    5    5    0    0  0.18607698156E+03 -0.69959104943E+02  0.10421137863E+04  0.10609053035E+04  0.00000000000E+00 0. -1.
        -13    1    5    5    0    0  0.72374611255E+02 -0.10003879016E+03  0.56125685027E+03  0.57467825421E+03  0.00000000000E+00 0.  1.
          1    1    6    6  503    0  0.10678408573E+02  0.42538483192E+02  0.41073718751E+02  0.60088279505E+02  0.00000000000E+00 0. -1.
         -1    1    6    6    0  503 -0.16709401640E+03  0.30093746771E+03  0.29486348744E+03  0.45324192879E+03  0.00000000000E+00 0.  1.
<mgrwt>
<rscale>  0 0.11416214E+04</rscale>
<asrwt>0</asrwt>
<pdfrwt beam="1">  1        1 0.38285280E+00 0.11416214E+04</pdfrwt>
<pdfrwt beam="2">  1       -2 0.20143070E-01 0.11416214E+04</pdfrwt>
<totfact> 0.25602220E+01</totfact>
</mgrwt>
</event>
<event>
12    5  0.5041746E-008  0.2465728E+04  0.7818608E-02  0.8415298E-01
         -2   -1    0    0    0  501 -0.00000000000E+00  0.00000000000E+00  0.18511495744E+04  0.18511495744E+04  0.00000000000E+00 0.  1.
          1   -1    0    0  501    0  0.00000000000E+00 -0.00000000000E+00 -0.82108614088E+03  0.82108614088E+03  0.00000000000E+00 0. -1.
        -24    2    1    2    0    0 -0.77404914623E+00 -0.10634124969E+04  0.30710236078E+03  0.11097248764E+04  0.79565718519E+02 0.  0.
        254    2    1    2    0    0  0.77404914623E+00  0.10634124969E+04  0.72296107272E+03  0.15625108389E+04  0.88764895729E+03 0.  0.
         23    2    4    4    0    0 -0.11697774407E+03  0.12438308422E+03  0.56672265621E+03  0.59890829680E+03  0.91441974304E+02 0.  0.
         23    2    4    4    0    0  0.11775179322E+03  0.93902941264E+03  0.15623841650E+03  0.96360254210E+03  0.92074392393E+02 0.  0.
          3    1    3    3  502    0  0.10463686082E+02 -0.63978341063E+03  0.22349899952E+03  0.67777880170E+03  0.00000000000E+00 0. -1.
         -4    1    3    3    0  502 -0.11237735228E+02 -0.42362908624E+03  0.83603361255E+02  0.43194607466E+03  0.00000000000E+00 0.  1.
         13    1    5    5    0    0 -0.93511524798E+02  0.97564379773E+02  0.53292974433E+03  0.54979753170E+03  0.00000000000E+00 0.  1.
        -13    1    5    5    0    0 -0.23466219275E+02  0.26818704451E+02  0.33792911881E+02  0.49110765102E+02  0.00000000000E+00 0. -1.
          4    1    6    6  503    0 -0.11176596012E+02  0.82947739521E+02 -0.10011377473E+01  0.83703321719E+02  0.00000000000E+00 0. -1.
         -4    1    6    6    0  503  0.12892838923E+03  0.85608167312E+03  0.15723955425E+03  0.87989922038E+03  0.00000000000E+00 0.  1.
<mgrwt>
<rscale>  0 0.24657277E+04</rscale>
<asrwt>0</asrwt>
<pdfrwt beam="1">  1        1 0.12632095E+00 0.24657277E+04</pdfrwt>
<pdfrwt beam="2">  1       -2 0.28479224E+00 0.24657277E+04</pdfrwt>
<totfact> 0.65205102E-01</totfact>
</mgrwt>
</event>
<event>
12    5  0.5041746E-008  0.1421090E+04  0.7818608E-02  0.8938692E-01
         -2   -1    0    0    0  501 -0.00000000000E+00  0.00000000000E+00  0.62248479909E+03  0.62248479909E+03  0.00000000000E+00 0.  1.
          1   -1    0    0  501    0  0.00000000000E+00 -0.00000000000E+00 -0.81106298369E+03  0.81106298369E+03  0.00000000000E+00 0. -1.
        -24    2    1    2    0    0  0.14445874283E+03 -0.16801032254E+03  0.29562365164E+03  0.37755844231E+03  0.77853947164E+02 0.  0.
        254    2    1    2    0    0 -0.14445874283E+03  0.16801032254E+03 -0.48420183625E+03  0.10559893405E+04  0.91190255626E+03 0.  0.
         23    2    4    4    0    0  0.15959413885E+03  0.40405087426E+03 -0.18825643311E+02  0.44451391346E+03  0.92254085354E+02 0.  0.
         23    2    4    4    0    0 -0.30405288168E+03 -0.23604055172E+03 -0.46537619293E+03  0.61147542702E+03  0.95728261171E+02 0.  0.
          1    1    3    3  502    0  0.29474019207E+02 -0.83240279720E+02  0.81571035597E+02  0.12021437445E+03  0.00000000000E+00 0. -1.
         -2    1    3    3    0  502  0.11498472362E+03 -0.84770042816E+02  0.21405261605E+03  0.25734406786E+03  0.00000000000E+00 0.  1.
         13    1    5    5    0    0  0.11873698953E+02  0.40944290536E+02 -0.30364314764E+02  0.52339385413E+02  0.00000000000E+00 0.  1.
        -13    1    5    5    0    0  0.14772043990E+03  0.36310658372E+03  0.11538671453E+02  0.39217452804E+03  0.00000000000E+00 0. -1.
          1    1    6    6  503    0 -0.30046597830E+03 -0.20338601542E+03 -0.43761689345E+03  0.56846655206E+03  0.00000000000E+00 0. -1.
         -1    1    6    6    0  503 -0.35869033785E+01 -0.32654536308E+02 -0.27759299486E+02  0.43008874959E+02  0.00000000000E+00 0.  1.
<mgrwt>
<rscale>  0 0.14210903E+04</rscale>
<asrwt>0</asrwt>
<pdfrwt beam="1">  1        1 0.12477892E+00 0.14210903E+04</pdfrwt>
<pdfrwt beam="2">  1       -2 0.95766893E-01 0.14210903E+04</pdfrwt>
<totfact> 0.16868920E+01</totfact>
</mgrwt>
</event>
<event>
12    5  0.5041746E-008  0.1422769E+04  0.7818608E-02  0.8937500E-01
         -2   -1    0    0    0  501 -0.00000000000E+00  0.00000000000E+00  0.10883334265E+04  0.10883334265E+04  0.00000000000E+00 0.  1.
          1   -1    0    0  501    0  0.00000000000E+00 -0.00000000000E+00 -0.46499337292E+03  0.46499337292E+03  0.00000000000E+00 0. -1.
        -24    2    1    2    0    0 -0.21169698009E+03 -0.27565645771E+03 -0.70181400050E+02  0.36424828436E+03  0.83362399747E+02 0.  0.
        254    2    1    2    0    0  0.21169698009E+03  0.27565645771E+03  0.69352145364E+03  0.11890785151E+04  0.90118456171E+03 0.  0.
         23    2    4    4    0    0  0.36553341422E+03  0.22243923222E+03  0.84222923990E+03  0.94936406852E+03  0.94064622018E+02 0.  0.
         23    2    4    4    0    0 -0.15383643412E+03  0.53217225491E+02 -0.14870778626E+03  0.23971444654E+03  0.94081287359E+02 0.  0.
          1    1    3    3  502    0 -0.17131663611E+03 -0.21971435772E+03 -0.20764875442E+02  0.27938319356E+03  0.00000000000E+00 0. -1.
         -2    1    3    3    0  502 -0.40380343987E+02 -0.55942099991E+02 -0.49416524609E+02  0.84865090799E+02  0.00000000000E+00 0.  1.
         13    1    5    5    0    0  0.20842653576E+03  0.17993686334E+03  0.53155803263E+03  0.59864249570E+03  0.00000000000E+00 0. -1.
        -13    1    5    5    0    0  0.15710687846E+03  0.42502368878E+02  0.31067120727E+03  0.35072157283E+03  0.00000000000E+00 0.  1.
          2    1    6    6  503    0 -0.10363272266E+03  0.28557062494E+02 -0.35094437948E+02  0.11307902812E+03  0.00000000000E+00 0.  1.
         -2    1    6    6    0  503 -0.50203711460E+02  0.24660162997E+02 -0.11361334831E+03  0.12663541842E+03  0.00000000000E+00 0. -1.
<mgrwt>
<rscale>  0 0.14227689E+04</rscale>
<asrwt>0</asrwt>
<pdfrwt beam="1">  1        1 0.71537442E-01 0.14227689E+04</pdfrwt>
<pdfrwt beam="2">  1       -2 0.16743591E+00 0.14227689E+04</pdfrwt>
<totfact> 0.92556187E+00</totfact>
</mgrwt>
</event>
<event>
12    5  0.5041746E-008  0.1362868E+04  0.7818608E-02  0.8981144E-01
         -2   -1    0    0    0  501 -0.00000000000E+00  0.00000000000E+00  0.84057684048E+03  0.84057684048E+03  0.00000000000E+00 0.  1.
          1   -1    0    0  501    0  0.00000000000E+00 -0.00000000000E+00 -0.55242076735E+03  0.55242076735E+03  0.00000000000E+00 0. -1.
        -24    2    1    2    0    0 -0.23715805881E+03 -0.25603350383E+03 -0.70065477457E+02  0.36453361382E+03  0.78603336663E+02 0.  0.
        254    2    1    2    0    0  0.23715805881E+03  0.25603350383E+03  0.35822155058E+03  0.10284639940E+04  0.89867591919E+03 0.  0.
         23    2    4    4    0    0  0.53787254215E+03  0.18785727853E+03  0.42541838156E+02  0.57848356632E+03  0.90753511284E+02 0.  0.
         23    2    4    4    0    0 -0.30071448334E+03  0.68176225298E+02  0.31567971243E+03  0.44998042769E+03  0.88042638980E+02 0.  0.
          3    1    3    3  502    0 -0.12647042011E+02 -0.47919318524E+02 -0.23611352942E+02  0.54897219849E+02  0.00000000000E+00 0. -1.
         -4    1    3    3    0  502 -0.22451101680E+03 -0.20811418530E+03 -0.46454124516E+02  0.30963639397E+03  0.00000000000E+00 0.  1.
         13    1    5    5    0    0  0.33498721040E+03  0.10677112177E+03  0.69319767698E+02  0.35835978258E+03  0.00000000000E+00 0. -1.
        -13    1    5    5    0    0  0.20288533175E+03  0.81086156759E+02 -0.26777929542E+02  0.22012378374E+03  0.00000000000E+00 0.  1.
          2    1    6    6  503    0 -0.21531895944E+02  0.14062940634E+02  0.85295966660E+00  0.25731622227E+02  0.00000000000E+00 0. -1.
         -2    1    6    6    0  503 -0.27918258740E+03  0.54113284664E+02  0.31482675276E+03  0.42424880546E+03  0.00000000000E+00 0.  1.
<mgrwt>
<rscale>  0 0.13628677E+04</rscale>
<asrwt>0</asrwt>
<pdfrwt beam="1">  1        1 0.84987811E-01 0.13628677E+04</pdfrwt>
<pdfrwt beam="2">  1       -2 0.12931951E+00 0.13628677E+04</pdfrwt>
<totfact> 0.14507443E+01</totfact>
</mgrwt>
</event>
<event>
12    5  0.5041746E-008  0.1666223E+04  0.7818608E-02  0.8780866E-01
         -2   -1    0    0    0  501 -0.00000000000E+00  0.00000000000E+00  0.59449358150E+03  0.59449358150E+03  0.00000000000E+00 0.  1.
          1   -1    0    0  501    0  0.00000000000E+00 -0.00000000000E+00 -0.11675062248E+04  0.11675062248E+04  0.00000000000E+00 0. -1.
        -24    2    1    2    0    0 -0.51731406417E+02 -0.17772903883E+03 -0.79119704802E+03  0.81725593962E+03  0.87468579520E+02 0.  0.
        254    2    1    2    0    0  0.51731406417E+02  0.17772903883E+03  0.21818440467E+03  0.94474386671E+03  0.90037369442E+03 0.  0.
         23    2    4    4    0    0  0.18230103779E+03  0.23763710272E+03 -0.27896711588E+03  0.41904396798E+03  0.89833926699E+02 0.  0.
         23    2    4    4    0    0 -0.13056963137E+03 -0.59908063893E+02  0.49715152055E+03  0.52569989874E+03  0.92538340118E+02 0.  0.
          3    1    3    3  502    0 -0.20291136498E+02 -0.20848402999E+02 -0.28239664218E+03  0.28389126377E+03  0.00000000000E+00 0. -1.
         -2    1    3    3    0  502 -0.31440269919E+02 -0.15688063583E+03 -0.50880040584E+03  0.53336467586E+03  0.00000000000E+00 0.  1.
         13    1    5    5    0    0  0.11161304404E+03  0.19174533772E+03 -0.23787376324E+03  0.32528091456E+03  0.00000000000E+00 0. -1.
        -13    1    5    5    0    0  0.70687993748E+02  0.45891765004E+02 -0.41093352636E+02  0.93763053417E+02  0.00000000000E+00 0.  1.
          1    1    6    6  503    0 -0.10697224990E+02 -0.49319824752E+02  0.15416016338E+03  0.16221045500E+03  0.00000000000E+00 0. -1.
         -1    1    6    6    0  503 -0.11987240638E+03 -0.10588239141E+02  0.34299135717E+03  0.36348944374E+03  0.00000000000E+00 0.  1.
<mgrwt>
<rscale>  0 0.16662232E+04</rscale>
<asrwt>0</asrwt>
<pdfrwt beam="1">  1        1 0.17961634E+00 0.16662232E+04</pdfrwt>
<pdfrwt beam="2">  1       -2 0.91460552E-01 0.16662232E+04</pdfrwt>
<totfact> 0.96211467E+00</totfact>
</mgrwt>
</event>
<event>
12    5  0.5041746E-008  0.1336810E+04  0.7818608E-02  0.9000873E-01
          1   -1    0    0  501    0  0.00000000000E+00  0.00000000000E+00  0.21934734573E+04  0.21934734573E+04  0.00000000000E+00 0. -1.
         -2   -1    0    0    0  501 -0.00000000000E+00 -0.00000000000E+00 -0.20367940336E+03  0.20367940336E+03  0.00000000000E+00 0.  1.
        -24    2    1    2    0    0 -0.21635364940E+03  0.14774137673E+03  0.97778110377E+03  0.10153207666E+04  0.78638134733E+02 0.  0.
        254    2    1    2    0    0  0.21635364940E+03 -0.14774137673E+03  0.10120129502E+04  0.13818320940E+04  0.90368872340E+03 0.  0.
         23    2    4    4    0    0  0.12150063237E+03  0.37169778911E+03  0.37534708016E+03  0.54968045269E+03  0.91331918778E+02 0.  0.
         23    2    4    4    0    0  0.94853017035E+02 -0.51943916583E+03  0.63666587001E+03  0.83215164136E+03  0.91207358952E+02 0.  0.
          3    1    3    3  502    0 -0.63933307607E+02  0.63608893798E+02  0.21940191355E+03  0.23721458400E+03  0.00000000000E+00 0. -1.
         -4    1    3    3    0  502 -0.15242034179E+03  0.84132482927E+02  0.75837919022E+03  0.77810618262E+03  0.00000000000E+00 0.  1.
         13    1    5    5    0    0  0.12708781988E+03  0.36354537123E+03  0.37780788401E+03  0.53949545700E+03  0.00000000000E+00 0.  1.
        -13    1    5    5    0    0 -0.55871875137E+01  0.81524178797E+01 -0.24608038474E+01  0.10184995688E+02  0.00000000000E+00 0. -1.
          2    1    6    6  503    0  0.23756212045E+02 -0.29088432318E+03  0.40360789441E+03  0.49807366876E+03  0.00000000000E+00 0. -1.
         -2    1    6    6    0  503  0.71096804990E+02 -0.22855484265E+03  0.23305797560E+03  0.33407797260E+03  0.00000000000E+00 0.  1.
<mgrwt>
<rscale>  0 0.13368102E+04</rscale>
<asrwt>0</asrwt>
<pdfrwt beam="1">  1        1 0.33745744E+00 0.13368102E+04</pdfrwt>
<pdfrwt beam="2">  1       -2 0.31335294E-01 0.13368102E+04</pdfrwt>
<totfact> 0.17930571E+01</totfact>
</mgrwt>
</event>
<event>
12    5  0.5041746E-008  0.1526431E+04  0.7818608E-02  0.8867065E-01
          1   -1    0    0  501    0  0.00000000000E+00  0.00000000000E+00  0.43451798055E+03  0.43451798055E+03  0.00000000000E+00 0. -1.
         -2   -1    0    0    0  501 -0.00000000000E+00 -0.00000000000E+00 -0.13405605466E+04  0.13405605466E+04  0.00000000000E+00 0.  1.
        -24    2    1    2    0    0 -0.32571172529E+03  0.30262986576E+03 -0.55478482154E+03  0.71549648577E+03  0.80473966575E+02 0.  0.
        254    2    1    2    0    0  0.32571172529E+03 -0.30262986576E+03 -0.35125774451E+03  0.10595820414E+04  0.89535419567E+03 0.  0.
         23    2    4    4    0    0  0.58387753912E+03 -0.69233575486E+02 -0.36878860837E+03  0.70000914848E+03  0.91112576628E+02 0.  0.
         23    2    4    4    0    0 -0.25816581384E+03 -0.23339629028E+03  0.17530863862E+02  0.35957289290E+03  0.88667459502E+02 0.  0.
          3    1    3    3  502    0 -0.13356909999E+03  0.10753163976E+03 -0.15645893710E+03  0.23212745857E+03  0.00000000000E+00 0. -1.
         -4    1    3    3    0  502 -0.19214262530E+03  0.19509822600E+03 -0.39832588444E+03  0.48336902720E+03  0.00000000000E+00 0.  1.
         13    1    5    5    0    0  0.57935024167E+03 -0.73962887903E+02 -0.37225882888E+03  0.69259934088E+03  0.00000000000E+00 0.  1.
        -13    1    5    5    0    0  0.45272974545E+01  0.47293124175E+01  0.34702205125E+01  0.74098075946E+01  0.00000000000E+00 0. -1.
          3    1    6    6  503    0 -0.73559375676E+01 -0.10398421526E+02  0.20284784002E+02  0.23952232667E+02  0.00000000000E+00 0. -1.
         -3    1    6    6    0  503 -0.25080987627E+03 -0.22299786875E+03 -0.27539201403E+01  0.33562066024E+03  0.00000000000E+00 0.  1.
<mgrwt>
<rscale>  0 0.15264307E+04</rscale>
<asrwt>0</asrwt>
<pdfrwt beam="1">  1        1 0.66848922E-01 0.15264307E+04</pdfrwt>
<pdfrwt beam="2">  1       -2 0.20624008E+00 0.15264307E+04</pdfrwt>
<totfact> 0.54820252E+00</totfact>
</mgrwt>
</event>
<event>
12    5  0.5041746E-008  0.1723194E+04  0.7818608E-02  0.8748246E-01
          1   -1    0    0  501    0  0.00000000000E+00  0.00000000000E+00  0.10212324249E+04  0.10212324249E+04  0.00000000000E+00 0. -1.
         -2   -1    0    0    0  501 -0.00000000000E+00 -0.00000000000E+00 -0.72691482472E+03  0.72691482472E+03  0.00000000000E+00 0.  1.
        -24    2    1    2    0    0 -0.86939903888E+02  0.45075244513E+03  0.53221518601E+03  0.70729891913E+03  0.79261864163E+02 0.  0.
        254    2    1    2    0    0  0.86939903888E+02 -0.45075244513E+03 -0.23789758579E+03  0.10408483305E+04  0.90334582090E+03 0.  0.
         23    2    4    4    0    0  0.18449229624E+02  0.25207288259E+03 -0.18641033213E+03  0.32720930833E+03  0.91847739873E+02 0.  0.
         23    2    4    4    0    0  0.68490674264E+02 -0.70282532772E+03 -0.51487253666E+02  0.71363902219E+03  0.89304551723E+02 0.  0.
          3    1    3    3  502    0 -0.89607083840E+02  0.43237699400E+03  0.48162041137E+03  0.65340455696E+03  0.00000000000E+00 0. -1.
         -4    1    3    3    0  502  0.26671799523E+01  0.18375451137E+02  0.50594774634E+02  0.53894362170E+02  0.00000000000E+00 0.  1.
         13    1    5    5    0    0  0.53030143696E+02  0.12836474505E+03 -0.79102946637E+02  0.15983422687E+03  0.00000000000E+00 0. -1.
        -13    1    5    5    0    0 -0.34580914072E+02  0.12370813754E+03 -0.10730738549E+03  0.16737508146E+03  0.00000000000E+00 0.  1.
          1    1    6    6  503    0  0.24832078612E+02 -0.50386827561E+03 -0.69090318433E+02  0.50918890737E+03  0.00000000000E+00 0. -1.
         -1    1    6    6    0  503  0.43658595652E+02 -0.19895705212E+03  0.17603064767E+02  0.20445011482E+03  0.00000000000E+00 0.  1.
<mgrwt>
<rscale>  0 0.17231935E+04</rscale>
<asrwt>0</asrwt>
<pdfrwt beam="1">  1        1 0.15711268E+00 0.17231935E+04</pdfrwt>
<pdfrwt beam="2">  1       -2 0.11183305E+00 0.17231935E+04</pdfrwt>
<totfact> 0.76547438E+00</totfact>
</mgrwt>
</event>
<event>
12    5  0.5041746E-008  0.1685423E+04  0.7818608E-02  0.8769722E-01
         -2   -1    0    0    0  501 -0.00000000000E+00  0.00000000000E+00  0.10024844249E+04  0.10024844249E+04  0.00000000000E+00 0.  1.
          1   -1    0    0  501    0  0.00000000000E+00 -0.00000000000E+00 -0.70840311302E+03  0.70840311302E+03  0.00000000000E+00 0. -1.
        -24    2    1    2    0    0 -0.53215547801E+02  0.14961630135E+03  0.67986238478E+03  0.70279994838E+03  0.80610005846E+02 0.  0.
        254    2    1    2    0    0  0.53215547801E+02 -0.14961630135E+03 -0.38578107289E+03  0.10080875895E+04  0.91771271095E+03 0.  0.
         23    2    4    4    0    0 -0.30580030962E+03  0.71299693475E+02  0.11585334794E+03  0.34680097011E+03  0.90837431637E+02 0.  0.
         23    2    4    4    0    0  0.35901585742E+03 -0.22091599482E+03 -0.50163442083E+03  0.66128661943E+03  0.89256026292E+02 0.  0.
          3    1    3    3  502    0 -0.89702073172E+01  0.11285381533E+03  0.34691932677E+03  0.36492392021E+03  0.00000000000E+00 0. -1.
         -4    1    3    3    0  502 -0.44245340483E+02  0.36762486013E+02  0.33294305802E+03  0.33787602817E+03  0.00000000000E+00 0.  1.
         13    1    5    5    0    0 -0.15068630065E+03 -0.11206044810E+02  0.49662796747E+02  0.15905448760E+03  0.00000000000E+00 0. -1.
        -13    1    5    5    0    0 -0.15511400897E+03  0.82505738285E+02  0.66190551195E+02  0.18774648252E+03  0.00000000000E+00 0.  1.
          3    1    6    6  503    0  0.65993146712E+02 -0.13417696569E+02 -0.47740277500E+02  0.82548555953E+02  0.00000000000E+00 0. -1.
         -3    1    6    6    0  503  0.29302271071E+03 -0.20749829825E+03 -0.45389414333E+03  0.57873806348E+03  0.00000000000E+00 0.  1.
<mgrwt>
<rscale>  0 0.16854235E+04</rscale>
<asrwt>0</asrwt>
<pdfrwt beam="1">  1        1 0.10898509E+00 0.16854235E+04</pdfrwt>
<pdfrwt beam="2">  1       -2 0.15422837E+00 0.16854235E+04</pdfrwt>
<totfact> 0.62063439E+00</totfact>
</mgrwt>
</event>
<event>
12    5  0.5041746E-008  0.1351331E+04  0.7818608E-02  0.8989821E-01
          3   -1    0    0  501    0  0.00000000000E+00  0.00000000000E+00  0.92597759020E+03  0.92597759020E+03  0.00000000000E+00 0. -1.
         -4   -1    0    0    0  501 -0.00000000000E+00 -0.00000000000E+00 -0.49301822761E+03  0.49301822761E+03  0.00000000000E+00 0.  1.
        -24    2    1    2    0    0  0.21314889846E+03 -0.23742294690E+03  0.30677702456E+03  0.44883373236E+03  0.74414164476E+02 0.  0.
        254    2    1    2    0    0 -0.21314889846E+03  0.23742294690E+03  0.12618233803E+03  0.97016208546E+03  0.90746370782E+03 0.  0.
         23    2    4    4    0    0 -0.26552861486E+03 -0.62657970534E+02 -0.31568033026E+03  0.42729823571E+03  0.92185924897E+02 0.  0.
         23    2    4    4    0    0  0.52379716400E+02  0.30008091743E+03  0.44186266829E+03  0.54286384975E+03  0.81647719146E+02 0.  0.
          3    1    3    3  502    0  0.21052488636E+03 -0.20320405741E+03  0.26495130379E+03  0.39473004713E+03  0.00000000000E+00 0. -1.
         -4    1    3    3    0  502  0.26240120961E+01 -0.34218889486E+02  0.41825720772E+02  0.54103685228E+02  0.00000000000E+00 0.  1.
         13    1    5    5    0    0 -0.23589811759E+03 -0.20969213542E+02 -0.26001377502E+03  0.35170270542E+03  0.00000000000E+00 0.  1.
        -13    1    5    5    0    0 -0.29630497268E+02 -0.41688756991E+02 -0.55666555242E+02  0.75595530293E+02  0.00000000000E+00 0. -1.
          2    1    6    6  503    0 -0.12375176846E+02  0.24604785335E+02  0.16937151026E+02  0.32332762768E+02  0.00000000000E+00 0. -1.
         -2    1    6    6    0  503  0.64754893246E+02  0.27547613210E+03  0.42492551726E+03  0.51053108698E+03  0.00000000000E+00 0.  1.
<mgrwt>
<rscale>  0 0.13513309E+04</rscale>
<asrwt>0</asrwt>
<pdfrwt beam="1">  1        3 0.14245809E+00 0.13513309E+04</pdfrwt>
<pdfrwt beam="2">  1       -4 0.75848958E-01 0.13513309E+04</pdfrwt>
<totfact> 0.12933809E+00</totfact>
</mgrwt>
</event>
<event>
12    5  0.5041746E-008  0.1344685E+04  0.7818608E-02  0.8994861E-01
          1   -1    0    0  501    0  0.00000000000E+00  0.00000000000E+00  0.98035865971E+03  0.98035865971E+03  0.00000000000E+00 0. -1.
         -2   -1    0    0    0  501 -0.00000000000E+00 -0.00000000000E+00 -0.46110123864E+03  0.46110123864E+03  0.00000000000E+00 0.  1.
        -24    2    1    2    0    0  0.35789043595E+03 -0.43305835964E+02  0.46034470811E+02  0.37249392783E+03  0.81679827356E+02 0.  0.
        254    2    1    2    0    0 -0.35789043595E+03  0.43305835964E+02  0.47322295026E+03  0.10689659705E+04  0.88813699726E+03 0.  0.
         23    2    4    4    0    0 -0.60776255303E+03 -0.30989464259E+02  0.49786706963E+03  0.79145589408E+03  0.90527042904E+02 0.  0.
         23    2    4    4    0    0  0.24987211708E+03  0.74295300223E+02 -0.24644119372E+02  0.27751007643E+03  0.91916502174E+02 0.  0.
          3    1    3    3  502    0  0.18048271280E+02  0.14642730304E+01  0.22538180073E+02  0.28911135445E+02  0.00000000000E+00 0. -1.
         -4    1    3    3    0  502  0.33984216467E+03 -0.44770108994E+02  0.23496290738E+02  0.34358279239E+03  0.00000000000E+00 0.  1.
         13    1    5    5    0    0 -0.45231432414E+03 -0.58338337139E+02  0.39226531181E+03  0.60155106537E+03  0.00000000000E+00 0. -1.
        -13    1    5    5    0    0 -0.15544822889E+03  0.27348872881E+02  0.10560175782E+03  0.18990482871E+03  0.00000000000E+00 0.  1.
          1    1    6    6  503    0  0.52471504575E+02  0.54388036837E+02 -0.23369721027E+02  0.79104116228E+02  0.00000000000E+00 0. -1.
         -1    1    6    6    0  503  0.19740061251E+03  0.19907263386E+02 -0.12743983442E+01  0.19840596020E+03  0.00000000000E+00 0.  1.
<mgrwt>
<rscale>  0 0.13446852E+04</rscale>
<asrwt>0</asrwt>
<pdfrwt beam="1">  1        1 0.15082441E+00 0.13446852E+04</pdfrwt>
<pdfrwt beam="2">  1       -2 0.70938652E-01 0.13446852E+04</pdfrwt>
<totfact> 0.24301648E+01</totfact>
</mgrwt>
</event>
<event>
12    5  0.5041746E-008  0.2200511E+04  0.7818608E-02  0.8518215E-01
          1   -1    0    0  501    0  0.00000000000E+00  0.00000000000E+00  0.13960745606E+04  0.13960745606E+04  0.00000000000E+00 0. -1.
         -4   -1    0    0    0  501 -0.00000000000E+00 -0.00000000000E+00 -0.86711863844E+03  0.86711863844E+03  0.00000000000E+00 0.  1.
        -24    2    1    2    0    0  0.35231093830E+03  0.12564305898E+03 -0.64064953448E+03  0.74611556232E+03  0.79670764959E+02 0.  0.
        254    2    1    2    0    0 -0.35231093830E+03 -0.12564305898E+03  0.11696054566E+04  0.15170776367E+04  0.89086388191E+03 0.  0.
         23    2    4    4    0    0 -0.19679037791E+03  0.29472259805E+03  0.14232270338E+03  0.39246194483E+03  0.90458629218E+02 0.  0.
         23    2    4    4    0    0 -0.15552056038E+03 -0.42036565703E+03  0.10272827533E+04  0.11246156919E+04  0.92502264747E+02 0.  0.
          3    1    3    3  502    0  0.31415389514E+02  0.33943917034E+02 -0.53294933708E+02  0.70565332571E+02  0.00000000000E+00 0. -1.
         -4    1    3    3    0  502  0.32089554878E+03  0.91699141949E+02 -0.58735460077E+03  0.67555022975E+03  0.00000000000E+00 0.  1.
         13    1    5    5    0    0 -0.13791339322E+01  0.80000987091E+01  0.24838759094E+02  0.26131734406E+02  0.00000000000E+00 0.  1.
        -13    1    5    5    0    0 -0.19541124398E+03  0.28672249934E+03  0.11748394429E+03  0.36633021042E+03  0.00000000000E+00 0. -1.
          3    1    6    6  503    0 -0.15962074370E+03 -0.32500903826E+03  0.82339098352E+03  0.89949006027E+03  0.00000000000E+00 0. -1.
         -3    1    6    6    0  503  0.41001833183E+01 -0.95356618776E+02  0.20389176973E+03  0.22512563162E+03  0.00000000000E+00 0.  1.
<mgrwt>
<rscale>  0 0.22005111E+04</rscale>
<asrwt>0</asrwt>
<pdfrwt beam="1">  1        1 0.21478070E+00 0.22005111E+04</pdfrwt>
<pdfrwt beam="2">  1       -4 0.13340287E+00 0.22005111E+04</pdfrwt>
<totfact> 0.13922025E+00</totfact>
</mgrwt>
</event>
<event>
12    5  0.5041746E-008  0.1683678E+04  0.7818608E-02  0.8770728E-01
         -2   -1    0    0    0  501 -0.00000000000E+00  0.00000000000E+00  0.43493402818E+03  0.43493402818E+03  0.00000000000E+00 0.  1.
          1   -1    0    0  501    0  0.00000000000E+00 -0.00000000000E+00 -0.16294268447E+04  0.16294268447E+04  0.00000000000E+00 0. -1.
        -24    2    1    2    0    0 -0.24137904443E+03  0.67622896315E+02 -0.11018743032E+04  0.11327753720E+04  0.78843922661E+02 0.  0.
        254    2    1    2    0    0  0.24137904443E+03 -0.67622896315E+02 -0.92618513361E+02  0.93158550093E+03  0.89243299879E+03 0.  0.
         23    2    4    4    0    0 -0.29505717512E+03 -0.11487837423E+03  0.11298679781E+03  0.34810548239E+03  0.90308542963E+02 0.  0.
         23    2    4    4    0    0  0.53643621955E+03  0.47255477917E+02 -0.20560531117E+03  0.58348001855E+03  0.90435005526E+02 0.  0.
          3    1    3    3  502    0 -0.13789222269E+03  0.42059091979E+02 -0.45850765470E+03  0.48063759915E+03  0.00000000000E+00 0. -1.
         -4    1    3    3    0  502 -0.10348682174E+03  0.25563804336E+02 -0.64336664850E+03  0.65213777284E+03  0.00000000000E+00 0.  1.
         13    1    5    5    0    0 -0.11856215738E+02  0.13666895175E+02  0.38063203841E+01  0.18488968339E+02  0.00000000000E+00 0. -1.
        -13    1    5    5    0    0 -0.28320095938E+03 -0.12854526941E+03  0.10918047742E+03  0.32961651405E+03  0.00000000000E+00 0.  1.
          2    1    6    6  503    0  0.19569097836E+02 -0.15732585128E+02 -0.58070856137E+01  0.25771807625E+02  0.00000000000E+00 0. -1.
         -2    1    6    6    0  503  0.51686712171E+03  0.62988063045E+02 -0.19979822556E+03  0.55770821092E+03  0.00000000000E+00 0.  1.
<mgrwt>
<rscale>  0 0.16836783E+04</rscale>
<asrwt>0</asrwt>
<pdfrwt beam="1">  1        1 0.25068105E+00 0.16836783E+04</pdfrwt>
<pdfrwt beam="2">  1       -2 0.66912927E-01 0.16836783E+04</pdfrwt>
<totfact> 0.91349260E+00</totfact>
</mgrwt>
</event>
<event>
12    5  0.6142445E-008  0.1308279E+04  0.7818608E-02  0.9023026E-01
          1   -1    0    0  501    0  0.00000000000E+00  0.00000000000E+00  0.13760102450E+04  0.13760102450E+04  0.00000000000E+00 0. -1.
         -2   -1    0    0    0  501 -0.00000000000E+00 -0.00000000000E+00 -0.31097023768E+03  0.31097023768E+03  0.00000000000E+00 0.  1.
        -24    2    1    2    0    0 -0.12082407679E+03 -0.14456749121E+03  0.64223965744E+03  0.67340351736E+03  0.74177507096E+02 0.  0.
        254    2    1    2    0    0  0.12082407679E+03  0.14456749121E+03  0.42280034988E+03  0.10135769653E+04  0.90170943863E+03 0.  0.
         23    2    4    4    0    0  0.11214775419E+03 -0.25057583558E+03  0.52155377367E+03  0.59605859254E+03  0.88893974853E+02 0.  0.
         23    2    4    4    0    0  0.86763226046E+01  0.39514332679E+03 -0.98753423792E+02  0.41751837278E+03  0.91410205207E+02 0.  0.
          1    1    3    3  502    0 -0.12861411744E+03 -0.14302166670E+03  0.58994893790E+03  0.62051312451E+03  0.00000000000E+00 0. -1.
         -2    1    3    3    0  502  0.77900406461E+01 -0.15458245029E+01  0.52290719540E+02  0.52890392858E+02  0.00000000000E+00 0.  1.
         13    1    5    5    0    0  0.12150426556E+03 -0.19878809214E+03  0.38889243321E+03  0.45334017772E+03  0.00000000000E+00 0. -1.
        -13    1    5    5    0    0 -0.93565113783E+01 -0.51787743437E+02  0.13266134047E+03  0.14271841483E+03  0.00000000000E+00 0.  1.
          1    1    6    6  503    0 -0.97778262281E+01  0.38338067954E+03 -0.96888176548E+02  0.39555488884E+03  0.00000000000E+00 0. -1.
         -1    1    6    6    0  503  0.18454148833E+02  0.11762647252E+02 -0.18652472440E+01  0.21963483940E+02  0.00000000000E+00 0.  1.
<mgrwt>
<rscale>  0 0.13082786E+04</rscale>
<asrwt>0</asrwt>
<pdfrwt beam="1">  1        1 0.21169388E+00 0.13082786E+04</pdfrwt>
<pdfrwt beam="2">  1       -2 0.47841576E-01 0.13082786E+04</pdfrwt>
<totfact> 0.28482137E+01</totfact>
</mgrwt>
</event>
<event>
12    5  0.5041746E-008  0.2631367E+04  0.7818608E-02  0.8357624E-01
         -2   -1    0    0    0  501 -0.00000000000E+00  0.00000000000E+00  0.15100098202E+04  0.15100098202E+04  0.00000000000E+00 0.  1.
          1   -1    0    0  501    0  0.00000000000E+00 -0.00000000000E+00 -0.11463651239E+04  0.11463651239E+04  0.00000000000E+00 0. -1.
        -24    2    1    2    0    0 -0.77251848801E+03 -0.73349322796E+03  0.62714871361E+03  0.12388238650E+04  0.81067438897E+02 0.  0.
        254    2    1    2    0    0  0.77251848801E+03  0.73349322796E+03 -0.26350401730E+03  0.14175510792E+04  0.89734027282E+03 0.  0.
         23    2    4    4    0    0  0.43139207161E+03  0.89427123072E+03 -0.12333798149E+03  0.10048013779E+04  0.92700581265E+02 0.  0.
         23    2    4    4    0    0  0.34112641639E+03 -0.16077800276E+03 -0.14016603581E+03  0.41274970131E+03  0.92190022276E+02 0.  0.
          1    1    3    3  502    0 -0.73419778380E+03 -0.70133011518E+03  0.57629868778E+03  0.11674889694E+04  0.00000000000E+00 0. -1.
         -2    1    3    3    0  502 -0.38320704206E+02 -0.32163112785E+02  0.50850025834E+02  0.71334895543E+02  0.00000000000E+00 0.  1.
         13    1    5    5    0    0  0.25042924520E+03  0.55565612814E+03 -0.32974290212E+02  0.61037352777E+03  0.00000000000E+00 0. -1.
        -13    1    5    5    0    0  0.18096282642E+03  0.33861510259E+03 -0.90363691277E+02  0.39442785011E+03  0.00000000000E+00 0.  1.
          3    1    6    6  503    0  0.28865383611E+03 -0.10880603874E+03 -0.83270446866E+02  0.31952113934E+03  0.00000000000E+00 0. -1.
         -3    1    6    6    0  503  0.52472580289E+02 -0.51971964022E+02 -0.56895588944E+02  0.93228561974E+02  0.00000000000E+00 0.  1.
<mgrwt>
<rscale>  0 0.26313666E+04</rscale>
<asrwt>0</asrwt>
<pdfrwt beam="1">  1        1 0.17636387E+00 0.26313666E+04</pdfrwt>
<pdfrwt beam="2">  1       -2 0.23230920E+00 0.26313666E+04</pdfrwt>
<totfact> 0.74601636E-01</totfact>
</mgrwt>
</event>
<event>
12    5  0.5041746E-008  0.1439086E+04  0.7818608E-02  0.8926002E-01
          1   -1    0    0  501    0  0.00000000000E+00  0.00000000000E+00  0.42234917324E+03  0.42234917324E+03  0.00000000000E+00 0. -1.
         -2   -1    0    0    0  501 -0.00000000000E+00 -0.00000000000E+00 -0.12258630282E+04  0.12258630282E+04  0.00000000000E+00 0.  1.
        -24    2    1    2    0    0 -0.70338756056E+02  0.27390855844E+02 -0.74158371668E+03  0.74953515070E+03  0.78477599997E+02 0.  0.
        254    2    1    2    0    0  0.70338756056E+02 -0.27390855844E+02 -0.61930138320E+02  0.89867705077E+03  0.89335731931E+03 0.  0.
         23    2    4    4    0    0 -0.35157349985E+03  0.18643446186E+03  0.20407267986E+02  0.40983456520E+03  0.95844561013E+02 0.  0.
         23    2    4    4    0    0  0.42191225591E+03 -0.21382531771E+03 -0.82337406306E+02  0.48884248557E+03  0.91958191823E+02 0.  0.
          3    1    3    3  502    0 -0.12678995780E+01  0.36318063031E+02 -0.17857298536E+03  0.18223314839E+03  0.00000000000E+00 0. -1.
         -4    1    3    3    0  502 -0.69070856478E+02 -0.89272071869E+01 -0.56301073132E+03  0.56730200231E+03  0.00000000000E+00 0.  1.
         13    1    5    5    0    0 -0.13631187980E+03  0.46098682693E+02 -0.32399826159E+02  0.14749835882E+03  0.00000000000E+00 0.  1.
        -13    1    5    5    0    0 -0.21526162006E+03  0.14033577917E+03  0.52807094145E+02  0.26233620638E+03  0.00000000000E+00 0. -1.
          1    1    6    6  503    0  0.36596301472E+03 -0.21333868920E+03 -0.87851183134E+02  0.43262010452E+03  0.00000000000E+00 0. -1.
         -1    1    6    6    0  503  0.55949241185E+02 -0.48662850977E+00  0.55137768277E+01  0.56222381054E+02  0.00000000000E+00 0.  1.
<mgrwt>
<rscale>  0 0.14390861E+04</rscale>
<asrwt>0</asrwt>
<pdfrwt beam="1">  1        1 0.64976796E-01 0.14390861E+04</pdfrwt>
<pdfrwt beam="2">  1       -2 0.18859431E+00 0.14390861E+04</pdfrwt>
<totfact> 0.75003547E+00</totfact>
</mgrwt>
</event>
<event>
12    5  0.5041746E-008  0.1235007E+04  0.7818608E-02  0.9082755E-01
          1   -1    0    0  501    0  0.00000000000E+00  0.00000000000E+00  0.14514244336E+04  0.14514244336E+04  0.00000000000E+00 0. -1.
         -2   -1    0    0    0  501 -0.00000000000E+00 -0.00000000000E+00 -0.26271453524E+03  0.26271453524E+03  0.00000000000E+00 0.  1.
        -24    2    1    2    0    0  0.25988802199E+03  0.24872862182E+02  0.13110886894E+03  0.30255444054E+03  0.78671536976E+02 0.  0.
        254    2    1    2    0    0 -0.25988802199E+03 -0.24872862182E+02  0.10576010294E+04  0.14115845283E+04  0.89771404123E+03 0.  0.
         23    2    4    4    0    0  0.20450378850E+03  0.24969720574E+03  0.64182071956E+03  0.72402535730E+03  0.90046587273E+02 0.  0.
         23    2    4    4    0    0 -0.46439181049E+03 -0.27457006792E+03  0.41578030985E+03  0.68755917099E+03  0.93892873547E+02 0.  0.
          3    1    3    3  502    0  0.13538204108E+03  0.51691989048E+02  0.77887307765E+02  0.16451988174E+03  0.00000000000E+00 0. -1.
         -4    1    3    3    0  502  0.12450598091E+03 -0.26819126866E+02  0.53221561173E+02  0.13803455879E+03  0.00000000000E+00 0.  1.
         13    1    5    5    0    0  0.30298180515E+02  0.38816836816E+02  0.18622944890E+03  0.19262952578E+03  0.00000000000E+00 0. -1.
        -13    1    5    5    0    0  0.17420560799E+03  0.21088036892E+03  0.45559127066E+03  0.53139583152E+03  0.00000000000E+00 0.  1.
          1    1    6    6  503    0 -0.11820017646E+03 -0.26241417478E+02  0.80334590530E+02  0.14530499008E+03  0.00000000000E+00 0. -1.
         -1    1    6    6    0  503 -0.34619163403E+03 -0.24832865044E+03  0.33544571932E+03  0.54225418091E+03  0.00000000000E+00 0.  1.
<mgrwt>
<rscale>  0 0.12350066E+04</rscale>
<asrwt>0</asrwt>
<pdfrwt beam="1">  1        1 0.22329606E+00 0.12350066E+04</pdfrwt>
<pdfrwt beam="2">  1       -2 0.40417622E-01 0.12350066E+04</pdfrwt>
<totfact> 0.35489584E+01</totfact>
</mgrwt>
</event>
<event>
12    5  0.5041746E-008  0.1083338E+04  0.7818608E-02  0.9221585E-01
         -2   -1    0    0    0  501 -0.00000000000E+00  0.00000000000E+00  0.13061138221E+03  0.13061138221E+03  0.00000000000E+00 0.  1.
          1   -1    0    0  501    0  0.00000000000E+00 -0.00000000000E+00 -0.22464010357E+04  0.22464010357E+04  0.00000000000E+00 0. -1.
        -24    2    1    2    0    0 -0.16916248042E+03  0.25935798760E+01 -0.31167223972E+03  0.36347995901E+03  0.79720914127E+02 0.  0.
        254    2    1    2    0    0  0.16916248042E+03 -0.25935798760E+01 -0.18041174138E+04  0.20135324589E+04  0.87798100719E+03 0.  0.
         23    2    4    4    0    0  0.47337394299E+03 -0.18020061244E+03 -0.12346971857E+04  0.13376257786E+04  0.90611437428E+02 0.  0.
         23    2    4    4    0    0 -0.30421146257E+03  0.17760703256E+03 -0.56942022803E+03  0.67590668027E+03  0.92312363028E+02 0.  0.
          3    1    3    3  502    0 -0.43639030002E+02 -0.33550558042E+02 -0.11329393537E+03  0.12595840851E+03  0.00000000000E+00 0. -1.
         -4    1    3    3    0  502 -0.12552345042E+03  0.36144137918E+02 -0.19837830436E+03  0.23752155049E+03  0.00000000000E+00 0.  1.
         13    1    5    5    0    0  0.10769113089E+03 -0.80555636661E+02 -0.28696670652E+03  0.31691715151E+03  0.00000000000E+00 0.  1.
        -13    1    5    5    0    0  0.36568281209E+03 -0.99644975777E+02 -0.94773047921E+03  0.10207086271E+04  0.00000000000E+00 0. -1.
          1    1    6    6  503    0 -0.28318178895E+03  0.15973294108E+03 -0.55846630539E+03  0.64621293109E+03  0.00000000000E+00 0. -1.
         -1    1    6    6    0  503 -0.21029673613E+02  0.17874091483E+02 -0.10953922641E+02  0.29693749171E+02  0.00000000000E+00 0.  1.
<mgrwt>
<rscale>  0 0.10833384E+04</rscale>
<asrwt>0</asrwt>
<pdfrwt beam="1">  1        1 0.34560013E+00 0.10833384E+04</pdfrwt>
<pdfrwt beam="2">  1       -2 0.20094061E-01 0.10833384E+04</pdfrwt>
<totfact> 0.37820558E+01</totfact>
</mgrwt>
</event>
<event>
12    5  0.5041746E-008  0.1323914E+04  0.7818608E-02  0.9010813E-01
          1   -1    0    0  501    0  0.00000000000E+00  0.00000000000E+00  0.41634120565E+03  0.41634120565E+03  0.00000000000E+00 0. -1.
         -2   -1    0    0    0  501 -0.00000000000E+00 -0.00000000000E+00 -0.10524715499E+04  0.10524715499E+04  0.00000000000E+00 0.  1.
        -24    2    1    2    0    0  0.76897017891E+02 -0.30189888860E+03 -0.30712091801E+01  0.32160396347E+03  0.79772092209E+02 0.  0.
        254    2    1    2    0    0 -0.76897017891E+02  0.30189888860E+03 -0.63305913511E+03  0.11472087921E+04  0.90458170106E+03 0.  0.
         23    2    4    4    0    0 -0.35355909704E+03  0.17346138254E+03 -0.71231020269E+03  0.81903795514E+03  0.91348020075E+02 0.  0.
         23    2    4    4    0    0  0.27666207915E+03  0.12843750605E+03  0.79251067587E+02  0.32817083698E+03  0.91527414114E+02 0.  0.
          3    1    3    3  502    0  0.90051835590E+02 -0.25719358567E+03 -0.16808194935E+02  0.27302085821E+03  0.00000000000E+00 0. -1.
         -4    1    3    3    0  502 -0.13154817698E+02 -0.44705302930E+02  0.13736985755E+02  0.48583105256E+02  0.00000000000E+00 0.  1.
         13    1    5    5    0    0 -0.45200591761E+02  0.29650289015E+02 -0.46405025879E+02  0.71243663304E+02  0.00000000000E+00 0.  1.
        -13    1    5    5    0    0 -0.30835850528E+03  0.14381109353E+03 -0.66590517681E+03  0.74779429184E+03  0.00000000000E+00 0. -1.
          4    1    6    6  503    0  0.17369887927E+03  0.10801682935E+03  0.88345276806E+02  0.22280894061E+03  0.00000000000E+00 0. -1.
         -4    1    6    6    0  503  0.10296319988E+03  0.20420676704E+02 -0.90942092195E+01  0.10536189637E+03  0.00000000000E+00 0.  1.
<mgrwt>
<rscale>  0 0.13239143E+04</rscale>
<asrwt>0</asrwt>
<pdfrwt beam="1">  1        1 0.64052494E-01 0.13239143E+04</pdfrwt>
<pdfrwt beam="2">  1       -2 0.16191870E+00 0.13239143E+04</pdfrwt>
<totfact> 0.11870998E+01</totfact>
</mgrwt>
</event>
<event>
12    5  0.5041746E-008  0.1723312E+04  0.7818608E-02  0.8748179E-01
          1   -1    0    0  501    0  0.00000000000E+00  0.00000000000E+00  0.53233348565E+03  0.53233348565E+03  0.00000000000E+00 0. -1.
         -2   -1    0    0    0  501 -0.00000000000E+00 -0.00000000000E+00 -0.13947108532E+04  0.13947108532E+04  0.00000000000E+00 0.  1.
        -24    2    1    2    0    0  0.54211578745E+03 -0.28763144697E+03 -0.32980727329E+03  0.70131182930E+03  0.80274953147E+02 0.  0.
        254    2    1    2    0    0 -0.54211578745E+03  0.28763144697E+03 -0.53257009423E+03  0.12257325095E+04  0.91769706512E+03 0.  0.
         23    2    4    4    0    0  0.22236736422E+03 -0.36229384834E+02 -0.17265927003E+02  0.24389494078E+03  0.91797695546E+02 0.  0.
         23    2    4    4    0    0 -0.76448315167E+03  0.32386083181E+03 -0.51530416723E+03  0.98183756874E+03  0.95636285252E+02 0.  0.
          1    1    3    3  502    0  0.57774006104E+02 -0.35861009055E+02 -0.67036813045E+02  0.95487077947E+02  0.00000000000E+00 0. -1.
         -2    1    3    3    0  502  0.48434178135E+03 -0.25177043792E+03 -0.26277046025E+03  0.60582475135E+03  0.00000000000E+00 0.  1.
         13    1    5    5    0    0  0.21259891470E+03 -0.57167036491E+02 -0.14540167290E+02  0.22063042641E+03  0.00000000000E+00 0.  1.
        -13    1    5    5    0    0  0.97684495206E+01  0.20937651657E+02 -0.27257597131E+01  0.23264514372E+02  0.00000000000E+00 0. -1.
          1    1    6    6  503    0 -0.87491458318E+02  0.13210801967E+02 -0.32878765879E+02  0.94394352654E+02  0.00000000000E+00 0. -1.
         -1    1    6    6    0  503 -0.67699169336E+03  0.31065002984E+03 -0.48242540135E+03  0.88744321609E+03  0.00000000000E+00 0.  1.
<mgrwt>
<rscale>  0 0.17233123E+04</rscale>
<asrwt>0</asrwt>
<pdfrwt beam="1">  1        1 0.81897460E-01 0.17233123E+04</pdfrwt>
<pdfrwt beam="2">  1       -2 0.21457090E+00 0.17233123E+04</pdfrwt>
<totfact> 0.36101388E+00</totfact>
</mgrwt>
</event>
<event>
12    5  0.5041746E-008  0.1537443E+04  0.7818608E-02  0.8859929E-01
          1   -1    0    0  501    0  0.00000000000E+00  0.00000000000E+00  0.19424493871E+04  0.19424493871E+04  0.00000000000E+00 0. -1.
         -2   -1    0    0    0  501 -0.00000000000E+00 -0.00000000000E+00 -0.30422025671E+03  0.30422025671E+03  0.00000000000E+00 0.  1.
        -24    2    1    2    0    0 -0.46543076864E+03 -0.12291654348E+03  0.32915964578E+03  0.58848155642E+03  0.78931570209E+02 0.  0.
        254    2    1    2    0    0  0.46543076864E+03  0.12291654348E+03  0.13090694846E+04  0.16581880874E+04  0.89676671468E+03 0.  0.
         23    2    4    4    0    0  0.35688681632E+03  0.44609453929E+03  0.46155988929E+03  0.74005082889E+03  0.90934923379E+02 0.  0.
         23    2    4    4    0    0  0.10854395231E+03 -0.32317799581E+03  0.84750959529E+03  0.91813725847E+03  0.92074452060E+02 0.  0.
          1    1    3    3  502    0 -0.18211854553E+03 -0.37874686991E+02  0.83167823391E+02  0.20376099575E+03  0.00000000000E+00 0. -1.
         -2    1    3    3    0  502 -0.28331222310E+03 -0.85041856487E+02  0.24599182239E+03  0.38472056066E+03  0.00000000000E+00 0.  1.
         13    1    5    5    0    0  0.14570743143E+03  0.12878656274E+03  0.12190810786E+03  0.22951736552E+03  0.00000000000E+00 0. -1.
        -13    1    5    5    0    0  0.21117938490E+03  0.31730797655E+03  0.33965178143E+03  0.51053346337E+03  0.00000000000E+00 0.  1.
          3    1    6    6  503    0 -0.10005877904E+02 -0.54985074384E+02  0.19333846207E+03  0.20125415999E+03  0.00000000000E+00 0. -1.
         -3    1    6    6    0  503  0.11854983022E+03 -0.26819292143E+03  0.65417113322E+03  0.71688309848E+03  0.00000000000E+00 0.  1.
<mgrwt>
<rscale>  0 0.15374426E+04</rscale>
<asrwt>0</asrwt>
<pdfrwt beam="1">  1        1 0.29883836E+00 0.15374426E+04</pdfrwt>
<pdfrwt beam="2">  1       -2 0.46803117E-01 0.15374426E+04</pdfrwt>
<totfact> 0.11950914E+01</totfact>
</mgrwt>
</event>
<event>
12    5  0.5041746E-008  0.2855113E+04  0.7818608E-02  0.8286359E-01
          1   -1    0    0  501    0  0.00000000000E+00  0.00000000000E+00  0.90799497119E+03  0.90799497119E+03  0.00000000000E+00 0. -1.
         -2   -1    0    0    0  501 -0.00000000000E+00 -0.00000000000E+00 -0.22444150527E+04  0.22444150527E+04  0.00000000000E+00 0.  1.
        -24    2    1    2    0    0  0.99092452746E+02  0.67189962284E+03  0.60205280797E+03  0.91110378243E+03  0.79837969729E+02 0.  0.
        254    2    1    2    0    0 -0.99092452746E+02 -0.67189962284E+03 -0.19384728895E+04  0.22413062415E+04  0.89694375937E+03 0.  0.
         23    2    4    4    0    0  0.43647527328E+01 -0.72269787540E+03 -0.75312956076E+03  0.10476337769E+04  0.89560734309E+02 0.  0.
         23    2    4    4    0    0 -0.10345720548E+03  0.50798252568E+02 -0.11853433287E+04  0.11936724645E+04  0.80816395652E+02 0.  0.
          3    1    3    3  502    0  0.60037609349E+02  0.58157893509E+03  0.49962762809E+03  0.76906848787E+03  0.00000000000E+00 0. -1.
         -4    1    3    3    0  502  0.39054843397E+02  0.90320687741E+02  0.10242517988E+03  0.14203529456E+03  0.00000000000E+00 0.  1.
         13    1    5    5    0    0  0.42997894122E+02 -0.31137527250E+03 -0.34948549202E+03  0.47004626193E+03  0.00000000000E+00 0. -1.
        -13    1    5    5    0    0 -0.38633141389E+02 -0.41132260290E+03 -0.40364406874E+03  0.57758751502E+03  0.00000000000E+00 0.  1.
          1    1    6    6  503    0 -0.98339731537E+02  0.12891602849E+02 -0.72671773538E+03  0.73345454061E+03  0.00000000000E+00 0. -1.
         -1    1    6    6    0  503 -0.51174739422E+01  0.37906649719E+02 -0.45862559332E+03  0.46021792390E+03  0.00000000000E+00 0.  1.
<mgrwt>
<rscale>  0 0.28551130E+04</rscale>
<asrwt>0</asrwt>
<pdfrwt beam="1">  1        1 0.13969153E+00 0.28551130E+04</pdfrwt>
<pdfrwt beam="2">  1       -2 0.34529462E+00 0.28551130E+04</pdfrwt>
<totfact> 0.22565130E-01</totfact>
</mgrwt>
</event>
<event>
12    5  0.5041746E-008  0.1453536E+04  0.7818608E-02  0.8915953E-01
         -2   -1    0    0    0  501 -0.00000000000E+00  0.00000000000E+00  0.39707769769E+03  0.39707769769E+03  0.00000000000E+00 0.  1.
          1   -1    0    0  501    0  0.00000000000E+00 -0.00000000000E+00 -0.13301970573E+04  0.13301970573E+04  0.00000000000E+00 0. -1.
        -24    2    1    2    0    0  0.26146300850E+03 -0.10792686294E+03  0.90442196698E+02  0.30706987488E+03  0.78108927521E+02 0.  0.
        254    2    1    2    0    0 -0.26146300850E+03  0.10792686294E+03 -0.10235615563E+04  0.14202048801E+04  0.94302307998E+03 0.  0.
         23    2    4    4    0    0  0.12415474410E+03  0.28965556586E+03 -0.91339388008E+03  0.97052649358E+03  0.91206070269E+02 0.  0.
         23    2    4    4    0    0 -0.38561775260E+03 -0.18172870292E+03 -0.11016767624E+03  0.44967838653E+03  0.91363897917E+02 0.  0.
          3    1    3    3  502    0  0.34507347262E+02 -0.13466017867E+01 -0.11507424212E+02  0.36400428067E+02  0.00000000000E+00 0. -1.
         -4    1    3    3    0  502  0.22695566123E+03 -0.10658026115E+03  0.10194962091E+03  0.27066944681E+03  0.00000000000E+00 0.  1.
         13    1    5    5    0    0  0.41954820847E+02  0.20706074942E+03 -0.56931702938E+03  0.60725302872E+03  0.00000000000E+00 0. -1.
        -13    1    5    5    0    0  0.82199923255E+02  0.82594816444E+02 -0.34407685070E+03  0.36327346487E+03  0.00000000000E+00 0.  1.
          2    1    6    6  503    0 -0.24440760428E+03 -0.12092287579E+03 -0.24770876489E+02  0.27380835495E+03  0.00000000000E+00 0. -1.
         -2    1    6    6    0  503 -0.14121014832E+03 -0.60805827129E+02 -0.85396799746E+02  0.17587003158E+03  0.00000000000E+00 0.  1.
<mgrwt>
<rscale>  0 0.14535358E+04</rscale>
<asrwt>0</asrwt>
<pdfrwt beam="1">  1        1 0.20464570E+00 0.14535358E+04</pdfrwt>
<pdfrwt beam="2">  1       -2 0.61088877E-01 0.14535358E+04</pdfrwt>
<totfact> 0.18277752E+01</totfact>
</mgrwt>
</event>
<event>
12    5  0.5041746E-008  0.1893711E+04  0.7818608E-02  0.8657993E-01
         -2   -1    0    0    0  501 -0.00000000000E+00  0.00000000000E+00  0.12203057051E+04  0.12203057051E+04  0.00000000000E+00 0.  1.
          1   -1    0    0  501    0  0.00000000000E+00 -0.00000000000E+00 -0.73468059090E+03  0.73468059090E+03  0.00000000000E+00 0. -1.
        -24    2    1    2    0    0  0.47667161159E+03 -0.29265473120E+03  0.67837161992E+03  0.88300094626E+03  0.81486191503E+02 0.  0.
        254    2    1    2    0    0 -0.47667161159E+03  0.29265473120E+03 -0.19274650572E+03  0.10719853497E+04  0.89394561219E+03 0.  0.
         23    2    4    4    0    0 -0.34559573584E+03 -0.25579847464E+03  0.68207551048E+02  0.44398893231E+03  0.87204528159E+02 0.  0.
         23    2    4    4    0    0 -0.13107587575E+03  0.54845320584E+03 -0.26095405677E+03  0.62799641741E+03  0.91108047616E+02 0.  0.
          1    1    3    3  502    0  0.90960228232E+02 -0.66969218626E+02  0.91574551888E+02  0.14541161548E+03  0.00000000000E+00 0. -1.
         -2    1    3    3    0  502  0.38571138336E+03 -0.22568551257E+03  0.58679706803E+03  0.73758933078E+03  0.00000000000E+00 0.  1.
         13    1    5    5    0    0 -0.15640141906E+03 -0.79583762473E+02  0.59494820689E+02  0.18529601405E+03  0.00000000000E+00 0. -1.
        -13    1    5    5    0    0 -0.18919431677E+03 -0.17621471217E+03  0.87127303584E+01  0.25869291825E+03  0.00000000000E+00 0.  1.
          2    1    6    6  503    0 -0.93171709117E+02  0.50487164459E+03 -0.23719019375E+03  0.56554003651E+03  0.00000000000E+00 0. -1.
         -2    1    6    6    0  503 -0.37904166638E+02  0.43581561252E+02 -0.23763863021E+02  0.62456380901E+02  0.00000000000E+00 0.  1.
<mgrwt>
<rscale>  0 0.18937106E+04</rscale>
<asrwt>0</asrwt>
<pdfrwt beam="1">  1        1 0.11302778E+00 0.18937106E+04</pdfrwt>
<pdfrwt beam="2">  1       -2 0.18773934E+00 0.18937106E+04</pdfrwt>
<totfact> 0.33272763E+00</totfact>
</mgrwt>
</event>
<event>
12    5  0.5041746E-008  0.1461920E+04  0.7818608E-02  0.8910178E-01
          1   -1    0    0  501    0  0.00000000000E+00  0.00000000000E+00  0.26681229705E+03  0.26681229705E+03  0.00000000000E+00 0. -1.
         -2   -1    0    0    0  501 -0.00000000000E+00 -0.00000000000E+00 -0.20025399275E+04  0.20025399275E+04  0.00000000000E+00 0.  1.
        -24    2    1    2    0    0  0.52339236145E+02  0.18128607383E+03  0.93887895085E+02  0.22573024943E+03  0.80840413543E+02 0.  0.
        254    2    1    2    0    0 -0.52339236145E+02 -0.18128607383E+03 -0.18296155255E+04  0.20436219751E+04  0.89067040463E+03 0.  0.
         23    2    4    4    0    0 -0.45867633126E+03 -0.94410422204E+02 -0.10956869232E+04  0.11950340974E+04  0.90990964467E+02 0.  0.
         23    2    4    4    0    0  0.40633709511E+03 -0.86875651622E+02 -0.73392860229E+03  0.84858787767E+03  0.93770886472E+02 0.  0.
          3    1    3    3  502    0  0.45635478607E+02  0.18565243950E+03  0.99914918720E+02  0.21571373666E+03  0.00000000000E+00 0. -1.
         -4    1    3    3    0  502  0.67037575380E+01 -0.43663656714E+01 -0.60270236355E+01  0.10016512777E+02  0.00000000000E+00 0.  1.
         13    1    5    5    0    0 -0.39511516424E+02 -0.36372140226E+02 -0.13417101143E+03  0.14451973161E+03  0.00000000000E+00 0. -1.
        -13    1    5    5    0    0 -0.41916481484E+03 -0.58038281978E+02 -0.96151591180E+03  0.10505143658E+04  0.00000000000E+00 0.  1.
          4    1    6    6  503    0  0.34462910606E+03 -0.10733227560E+03 -0.62306815809E+03  0.72007177958E+03  0.00000000000E+00 0.  1.
         -4    1    6    6    0  503  0.61707989056E+02  0.20456623975E+02 -0.11086044420E+03  0.12851609808E+03  0.00000000000E+00 0. -1.
<mgrwt>
<rscale>  0 0.14619197E+04</rscale>
<asrwt>0</asrwt>
<pdfrwt beam="1">  1        1 0.41048046E-01 0.14619197E+04</pdfrwt>
<pdfrwt beam="2">  1       -2 0.30808306E+00 0.14619197E+04</pdfrwt>
<totfact> 0.24652982E+00</totfact>
</mgrwt>
</event>
<event>
12    5  0.5041746E-008  0.2360633E+04  0.7818608E-02  0.8454391E-01
         -2   -1    0    0    0  501 -0.00000000000E+00  0.00000000000E+00  0.71002308569E+03  0.71002308569E+03  0.00000000000E+00 0.  1.
          1   -1    0    0  501    0  0.00000000000E+00 -0.00000000000E+00 -0.19621149949E+04  0.19621149949E+04  0.00000000000E+00 0. -1.
        -24    2    1    2    0    0 -0.45169629840E+03  0.33294176025E+03  0.41009650875E+03  0.69956203061E+03  0.79549522097E+02 0.  0.
        254    2    1    2    0    0  0.45169629840E+03 -0.33294176025E+03 -0.16621884179E+04  0.19725760499E+04  0.90183489310E+03 0.  0.
         23    2    4    4    0    0  0.52245485825E+03 -0.55793026524E+03 -0.14510256295E+04  0.16430178038E+04  0.98928591504E+02 0.  0.
         23    2    4    4    0    0 -0.70758559853E+02  0.22498850498E+03 -0.21116278838E+03  0.32955824614E+03  0.91609569586E+02 0.  0.
          3    1    3    3  502    0 -0.21107103150E+03  0.11642760346E+03  0.20432670182E+03  0.31599963332E+03  0.00000000000E+00 0. -1.
         -4    1    3    3    0  502 -0.24062526690E+03  0.21651415679E+03  0.20576980694E+03  0.38356239728E+03  0.00000000000E+00 0.  1.
         13    1    5    5    0    0  0.35777601347E+03 -0.33483386027E+03 -0.99921816419E+03  0.11129035580E+04  0.00000000000E+00 0.  1.
        -13    1    5    5    0    0  0.16467884478E+03 -0.22309640497E+03 -0.45180746535E+03  0.53011424578E+03  0.00000000000E+00 0. -1.
          3    1    6    6  503    0 -0.42645078390E+02  0.14238598499E+03 -0.18727746100E+03  0.23909249012E+03  0.00000000000E+00 0. -1.
         -3    1    6    6    0  503 -0.28113481462E+02  0.82602519991E+02 -0.23885327373E+02  0.90465756021E+02  0.00000000000E+00 0.  1.
<mgrwt>
<rscale>  0 0.23606329E+04</rscale>
<asrwt>0</asrwt>
<pdfrwt beam="1">  1        1 0.30186384E+00 0.23606329E+04</pdfrwt>
<pdfrwt beam="2">  1       -2 0.10923432E+00 0.23606329E+04</pdfrwt>
<totfact> 0.16690084E+00</totfact>
</mgrwt>
</event>
<event>
12    5  0.5041746E-008  0.1226313E+04  0.7818608E-02  0.9090132E-01
         -2   -1    0    0    0  501 -0.00000000000E+00  0.00000000000E+00  0.55589766297E+03  0.55589766297E+03  0.00000000000E+00 0.  1.
          1   -1    0    0  501    0  0.00000000000E+00 -0.00000000000E+00 -0.67631298567E+03  0.67631298567E+03  0.00000000000E+00 0. -1.
        -24    2    1    2    0    0  0.23326397750E+03  0.25421636563E+02 -0.18055103110E+03  0.30640380161E+03  0.78906729814E+02 0.  0.
        254    2    1    2    0    0 -0.23326397750E+03 -0.25421636563E+02  0.60135708387E+02  0.92580684703E+03  0.89355675353E+03 0.  0.
         23    2    4    4    0    0 -0.39128919094E+03 -0.31573568211E+03  0.20919071361E+03  0.55194575266E+03  0.89928345410E+02 0.  0.
         23    2    4    4    0    0  0.15802521344E+03  0.29031404555E+03 -0.14905500523E+03  0.37386109437E+03  0.91107135697E+02 0.  0.
          3    1    3    3  502    0  0.21746446561E+03  0.41143244300E+02 -0.14549795327E+03  0.26486452152E+03  0.00000000000E+00 0. -1.
         -4    1    3    3    0  502  0.15799511891E+02 -0.15721607737E+02 -0.35053077825E+02  0.41539280095E+02  0.00000000000E+00 0.  1.
         13    1    5    5    0    0 -0.69752082444E+02 -0.19850673080E+02  0.43863941550E+02  0.84755221640E+02  0.00000000000E+00 0.  1.
        -13    1    5    5    0    0 -0.32153710849E+03 -0.29588500903E+03  0.16532677206E+03  0.46719053102E+03  0.00000000000E+00 0. -1.
          3    1    6    6  503    0  0.14391596202E+03  0.19730765979E+03 -0.13409001500E+03  0.27860769706E+03  0.00000000000E+00 0. -1.
         -3    1    6    6    0  503  0.14109251421E+02  0.93006385759E+02 -0.14964990227E+02  0.95253397316E+02  0.00000000000E+00 0.  1.
<mgrwt>
<rscale>  0 0.12263129E+04</rscale>
<asrwt>0</asrwt>
<pdfrwt beam="1">  1        1 0.10404815E+00 0.12263129E+04</pdfrwt>
<pdfrwt beam="2">  1       -2 0.85522718E-01 0.12263129E+04</pdfrwt>
<totfact> 0.29504842E+01</totfact>
</mgrwt>
</event>
<event>
12    5  0.5041746E-008  0.1687274E+04  0.7818608E-02  0.8768656E-01
         -2   -1    0    0    0  501 -0.00000000000E+00  0.00000000000E+00  0.51610964079E+03  0.51610964079E+03  0.00000000000E+00 0.  1.
          1   -1    0    0  501    0  0.00000000000E+00 -0.00000000000E+00 -0.13790156737E+04  0.13790156737E+04  0.00000000000E+00 0. -1.
        -24    2    1    2    0    0  0.18952569840E+03 -0.50118695816E+03 -0.62144796624E+03  0.82439758042E+03  0.79532625140E+02 0.  0.
        254    2    1    2    0    0 -0.18952569840E+03  0.50118695816E+03 -0.24145806663E+03  0.10707277340E+04  0.89501258378E+03 0.  0.
         23    2    4    4    0    0 -0.44340641060E+03  0.12392762717E+03  0.11873964524E+03  0.48348188000E+03  0.87683083924E+02 0.  0.
         23    2    4    4    0    0  0.25388071219E+03  0.37725933099E+03 -0.36019771187E+03  0.58724585404E+03  0.91297768946E+02 0.  0.
          3    1    3    3  502    0  0.16691111386E+03 -0.40853744302E+03 -0.55035801247E+03  0.70544744962E+03  0.00000000000E+00 0. -1.
         -4    1    3    3    0  502  0.22614584541E+02 -0.92649515138E+02 -0.71089953771E+02  0.11895013080E+03  0.00000000000E+00 0.  1.
         13    1    5    5    0    0 -0.36222564047E+03  0.13370355426E+03  0.10854775796E+03  0.40108187542E+03  0.00000000000E+00 0. -1.
        -13    1    5    5    0    0 -0.81180770127E+02 -0.97759270832E+01  0.10191887275E+02  0.82400004581E+02  0.00000000000E+00 0.  1.
          3    1    6    6  503    0  0.72763656031E+02  0.59128301802E+02 -0.10630093332E+03  0.14174129299E+03  0.00000000000E+00 0. -1.
         -3    1    6    6    0  503  0.18111705616E+03  0.31813102919E+03 -0.25389677854E+03  0.44550456105E+03  0.00000000000E+00 0.  1.
<mgrwt>
<rscale>  0 0.16872739E+04</rscale>
<asrwt>0</asrwt>
<pdfrwt beam="1">  1        1 0.21215625E+00 0.16872739E+04</pdfrwt>
<pdfrwt beam="2">  1       -2 0.79401485E-01 0.16872739E+04</pdfrwt>
<totfact> 0.93399039E+00</totfact>
</mgrwt>
</event>
<event>
12    5  0.5041746E-008  0.1330644E+04  0.7818608E-02  0.9005611E-01
         -2   -1    0    0    0  501 -0.00000000000E+00  0.00000000000E+00  0.53538922249E+03  0.53538922249E+03  0.00000000000E+00 0.  1.
          1   -1    0    0  501    0  0.00000000000E+00 -0.00000000000E+00 -0.82678741590E+03  0.82678741590E+03  0.00000000000E+00 0. -1.
        -24    2    1    2    0    0 -0.24366697678E+03  0.80186424461E+02  0.17339876605E+03  0.32062040117E+03  0.83227707758E+02 0.  0.
        254    2    1    2    0    0  0.24366697678E+03 -0.80186424461E+02 -0.46479695946E+03  0.10415562372E+04  0.89610251842E+03 0.  0.
         23    2    4    4    0    0  0.42919741132E+03 -0.25488771198E+03 -0.43808766680E+01  0.50691274005E+03  0.88108855033E+02 0.  0.
         23    2    4    4    0    0 -0.18553043455E+03  0.17470128752E+03 -0.46041608279E+03  0.53464349717E+03  0.94438433757E+02 0.  0.
          3    1    3    3  502    0 -0.31141373377E+02  0.31165369198E+02  0.35863871442E+01  0.44203252661E+02  0.00000000000E+00 0. -1.
         -4    1    3    3    0  502 -0.21252560340E+03  0.49021055263E+02  0.16981237891E+03  0.27641714851E+03  0.00000000000E+00 0.  1.
         13    1    5    5    0    0  0.10497534526E+03 -0.10907188763E+03  0.81475665387E-01  0.15138198843E+03  0.00000000000E+00 0. -1.
        -13    1    5    5    0    0  0.32422206607E+03 -0.14581582435E+03 -0.44623523334E+01  0.35553075162E+03  0.00000000000E+00 0.  1.
          2    1    6    6  503    0 -0.31339552115E+02  0.65032328122E+02 -0.68854724143E+02  0.99761436761E+02  0.00000000000E+00 0. -1.
         -2    1    6    6    0  503 -0.15419088243E+03  0.10966895939E+03 -0.39156135865E+03  0.43488206041E+03  0.00000000000E+00 0.  1.
<mgrwt>
<rscale>  0 0.13306436E+04</rscale>
<asrwt>0</asrwt>
<pdfrwt beam="1">  1        1 0.12719806E+00 0.13306436E+04</pdfrwt>
<pdfrwt beam="2">  1       -2 0.82367573E-01 0.13306436E+04</pdfrwt>
<totfact> 0.23302028E+01</totfact>
</mgrwt>
</event>
<event>
12    5  0.5041746E-008  0.1327474E+04  0.7818608E-02  0.9008057E-01
         -2   -1    0    0    0  501 -0.00000000000E+00  0.00000000000E+00  0.13040078821E+03  0.13040078821E+03  0.00000000000E+00 0.  1.
          1   -1    0    0  501    0  0.00000000000E+00 -0.00000000000E+00 -0.33784076214E+04  0.33784076214E+04  0.00000000000E+00 0. -1.
        -24    2    1    2    0    0  0.32536416516E+03  0.49208755924E+02 -0.55074097180E+03  0.64647548919E+03  0.79571342014E+02 0.  0.
        254    2    1    2    0    0 -0.32536416516E+03 -0.49208755924E+02 -0.26972658614E+04  0.28623329204E+04  0.89967954221E+03 0.  0.
         23    2    4    4    0    0 -0.42013247562E+03 -0.13928923396E+02 -0.49371364600E+03  0.65459485443E+03  0.89643444897E+02 0.  0.
         23    2    4    4    0    0  0.94768310466E+02 -0.35279832529E+02 -0.22035522154E+04  0.22077380660E+04  0.90770605635E+02 0.  0.
          3    1    3    3  502    0  0.25197717827E+03  0.39182756964E+02 -0.48260294636E+03  0.54583274970E+03  0.00000000000E+00 0. -1.
         -4    1    3    3    0  502  0.73386986890E+02  0.10025998960E+02 -0.68138025440E+02  0.10064273948E+03  0.00000000000E+00 0.  1.
         13    1    5    5    0    0 -0.13325911740E+03  0.30711405078E+02 -0.12477129743E+03  0.18511904125E+03  0.00000000000E+00 0. -1.
        -13    1    5    5    0    0 -0.28687335822E+03 -0.44640328474E+02 -0.36894234857E+03  0.46947581317E+03  0.00000000000E+00 0.  1.
          4    1    6    6  503    0  0.49811991945E+02 -0.28761703073E+02 -0.45838602052E+03  0.46198075059E+03  0.00000000000E+00 0. -1.
         -4    1    6    6    0  503  0.44956318521E+02 -0.65181294559E+01 -0.17451661949E+04  0.17457573154E+04  0.00000000000E+00 0.  1.
<mgrwt>
<rscale>  0 0.13274743E+04</rscale>
<asrwt>0</asrwt>
<pdfrwt beam="1">  1        1 0.51975504E+00 0.13274743E+04</pdfrwt>
<pdfrwt beam="2">  1       -2 0.20061659E-01 0.13274743E+04</pdfrwt>
<totfact> 0.57761476E+00</totfact>
</mgrwt>
</event>
<event>
12    5  0.5041746E-008  0.1390568E+04  0.7818608E-02  0.8960674E-01
         -2   -1    0    0    0  501 -0.00000000000E+00  0.00000000000E+00  0.14571751234E+04  0.14571751234E+04  0.00000000000E+00 0.  1.
          1   -1    0    0  501    0  0.00000000000E+00 -0.00000000000E+00 -0.33175149622E+03  0.33175149622E+03  0.00000000000E+00 0. -1.
        -24    2    1    2    0    0  0.22915294343E+03  0.17530271752E+03 -0.14968133179E+02  0.29966260845E+03  0.79570846665E+02 0.  0.
        254    2    1    2    0    0 -0.22915294343E+03 -0.17530271752E+03  0.11403917603E+04  0.14892640111E+04  0.91333006827E+03 0.  0.
         23    2    4    4    0    0  0.11464322310E+03 -0.38725647459E+03  0.19546819726E+03  0.45767206456E+03  0.90251076583E+02 0.  0.
         23    2    4    4    0    0 -0.34379616653E+03  0.21195375706E+03  0.94492356305E+03  0.10315919466E+04  0.90450013669E+02 0.  0.
          3    1    3    3  502    0  0.19141211952E+03  0.16212049124E+03  0.12508843827E+02  0.25115358718E+03  0.00000000000E+00 0. -1.
         -4    1    3    3    0  502  0.37740823907E+02  0.13182226279E+02 -0.27476977006E+02  0.48509021267E+02  0.00000000000E+00 0.  1.
         13    1    5    5    0    0  0.22357265127E+02 -0.19510225570E+02  0.35207638092E+02  0.46044261160E+02  0.00000000000E+00 0.  1.
        -13    1    5    5    0    0  0.92285957975E+02 -0.36774624902E+03  0.16026055917E+03  0.41162780340E+03  0.00000000000E+00 0. -1.
          2    1    6    6  503    0 -0.31973565947E+03  0.19509685461E+03  0.91904994022E+03  0.99244469228E+03  0.00000000000E+00 0. -1.
         -2    1    6    6    0  503 -0.24060507062E+02  0.16856902449E+02  0.25873622825E+02  0.39147254289E+02  0.00000000000E+00 0.  1.
<mgrwt>
<rscale>  0 0.13905683E+04</rscale>
<asrwt>0</asrwt>
<pdfrwt beam="1">  1        1 0.51038692E-01 0.13905683E+04</pdfrwt>
<pdfrwt beam="2">  1       -2 0.22418079E+00 0.13905683E+04</pdfrwt>
<totfact> 0.60896621E+00</totfact>
</mgrwt>
</event>
<event>
12    5  0.5041746E-008  0.1765413E+04  0.7818608E-02  0.8724912E-01
          1   -1    0    0  501    0  0.00000000000E+00  0.00000000000E+00  0.14568331916E+04  0.14568331916E+04  0.00000000000E+00 0. -1.
         -2   -1    0    0    0  501 -0.00000000000E+00 -0.00000000000E+00 -0.53483862582E+03  0.53483862582E+03  0.00000000000E+00 0.  1.
        -24    2    1    2    0    0 -0.12206968825E+03 -0.79847994237E+02 -0.37024425487E+03  0.40595897276E+03  0.80281805723E+02 0.  0.
        254    2    1    2    0    0  0.12206968825E+03  0.79847994237E+02  0.12922388206E+04  0.15857128446E+04  0.90737387284E+03 0.  0.
         23    2    4    4    0    0  0.19224240900E+03  0.45809234637E+03  0.56563045200E+03  0.75836158570E+03  0.91480843987E+02 0.  0.
         23    2    4    4    0    0 -0.70172720745E+02 -0.37824435213E+03  0.72660836864E+03  0.82735125895E+03  0.92506127590E+02 0.  0.
          3    1    3    3  502    0 -0.47513058545E+02  0.98619834833E+01 -0.13331206520E+03  0.14186915161E+03  0.00000000000E+00 0. -1.
         -4    1    3    3    0  502 -0.74556629709E+02 -0.89709977720E+02 -0.23693218967E+03  0.26408982116E+03  0.00000000000E+00 0.  1.
         13    1    5    5    0    0  0.18319721374E+03  0.35402965079E+03  0.47472731871E+03  0.61989050637E+03  0.00000000000E+00 0. -1.
        -13    1    5    5    0    0  0.90451952571E+01  0.10406269558E+03  0.90903133290E+02  0.13847107933E+03  0.00000000000E+00 0.  1.
          1    1    6    6  503    0 -0.65767573025E+02 -0.11573230914E+03  0.24339086609E+03  0.27741386904E+03  0.00000000000E+00 0. -1.
         -1    1    6    6    0  503 -0.44051477199E+01 -0.26251204299E+03  0.48321750256E+03  0.54993738991E+03  0.00000000000E+00 0.  1.
<mgrwt>
<rscale>  0 0.17654129E+04</rscale>
<asrwt>0</asrwt>
<pdfrwt beam="1">  1        1 0.22412818E+00 0.17654129E+04</pdfrwt>
<pdfrwt beam="2">  1       -2 0.82282866E-01 0.17654129E+04</pdfrwt>
<totfact> 0.75516957E+00</totfact>
</mgrwt>
</event>
<event>
12    5  0.5041746E-008  0.1074258E+04  0.7818608E-02  0.9230651E-01
         -2   -1    0    0    0  501 -0.00000000000E+00  0.00000000000E+00  0.49701204509E+03  0.49701204509E+03  0.00000000000E+00 0.  1.
          1   -1    0    0  501    0  0.00000000000E+00 -0.00000000000E+00 -0.58048401295E+03  0.58048401295E+03  0.00000000000E+00 0. -1.
        -24    2    1    2    0    0  0.20170714926E+02 -0.43680636551E+02 -0.14155236095E+03  0.17471781487E+03  0.90412323232E+02 0.  0.
        254    2    1    2    0    0 -0.20170714926E+02  0.43680636551E+02  0.58080393089E+02  0.90277824318E+03  0.89962234773E+03 0.  0.
         23    2    4    4    0    0 -0.23747803329E+03  0.15683218132E+03 -0.32381818618E+03  0.44098116673E+03  0.92811757411E+02 0.  0.
         23    2    4    4    0    0  0.21730731836E+03 -0.11315154477E+03  0.38189857927E+03  0.46179707645E+03  0.85931788486E+02 0.  0.
          3    1    3    3  502    0 -0.33735498502E+02 -0.12973074176E+01 -0.50061211486E+02  0.60381220269E+02  0.00000000000E+00 0. -1.
         -4    1    3    3    0  502  0.53906213428E+02 -0.42383329134E+02 -0.91491149461E+02  0.11433659460E+03  0.00000000000E+00 0.  1.
         13    1    5    5    0    0 -0.18585457557E+03  0.15736062935E+03 -0.23602870670E+03  0.33913690645E+03  0.00000000000E+00 0. -1.
        -13    1    5    5    0    0 -0.51623457723E+02 -0.52844802834E+00 -0.87789479475E+02  0.10184426028E+03  0.00000000000E+00 0.  1.
          1    1    6    6  503    0  0.22301277525E+03 -0.10176562558E+03  0.34872507008E+03  0.42626296458E+03  0.00000000000E+00 0. -1.
         -1    1    6    6    0  503 -0.57054568875E+01 -0.11385919193E+02  0.33173509191E+02  0.35534111868E+02  0.00000000000E+00 0.  1.
<mgrwt>
<rscale>  0 0.10742580E+04</rscale>
<asrwt>0</asrwt>
<pdfrwt beam="1">  1        1 0.89305233E-01 0.10742580E+04</pdfrwt>
<pdfrwt beam="2">  1       -2 0.76463392E-01 0.10742580E+04</pdfrwt>
<totfact> 0.48017417E+01</totfact>
</mgrwt>
</event>
<event>
12    5  0.5041746E-008  0.1016729E+04  0.7818608E-02  0.9290384E-01
          1   -1    0    0  501    0  0.00000000000E+00  0.00000000000E+00  0.82772283079E+03  0.82772283079E+03  0.00000000000E+00 0. -1.
         -2   -1    0    0    0  501 -0.00000000000E+00 -0.00000000000E+00 -0.31222363198E+03  0.31222363198E+03  0.00000000000E+00 0.  1.
        -24    2    1    2    0    0 -0.11176616681E+02 -0.56738698527E+02  0.13573127044E+03  0.16727942832E+03  0.78836747108E+02 0.  0.
        254    2    1    2    0    0  0.11176616681E+02  0.56738698527E+02  0.37976792837E+03  0.97266703444E+03  0.89359570489E+03 0.  0.
         23    2    4    4    0    0 -0.28888476201E+03  0.21071524662E+03  0.47967940061E+03  0.60632116385E+03  0.98375329684E+02 0.  0.
         23    2    4    4    0    0  0.30006137869E+03 -0.15397654809E+03 -0.99911472233E+02  0.36634587059E+03  0.10237864169E+03 0.  0.
          3    1    3    3  502    0  0.23191894762E+02 -0.95231146148E+01  0.89060531428E+02  0.92522061980E+02  0.00000000000E+00 0. -1.
         -4    1    3    3    0  502 -0.34368511443E+02 -0.47215583912E+02  0.46670739008E+02  0.74757366343E+02  0.00000000000E+00 0.  1.
         13    1    5    5    0    0 -0.24649235915E+03  0.18232958684E+03  0.34106082603E+03  0.45861208925E+03  0.00000000000E+00 0. -1.
        -13    1    5    5    0    0 -0.42392402853E+02  0.28385659781E+02  0.13861857458E+03  0.14770907460E+03  0.00000000000E+00 0.  1.
          4    1    6    6  503    0  0.27220437957E+03 -0.14366826566E+03 -0.55253596242E+02  0.31271193568E+03  0.00000000000E+00 0. -1.
         -4    1    6    6    0  503  0.27856999113E+02 -0.10308282427E+02 -0.44657875991E+02  0.53633934913E+02  0.00000000000E+00 0.  1.
<mgrwt>
<rscale>  0 0.10167293E+04</rscale>
<asrwt>0</asrwt>
<pdfrwt beam="1">  1        1 0.12734197E+00 0.10167293E+04</pdfrwt>
<pdfrwt beam="2">  1       -2 0.48034405E-01 0.10167293E+04</pdfrwt>
<totfact> 0.75394243E+01</totfact>
</mgrwt>
</event>
<event>
12    5  0.5041746E-008  0.2792153E+04  0.7818608E-02  0.8305709E-01
          1   -1    0    0  501    0  0.00000000000E+00  0.00000000000E+00  0.34957721412E+04  0.34957721412E+04  0.00000000000E+00 0. -1.
         -2   -1    0    0    0  501 -0.00000000000E+00 -0.00000000000E+00 -0.55753908879E+03  0.55753908879E+03  0.00000000000E+00 0.  1.
        -24    2    1    2    0    0  0.26010757246E+03 -0.31399882761E+03  0.30282722343E+04  0.30566419364E+04  0.79849792773E+02 0.  0.
        254    2    1    2    0    0 -0.26010757246E+03  0.31399882761E+03 -0.90039181826E+02  0.99666929365E+03  0.90498144382E+03 0.  0.
         23    2    4    4    0    0 -0.26132797371E+03 -0.27813944044E+03 -0.59122680770E+02  0.39684206002E+03  0.91292228844E+02 0.  0.
         23    2    4    4    0    0  0.12204012490E+01  0.59213826805E+03 -0.30916501056E+02  0.59982723363E+03  0.90596149503E+02 0.  0.
          3    1    3    3  502    0  0.24532732663E+03 -0.31641869483E+03  0.29322170019E+04  0.29594260987E+04  0.00000000000E+00 0. -1.
         -4    1    3    3    0  502  0.14780245829E+02  0.24198672209E+01  0.96055232416E+02  0.97215837695E+02  0.00000000000E+00 0.  1.
         13    1    5    5    0    0 -0.22716124750E+03 -0.18435077241E+03 -0.41560209600E+02  0.29549059320E+03  0.00000000000E+00 0. -1.
        -13    1    5    5    0    0 -0.34166726212E+02 -0.93788668033E+02 -0.17562471170E+02  0.10135146681E+03  0.00000000000E+00 0.  1.
          3    1    6    6  503    0  0.28262603096E+02  0.46619821508E+03  0.12714267141E+01  0.46705584998E+03  0.00000000000E+00 0. -1.
         -3    1    6    6    0  503 -0.27042201847E+02  0.12594005297E+03 -0.32187927770E+02  0.13277138365E+03  0.00000000000E+00 0.  1.
<mgrwt>
<rscale>  0 0.27921530E+04</rscale>
<asrwt>0</asrwt>
<pdfrwt beam="1">  1        1 0.53781109E+00 0.27921530E+04</pdfrwt>
<pdfrwt beam="2">  1       -2 0.85775246E-01 0.27921530E+04</pdfrwt>
<totfact> 0.22646878E-01</totfact>
</mgrwt>
</event>
<event>
12    5  0.5041746E-008  0.1822517E+04  0.7818608E-02  0.8694416E-01
         -2   -1    0    0    0  501 -0.00000000000E+00  0.00000000000E+00  0.71479786826E+03  0.71479786826E+03  0.00000000000E+00 0.  1.
          1   -1    0    0  501    0  0.00000000000E+00 -0.00000000000E+00 -0.11617154889E+04  0.11617154889E+04  0.00000000000E+00 0. -1.
        -24    2    1    2    0    0 -0.26451759802E+03 -0.41813261652E+03 -0.65204784511E+03  0.82268140273E+03  0.82667124189E+02 0.  0.
        254    2    1    2    0    0  0.26451759802E+03  0.41813261652E+03  0.20513022444E+03  0.10538319545E+04  0.90756759231E+03 0.  0.
         23    2    4    4    0    0 -0.27213404565E+03  0.37502222890E+03  0.18740652201E+03  0.50737648057E+03  0.87241489960E+02 0.  0.
         23    2    4    4    0    0  0.53665164367E+03  0.43110387624E+02  0.17723702421E+02  0.54645547390E+03  0.91901921365E+02 0.  0.
          1    1    3    3  502    0 -0.15466629125E+03 -0.30949041325E+03 -0.47591246307E+03  0.58838648017E+03  0.00000000000E+00 0. -1.
         -2    1    3    3    0  502 -0.10985130676E+03 -0.10864220327E+03 -0.17613538204E+03  0.23429492256E+03  0.00000000000E+00 0.  1.
         13    1    5    5    0    0 -0.22159395608E+03  0.35046624112E+03  0.15610778849E+03  0.44305768152E+03  0.00000000000E+00 0. -1.
        -13    1    5    5    0    0 -0.50540089575E+02  0.24555987785E+02  0.31298733527E+02  0.64318799046E+02  0.00000000000E+00 0.  1.
          3    1    6    6  503    0  0.14510814688E+03 -0.14457958348E+01  0.43635745250E+02  0.15153396609E+03  0.00000000000E+00 0. -1.
         -3    1    6    6    0  503  0.39154349679E+03  0.44556183459E+02 -0.25912042828E+02  0.39492150780E+03  0.00000000000E+00 0.  1.
<mgrwt>
<rscale>  0 0.18225167E+04</rscale>
<asrwt>0</asrwt>
<pdfrwt beam="1">  1        1 0.17872546E+00 0.18225167E+04</pdfrwt>
<pdfrwt beam="2">  1       -2 0.10996890E+00 0.18225167E+04</pdfrwt>
<totfact> 0.61923047E+00</totfact>
</mgrwt>
</event>
<event>
12    5  0.5041746E-008  0.1877235E+04  0.7818608E-02  0.8666271E-01
         -2   -1    0    0    0  501 -0.00000000000E+00  0.00000000000E+00  0.12290352141E+04  0.12290352141E+04  0.00000000000E+00 0.  1.
          1   -1    0    0  501    0  0.00000000000E+00 -0.00000000000E+00 -0.71682503213E+03  0.71682503213E+03  0.00000000000E+00 0. -1.
        -24    2    1    2    0    0  0.50320609815E+03  0.51376662475E+03  0.21121206315E+03  0.75361549174E+03  0.78442666031E+02 0.  0.
        254    2    1    2    0    0 -0.50320609815E+03 -0.51376662475E+03  0.30099811878E+03  0.11922447544E+04  0.90203944762E+03 0.  0.
         23    2    4    4    0    0  0.37410186479E+02 -0.56914034020E+03  0.28078743018E+03  0.64197262473E+03  0.89258170832E+02 0.  0.
         23    2    4    4    0    0 -0.54061628463E+03  0.55373715454E+02  0.20210688602E+02  0.55027212971E+03  0.84016243857E+02 0.  0.
          3    1    3    3  502    0 -0.21454723947E+01  0.46437206464E+01 -0.16129303568E+01  0.53636496506E+01  0.00000000000E+00 0. -1.
         -2    1    3    3    0  502  0.50535157055E+03  0.50912290410E+03  0.21282499351E+03  0.74825184209E+03  0.00000000000E+00 0.  1.
         13    1    5    5    0    0  0.62717565197E+02 -0.48846484610E+03  0.23242421526E+03  0.54456626291E+03  0.00000000000E+00 0. -1.
        -13    1    5    5    0    0 -0.25307378718E+02 -0.80675494105E+02  0.48363214916E+02  0.97406361823E+02  0.00000000000E+00 0.  1.
          1    1    6    6  503    0 -0.35613711536E+03 -0.35359811248E+01  0.17832736454E+02  0.35660083369E+03  0.00000000000E+00 0. -1.
         -1    1    6    6    0  503 -0.18447916928E+03  0.58909696579E+02  0.23779521478E+01  0.19367129602E+03  0.00000000000E+00 0.  1.
<mgrwt>
<rscale>  0 0.18772354E+04</rscale>
<asrwt>0</asrwt>
<pdfrwt beam="1">  1        1 0.11028077E+00 0.18772354E+04</pdfrwt>
<pdfrwt beam="2">  1       -2 0.18908234E+00 0.18772354E+04</pdfrwt>
<totfact> 0.33891302E+00</totfact>
</mgrwt>
</event>
<event>
12    5  0.5041746E-008  0.1915853E+04  0.7818608E-02  0.8647005E-01
         -2   -1    0    0    0  501 -0.00000000000E+00  0.00000000000E+00  0.30376732164E+03  0.30376732164E+03  0.00000000000E+00 0.  1.
          1   -1    0    0  501    0  0.00000000000E+00 -0.00000000000E+00 -0.30208107350E+04  0.30208107350E+04  0.00000000000E+00 0. -1.
        -24    2    1    2    0    0  0.30754726951E+03 -0.20074662645E+03 -0.21706823089E+04  0.22029659741E+04  0.79453545384E+02 0.  0.
        254    2    1    2    0    0 -0.30754726951E+03  0.20074662645E+03 -0.54636110444E+03  0.11216120825E+04  0.90808517012E+03 0.  0.
         23    2    4    4    0    0 -0.54220882930E+03  0.12681241671E+03 -0.58051298393E+02  0.56714722158E+03  0.90632301629E+02 0.  0.
         23    2    4    4    0    0  0.23466155979E+03  0.73934209739E+02 -0.48830980604E+03  0.55446486094E+03  0.91937480551E+02 0.  0.
          1    1    3    3  502    0  0.22989423045E+03 -0.16414008304E+03 -0.14562220230E+04  0.14833664093E+04  0.00000000000E+00 0. -1.
         -2    1    3    3    0  502  0.77653039054E+02 -0.36606543409E+02 -0.71446028592E+03  0.71959956480E+03  0.00000000000E+00 0.  1.
         13    1    5    5    0    0 -0.12105701695E+03  0.43831866228E+02 -0.49136465281E+02  0.13780575485E+03  0.00000000000E+00 0. -1.
        -13    1    5    5    0    0 -0.42115181234E+03  0.82980550484E+02 -0.89148331125E+01  0.42934146672E+03  0.00000000000E+00 0.  1.
          3    1    6    6  503    0  0.46970422563E+02  0.28707055616E+02 -0.45573943394E+02  0.71465375912E+02  0.00000000000E+00 0. -1.
         -3    1    6    6    0  503  0.18769113722E+03  0.45227154123E+02 -0.44273586265E+03  0.48299948503E+03  0.00000000000E+00 0.  1.
<mgrwt>
<rscale>  0 0.19158534E+04</rscale>
<asrwt>0</asrwt>
<pdfrwt beam="1">  1        1 0.46474012E+00 0.19158534E+04</pdfrwt>
<pdfrwt beam="2">  1       -2 0.46733434E-01 0.19158534E+04</pdfrwt>
<totfact> 0.20613557E+00</totfact>
</mgrwt>
</event>
<event>
12    5  0.5041746E-008  0.2799960E+04  0.7818608E-02  0.8303281E-01
         -2   -1    0    0    0  501 -0.00000000000E+00  0.00000000000E+00  0.64787646969E+03  0.64787646969E+03  0.00000000000E+00 0.  1.
          1   -1    0    0  501    0  0.00000000000E+00 -0.00000000000E+00 -0.30251817989E+04  0.30251817989E+04  0.00000000000E+00 0. -1.
        -24    2    1    2    0    0 -0.14762605451E+03  0.41755939963E+03  0.47249236938E+03  0.65256323760E+03  0.80252325513E+02 0.  0.
        254    2    1    2    0    0  0.14762605451E+03 -0.41755939963E+03 -0.28497976986E+04  0.30204950310E+04  0.89771599363E+03 0.  0.
         23    2    4    4    0    0 -0.22550226274E+03 -0.15009141871E+03 -0.25059778043E+03  0.37937385820E+03  0.88014613880E+02 0.  0.
         23    2    4    4    0    0  0.37312831725E+03 -0.26746798092E+03 -0.25991999181E+04  0.26411211728E+04  0.94429724669E+02 0.  0.
          1    1    3    3  502    0  0.38744469999E+01  0.42825633322E+02  0.25822400186E+02  0.50158175408E+02  0.00000000000E+00 0. -1.
         -2    1    3    3    0  502 -0.15150050151E+03  0.37473376631E+03  0.44666996919E+03  0.60240506219E+03  0.00000000000E+00 0.  1.
         13    1    5    5    0    0 -0.59497341226E+01 -0.43305961705E+01  0.74986014652E+01  0.10506303977E+02  0.00000000000E+00 0. -1.
        -13    1    5    5    0    0 -0.21955252862E+03 -0.14576082254E+03 -0.25809638189E+03  0.36886755422E+03  0.00000000000E+00 0.  1.
          2    1    6    6  503    0  0.41275552949E+02 -0.38919225428E+01 -0.33982400490E+03  0.34234364699E+03  0.00000000000E+00 0. -1.
         -2    1    6    6    0  503  0.33185276430E+03 -0.26357605838E+03 -0.22593759132E+04  0.22987775258E+04  0.00000000000E+00 0.  1.
<mgrwt>
<rscale>  0 0.27999601E+04</rscale>
<asrwt>0</asrwt>
<pdfrwt beam="1">  1        1 0.46541260E+00 0.27999601E+04</pdfrwt>
<pdfrwt beam="2">  1       -2 0.99673300E-01 0.27999601E+04</pdfrwt>
<totfact> 0.36306751E-01</totfact>
</mgrwt>
</event>
<event>
12    5  0.5041746E-008  0.2332219E+04  0.7818608E-02  0.8465325E-01
          1   -1    0    0  501    0  0.00000000000E+00  0.00000000000E+00  0.66741901341E+03  0.66741901341E+03  0.00000000000E+00 0. -1.
         -2   -1    0    0    0  501 -0.00000000000E+00 -0.00000000000E+00 -0.20374171574E+04  0.20374171574E+04  0.00000000000E+00 0.  1.
        -24    2    1    2    0    0  0.63057612007E+03  0.17602542461E+03  0.27666497869E+03  0.71546909110E+03  0.82105521025E+02 0.  0.
        254    2    1    2    0    0 -0.63057612007E+03 -0.17602542461E+03 -0.16466631226E+04  0.19893670797E+04  0.90414088776E+03 0.  0.
         23    2    4    4    0    0 -0.52247993774E+02 -0.45405369084E+03 -0.61202055234E+03  0.76855124350E+03  0.84895526284E+02 0.  0.
         23    2    4    4    0    0 -0.57832812629E+03  0.27802826623E+03 -0.10346425703E+04  0.12208158362E+04  0.90238124305E+02 0.  0.
          3    1    3    3  502    0  0.47218492287E+03  0.16381192044E+03  0.22782402795E+03  0.54926927310E+03  0.00000000000E+00 0. -1.
         -4    1    3    3    0  502  0.15839119720E+03  0.12213504168E+02  0.48840950734E+02  0.16619981800E+03  0.00000000000E+00 0.  1.
         13    1    5    5    0    0 -0.33390082586E+01 -0.12032039890E+02 -0.51745519496E+02  0.53230796988E+02  0.00000000000E+00 0.  1.
        -13    1    5    5    0    0 -0.48908985515E+02 -0.44202165095E+03 -0.56027503284E+03  0.71532044652E+03  0.00000000000E+00 0. -1.
          1    1    6    6  503    0 -0.29416223369E+03  0.10991992334E+03 -0.57054905782E+03  0.65126034476E+03  0.00000000000E+00 0. -1.
         -1    1    6    6    0  503 -0.28416589260E+03  0.16810834289E+03 -0.46409351247E+03  0.56955549140E+03  0.00000000000E+00 0.  1.
<mgrwt>
<rscale>  0 0.23322186E+04</rscale>
<asrwt>0</asrwt>
<pdfrwt beam="1">  1        1 0.10267985E+00 0.23322186E+04</pdfrwt>
<pdfrwt beam="2">  1       -2 0.31344879E+00 0.23322186E+04</pdfrwt>
<totfact> 0.60807718E-01</totfact>
</mgrwt>
</event>
<event>
12    5  0.5041746E-008  0.2894209E+04  0.7818608E-02  0.8274602E-01
          1   -1    0    0  501    0  0.00000000000E+00  0.00000000000E+00  0.11936890200E+04  0.11936890200E+04  0.00000000000E+00 0. -1.
         -2   -1    0    0    0  501 -0.00000000000E+00 -0.00000000000E+00 -0.17543194584E+04  0.17543194584E+04  0.00000000000E+00 0.  1.
        -24    2    1    2    0    0 -0.12419102836E+04 -0.35930433263E+03 -0.44111777252E+03  0.13680757556E+04  0.74870740646E+02 0.  0.
        254    2    1    2    0    0  0.12419102836E+04  0.35930433263E+03 -0.11951266589E+03  0.15799327228E+04  0.90025739382E+03 0.  0.
         23    2    4    4    0    0  0.11025077724E+04 -0.50970259544E+02  0.47866472892E+02  0.11083264897E+04  0.89303152460E+02 0.  0.
         23    2    4    4    0    0  0.13940251123E+03  0.41027459217E+03 -0.16737913878E+03  0.47160623304E+03  0.81476142671E+02 0.  0.
          1    1    3    3  502    0 -0.17458819923E+03 -0.26342278126E+02 -0.48702820765E+02  0.18315818212E+03  0.00000000000E+00 0. -1.
         -2    1    3    3    0  502 -0.10673220844E+04 -0.33296205450E+03 -0.39241495176E+03  0.11849175735E+04  0.00000000000E+00 0.  1.
         13    1    5    5    0    0  0.19274781542E+03  0.21534397166E+02 -0.65871330159E+01  0.19405885945E+03  0.00000000000E+00 0. -1.
        -13    1    5    5    0    0  0.90975995697E+03 -0.72504656711E+02  0.54453605907E+02  0.91426763027E+03  0.00000000000E+00 0.  1.
          4    1    6    6  503    0  0.48113905152E+01  0.12896261564E+03 -0.48585984314E+02  0.13789526309E+03  0.00000000000E+00 0. -1.
         -4    1    6    6    0  503  0.13459112072E+03  0.28131197653E+03 -0.11879315446E+03  0.33371096995E+03  0.00000000000E+00 0.  1.
<mgrwt>
<rscale>  0 0.28942093E+04</rscale>
<asrwt>0</asrwt>
<pdfrwt beam="1">  1        1 0.18364447E+00 0.28942093E+04</pdfrwt>
<pdfrwt beam="2">  1       -2 0.26989530E+00 0.28942093E+04</pdfrwt>
<totfact> 0.39511709E-01</totfact>
</mgrwt>
</event>
<event>
12    5  0.5041746E-008  0.1875545E+04  0.7818608E-02  0.8667126E-01
         -2   -1    0    0    0  501 -0.00000000000E+00  0.00000000000E+00  0.10420242468E+04  0.10420242468E+04  0.00000000000E+00 0.  1.
          1   -1    0    0  501    0  0.00000000000E+00 -0.00000000000E+00 -0.84395060495E+03  0.84395060495E+03  0.00000000000E+00 0. -1.
        -24    2    1    2    0    0 -0.26472829050E+03 -0.44435042495E+03 -0.40720529596E+03  0.66319294660E+03  0.80500704435E+02 0.  0.
        254    2    1    2    0    0  0.26472829050E+03  0.44435042495E+03  0.60527893784E+03  0.12227819052E+04  0.92806499077E+03 0.  0.
         23    2    4    4    0    0 -0.12424747884E+03  0.37199526202E+03  0.69858086417E+03  0.80631140642E+03  0.91131494984E+02 0.  0.
         23    2    4    4    0    0  0.38897576934E+03  0.72355162927E+02 -0.93301926326E+02  0.41647049876E+03  0.90581500027E+02 0.  0.
          1    1    3    3  502    0 -0.25732537763E+03 -0.40469522347E+03 -0.39423548177E+03  0.62081896633E+03  0.00000000000E+00 0. -1.
         -2    1    3    3    0  502 -0.74029128741E+01 -0.39655201483E+02 -0.12969814190E+02  0.42373980269E+02  0.00000000000E+00 0.  1.
         13    1    5    5    0    0 -0.13608636872E+02  0.11161243197E+03  0.13488746573E+03  0.17560512059E+03  0.00000000000E+00 0. -1.
        -13    1    5    5    0    0 -0.11063884197E+03  0.26038283005E+03  0.56369339844E+03  0.63070628583E+03  0.00000000000E+00 0.  1.
          1    1    6    6  503    0  0.32914752805E+02  0.29856452997E+02  0.48213609609E+01  0.44699376497E+02  0.00000000000E+00 0. -1.
         -1    1    6    6    0  503  0.35606101654E+03  0.42498709931E+02 -0.98123287287E+02  0.37177112226E+03  0.00000000000E+00 0.  1.
<mgrwt>
<rscale>  0 0.18755447E+04</rscale>
<asrwt>0</asrwt>
<pdfrwt beam="1">  1        1 0.12983856E+00 0.18755447E+04</pdfrwt>
<pdfrwt beam="2">  1       -2 0.16031142E+00 0.18755447E+04</pdfrwt>
<totfact> 0.41698412E+00</totfact>
</mgrwt>
</event>
<event>
12    5  0.5041746E-008  0.1327078E+04  0.7818608E-02  0.9008363E-01
          1   -1    0    0  501    0  0.00000000000E+00  0.00000000000E+00  0.12424404162E+04  0.12424404162E+04  0.00000000000E+00 0. -1.
         -2   -1    0    0    0  501 -0.00000000000E+00 -0.00000000000E+00 -0.35437049712E+03  0.35437049712E+03  0.00000000000E+00 0.  1.
        -24    2    1    2    0    0 -0.82387455810E+02 -0.31228756259E+03  0.88652201595E+02  0.34554970261E+03  0.85053921160E+02 0.  0.
        254    2    1    2    0    0  0.82387455810E+02  0.31228756259E+03  0.79941771752E+03  0.12512612107E+04  0.90679364566E+03 0.  0.
         23    2    4    4    0    0 -0.17961845752E+03  0.25614206359E+03  0.89419515387E+03  0.95172547057E+03  0.91240622043E+02 0.  0.
         23    2    4    4    0    0  0.26200591333E+03  0.56145498999E+02 -0.94777436347E+02  0.29953574018E+03  0.94548831438E+02 0.  0.
          3    1    3    3  502    0 -0.50610218261E+02 -0.22777648559E+03  0.24128205600E+02  0.23457555688E+03  0.00000000000E+00 0. -1.
         -4    1    3    3    0  502 -0.31777237549E+02 -0.84511077001E+02  0.64523995995E+02  0.11097414573E+03  0.00000000000E+00 0.  1.
         13    1    5    5    0    0 -0.82285590914E+02  0.47972588403E+02  0.23207121279E+03  0.25085720144E+03  0.00000000000E+00 0.  1.
        -13    1    5    5    0    0 -0.97332866603E+02  0.20816947519E+03  0.66212394108E+03  0.70086826913E+03  0.00000000000E+00 0. -1.
          2    1    6    6  503    0  0.12333764610E+03 -0.17767370114E+02 -0.61299579731E+02  0.13887221775E+03  0.00000000000E+00 0. -1.
         -2    1    6    6    0  503  0.13866826722E+03  0.73912869114E+02 -0.33477856615E+02  0.16066352243E+03  0.00000000000E+00 0.  1.
<mgrwt>
<rscale>  0 0.13270783E+04</rscale>
<asrwt>0</asrwt>
<pdfrwt beam="1">  1        1 0.19114468E+00 0.13270783E+04</pdfrwt>
<pdfrwt beam="2">  1       -2 0.54518539E-01 0.13270783E+04</pdfrwt>
<totfact> 0.27097840E+01</totfact>
</mgrwt>
</event>
