<event>
12    4  0.4207946E-008  0.1815699E+04  0.7818608E-02  0.8697995E-01
          1   -1    0    0  501    0  0.00000000000E+00  0.00000000000E+00  0.12924880557E+04  0.12924880557E+04  0.00000000000E+00 0. -1.
         -2   -1    0    0    0  501 -0.00000000000E+00 -0.00000000000E+00 -0.63767754125E+03  0.63767754125E+03  0.00000000000E+00 0.  1.
        -24    2    1    2    0    0 -0.62081804673E+03  0.16591699631E+02  0.57347275619E+03  0.84913060590E+03  0.80383158360E+02 0.  0.
        254    2    1    2    0    0  0.62081804673E+03 -0.16591699631E+02  0.81337758247E+02  0.10810349910E+04  0.88109618616E+03 0.  0.
         23    2    4    4    0    0  0.60576459800E+03  0.30566913336E+03 -0.11236520429E+03  0.69314268652E+03  0.86235012999E+02 0.  0.
         23    2    4    4    0    0  0.15053448731E+02 -0.32226083299E+03  0.19370296254E+03  0.38789230450E+03  0.94132626647E+02 0.  0.
          1    1    3    3  502    0 -0.23926216084E+03  0.23178372997E+02  0.17453725363E+03  0.29706374987E+03  0.00000000000E+00 0. -1.
         -4    1    3    3    0  502 -0.38155588589E+03 -0.65866733659E+01  0.39893550257E+03  0.55206685603E+03  0.00000000000E+00 0.  1.
         11    1    5    5    0    0  0.22812341431E+03  0.14380060719E+03 -0.10676121099E+02  0.26987568684E+03  0.00000000000E+00 0. -1.
        -11    1    5    5    0    0  0.37764118368E+03  0.16186852617E+03 -0.10168908319E+03  0.42326699968E+03  0.00000000000E+00 0.  1.
          4    1    6    6  503    0 -0.25987986532E+02 -0.62705694823E+02  0.13357077232E+02  0.69179412540E+02  0.00000000000E+00 0. -1.
         -4    1    6    6    0  503  0.41041435263E+02 -0.25955513817E+03  0.18034588530E+03  0.31871289196E+03  0.00000000000E+00 0.  1.
<mgrwt>
<rscale>  0 0.18156989E+04</rscale>
<asrwt>0</asrwt>
<pdfrwt beam="1">  1        1 0.19884432E+00 0.18156989E+04</pdfrwt>
<pdfrwt beam="2">  1       -2 0.98104237E-01 0.18156989E+04</pdfrwt>
<totfact> 0.65436315E+00</totfact>
</mgrwt>
</event>
<event>
12    4  0.4207946E-008  0.4300448E+04  0.7818608E-02  0.7946535E-01
          1   -1    0    0  501    0  0.00000000000E+00  0.00000000000E+00  0.47866444052E+04  0.47866444052E+04  0.00000000000E+00 0. -1.
         -2   -1    0    0    0  501 -0.00000000000E+00 -0.00000000000E+00 -0.96590903673E+03  0.96590903673E+03  0.00000000000E+00 0.  1.
        -24    2    1    2    0    0 -0.15769254683E+04 -0.13116134477E+04  0.19936782572E+04  0.28615851813E+04  0.83024020133E+02 0.  0.
        254    2    1    2    0    0  0.15769254683E+04  0.13116134477E+04  0.18270571113E+04  0.28909682607E+04  0.90140780319E+03 0.  0.
         23    2    4    4    0    0  0.11920509275E+04  0.12396453906E+04  0.10522345007E+04  0.20182695320E+04  0.92240724204E+02 0.  0.
         23    2    4    4    0    0  0.38487454072E+03  0.71968057099E+02  0.77482261055E+03  0.87269872861E+03  0.89135737861E+02 0.  0.
          3    1    3    3  502    0 -0.11227877210E+04 -0.90663441214E+03  0.13578518237E+04  0.19815145215E+04  0.00000000000E+00 0. -1.
         -4    1    3    3    0  502 -0.45413774730E+03 -0.40497903555E+03  0.63582643350E+03  0.88007065983E+03  0.00000000000E+00 0.  1.
         11    1    5    5    0    0  0.55062850342E+03  0.55474222155E+03  0.42647294136E+03  0.89039870331E+03  0.00000000000E+00 0.  1.
        -11    1    5    5    0    0  0.64142242412E+03  0.68490316905E+03  0.62576155936E+03  0.11278708287E+04  0.00000000000E+00 0. -1.
          3    1    6    6  503    0  0.86312439626E+02 -0.11798863950E+02  0.12131253520E+03  0.14935120227E+03  0.00000000000E+00 0. -1.
         -3    1    6    6    0  503  0.29856210110E+03  0.83766921049E+02  0.65351007535E+03  0.72334752633E+03  0.00000000000E+00 0.  1.
<mgrwt>
<rscale>  0 0.43004479E+04</rscale>
<asrwt>0</asrwt>
<pdfrwt beam="1">  1        1 0.73640682E+00 0.43004479E+04</pdfrwt>
<pdfrwt beam="2">  1       -2 0.14860139E+00 0.43004479E+04</pdfrwt>
<totfact> 0.32205116E-03</totfact>
</mgrwt>
</event>
<event>
12    4  0.4207946E-008  0.1827158E+04  0.7818608E-02  0.8691989E-01
         -2   -1    0    0    0  501 -0.00000000000E+00  0.00000000000E+00  0.12538780290E+04  0.12538780290E+04  0.00000000000E+00 0.  1.
          1   -1    0    0  501    0  0.00000000000E+00 -0.00000000000E+00 -0.66563619631E+03  0.66563619631E+03  0.00000000000E+00 0. -1.
        -24    2    1    2    0    0  0.33522452781E+03  0.24290383762E+03  0.80418639129E+03  0.90802286613E+03  0.80075059186E+02 0.  0.
        254    2    1    2    0    0 -0.33522452781E+03 -0.24290383762E+03 -0.21594455861E+03  0.10114913592E+04  0.89727641166E+03 0.  0.
         23    2    4    4    0    0 -0.48314198211E+03  0.28208896751E+02 -0.40511470150E+03  0.63814575812E+03  0.94287700678E+02 0.  0.
         23    2    4    4    0    0  0.14791745430E+03 -0.27111273438E+03  0.18917014290E+03  0.37334560106E+03  0.90663701902E+02 0.  0.
          1    1    3    3  502    0  0.10472604094E+03  0.88019576525E+02  0.19155900478E+03  0.23539295192E+03  0.00000000000E+00 0. -1.
         -2    1    3    3    0  502  0.23049848687E+03  0.15488426110E+03  0.61262738651E+03  0.67262991421E+03  0.00000000000E+00 0.  1.
         11    1    5    5    0    0 -0.16735892655E+02 -0.28384075176E+01  0.34486268074E+01  0.17321653704E+02  0.00000000000E+00 0. -1.
        -11    1    5    5    0    0 -0.46640608945E+03  0.31047304269E+02 -0.40856332831E+03  0.62082410441E+03  0.00000000000E+00 0.  1.
          2    1    6    6  503    0 -0.10032295699E+02 -0.23513620028E+02  0.32889218376E+01  0.25775071109E+02  0.00000000000E+00 0. -1.
         -2    1    6    6    0  503  0.15794975000E+03 -0.24759911435E+03  0.18588122106E+03  0.34757052995E+03  0.00000000000E+00 0.  1.
<mgrwt>
<rscale>  0 0.18271580E+04</rscale>
<asrwt>0</asrwt>
<pdfrwt beam="1">  1        1 0.10240557E+00 0.18271580E+04</pdfrwt>
<pdfrwt beam="2">  1       -2 0.19290431E+00 0.18271580E+04</pdfrwt>
<totfact> 0.35889751E+00</totfact>
</mgrwt>
</event>
<event>
12    4  0.4207946E-008  0.1961533E+04  0.7818608E-02  0.8624819E-01
          1   -1    0    0  501    0  0.00000000000E+00  0.00000000000E+00  0.20353516690E+04  0.20353516690E+04  0.00000000000E+00 0. -1.
         -2   -1    0    0    0  501 -0.00000000000E+00 -0.00000000000E+00 -0.47259798750E+03  0.47259798750E+03  0.00000000000E+00 0.  1.
        -24    2    1    2    0    0  0.28358925233E+03  0.64489708236E+03  0.23266572405E+03  0.74641949107E+03  0.81814464654E+02 0.  0.
        254    2    1    2    0    0 -0.28358925233E+03 -0.64489708236E+03  0.13300879574E+04  0.17615301654E+04  0.91517180806E+03 0.  0.
         23    2    4    4    0    0 -0.63506010645E+02  0.20023250041E+03  0.10113520636E+03  0.25073601867E+03  0.92272170691E+02 0.  0.
         23    2    4    4    0    0 -0.22008324169E+03 -0.84512958278E+03  0.12289527511E+04  0.15107941468E+04  0.97434308661E+02 0.  0.
          3    1    3    3  502    0  0.82211378533E+02  0.14955520000E+03  0.90303881898E+02  0.19308096668E+03  0.00000000000E+00 0. -1.
         -4    1    3    3    0  502  0.20137787380E+03  0.49534188236E+03  0.14236184215E+03  0.55333852439E+03  0.00000000000E+00 0.  1.
         11    1    5    5    0    0 -0.12446379787E+02  0.13342528837E+03  0.23023788202E+02  0.13596806526E+03  0.00000000000E+00 0. -1.
        -11    1    5    5    0    0 -0.51059630858E+02  0.66807212043E+02  0.78111418159E+02  0.11476795342E+03  0.00000000000E+00 0.  1.
          1    1    6    6  503    0 -0.19423492161E+03 -0.62748705556E+03  0.86828600113E+03  0.10887551559E+04  0.00000000000E+00 0. -1.
         -1    1    6    6    0  503 -0.25848320078E+02 -0.21764252721E+03  0.36066674996E+03  0.42203899088E+03  0.00000000000E+00 0.  1.
<mgrwt>
<rscale>  0 0.19615332E+04</rscale>
<asrwt>0</asrwt>
<pdfrwt beam="1">  1        1 0.31313102E+00 0.19615332E+04</pdfrwt>
<pdfrwt beam="2">  1       -2 0.72707384E-01 0.19615332E+04</pdfrwt>
<totfact> 0.39419720E+00</totfact>
</mgrwt>
</event>
<event>
12    4  0.4207946E-008  0.1358702E+04  0.7818608E-02  0.8984267E-01
          1   -1    0    0  501    0  0.00000000000E+00  0.00000000000E+00  0.93760489786E+03  0.93760489786E+03  0.00000000000E+00 0. -1.
         -2   -1    0    0    0  501 -0.00000000000E+00 -0.00000000000E+00 -0.49223019763E+03  0.49223019763E+03  0.00000000000E+00 0.  1.
        -24    2    1    2    0    0 -0.14248304006E+03 -0.29442117233E+03 -0.53682059535E+02  0.34381577706E+03  0.91336091536E+02 0.  0.
        254    2    1    2    0    0  0.14248304006E+03  0.29442117233E+03  0.49905675977E+03  0.10860193184E+04  0.90741118967E+03 0.  0.
         23    2    4    4    0    0 -0.17463850994E+03  0.49322172686E+03  0.11614764983E+03  0.54305806721E+03  0.87495753055E+02 0.  0.
         23    2    4    4    0    0  0.31712154999E+03 -0.19880055452E+03  0.38290910994E+03  0.54296125123E+03  0.89998866190E+02 0.  0.
          1    1    3    3  502    0 -0.31994323309E+02 -0.11440073619E+03  0.19283116530E+02  0.12034535200E+03  0.00000000000E+00 0. -1.
         -2    1    3    3    0  502 -0.11048871675E+03 -0.18002043614E+03 -0.72965176065E+02  0.22347042505E+03  0.00000000000E+00 0.  1.
         11    1    5    5    0    0 -0.28960324647E+02  0.25379022380E+02  0.21157724137E+02  0.43936823636E+02  0.00000000000E+00 0. -1.
        -11    1    5    5    0    0 -0.14567818529E+03  0.46784270448E+03  0.94989925695E+02  0.49912124357E+03  0.00000000000E+00 0.  1.
          1    1    6    6  503    0  0.12906969272E+03 -0.68860574376E+02  0.91298481346E+02  0.17244180752E+03  0.00000000000E+00 0. -1.
         -1    1    6    6    0  503  0.18805185727E+03 -0.12993998015E+03  0.29161062859E+03  0.37051944372E+03  0.00000000000E+00 0.  1.
<mgrwt>
<rscale>  0 0.13587015E+04</rscale>
<asrwt>0</asrwt>
<pdfrwt beam="1">  1        1 0.14424691E+00 0.13587015E+04</pdfrwt>
<pdfrwt beam="2">  1       -2 0.75727723E-01 0.13587015E+04</pdfrwt>
<totfact> 0.22727871E+01</totfact>
</mgrwt>
</event>
<event>
12    4  0.4207946E-008  0.2719049E+04  0.7818608E-02  0.8328851E-01
         -4   -1    0    0    0  501 -0.00000000000E+00  0.00000000000E+00  0.68562727598E+03  0.68562727598E+03  0.00000000000E+00 0.  1.
          1   -1    0    0  501    0  0.00000000000E+00 -0.00000000000E+00 -0.26957896390E+04  0.26957896390E+04  0.00000000000E+00 0. -1.
        -24    2    1    2    0    0 -0.79903349161E+03 -0.90108107438E+03 -0.10405033612E+04  0.15934986818E+04  0.78671348170E+02 0.  0.
        254    2    1    2    0    0  0.79903349161E+03  0.90108107438E+03 -0.96965900184E+03  0.17879182332E+04  0.89778137946E+03 0.  0.
         23    2    4    4    0    0 -0.17263644642E+03  0.28668725508E+03 -0.26532270683E+03  0.43666753291E+03  0.91046530252E+02 0.  0.
         23    2    4    4    0    0  0.97166993803E+03  0.61439381930E+03 -0.70433629500E+03  0.13512507003E+04  0.90369269201E+02 0.  0.
          1    1    3    3  502    0 -0.67843708339E+03 -0.73091530388E+03 -0.83449461196E+03  0.13003443063E+04  0.00000000000E+00 0. -1.
         -2    1    3    3    0  502 -0.12059640822E+03 -0.17016577051E+03 -0.20600874925E+03  0.29315437553E+03  0.00000000000E+00 0.  1.
         11    1    5    5    0    0 -0.12759302063E+03  0.12892675240E+03 -0.15857794763E+03  0.24093370846E+03  0.00000000000E+00 0. -1.
        -11    1    5    5    0    0 -0.45043425792E+02  0.15776050269E+03 -0.10674475921E+03  0.19573382445E+03  0.00000000000E+00 0.  1.
          3    1    6    6  503    0  0.66291143914E+03  0.46671207392E+03 -0.48424205860E+03  0.94433156646E+03  0.00000000000E+00 0. -1.
         -3    1    6    6    0  503  0.30875849889E+03  0.14768174538E+03 -0.22009423640E+03  0.40691913380E+03  0.00000000000E+00 0.  1.
<mgrwt>
<rscale>  0 0.27190490E+04</rscale>
<asrwt>0</asrwt>
<pdfrwt beam="1">  1        1 0.41473687E+00 0.27190490E+04</pdfrwt>
<pdfrwt beam="2">  1       -4 0.10548112E+00 0.27190490E+04</pdfrwt>
<totfact> 0.30879605E-01</totfact>
</mgrwt>
</event>
<event>
12    4  0.4207946E-008  0.1274352E+04  0.7818608E-02  0.9050155E-01
          1   -1    0    0  501    0  0.00000000000E+00  0.00000000000E+00  0.18502413342E+04  0.18502413342E+04  0.00000000000E+00 0. -1.
         -2   -1    0    0    0  501 -0.00000000000E+00 -0.00000000000E+00 -0.21942718908E+03  0.21942718908E+03  0.00000000000E+00 0.  1.
        -24    2    1    2    0    0 -0.17817830937E+03  0.18251295923E+03  0.70542359898E+03  0.75437804902E+03  0.80033097116E+02 0.  0.
        254    2    1    2    0    0  0.17817830937E+03 -0.18251295923E+03  0.92539054615E+03  0.13152904743E+04  0.89921236567E+03 0.  0.
         23    2    4    4    0    0  0.91682909266E+02  0.31912079202E+03  0.63168122840E+03  0.71945349643E+03  0.91369160355E+02 0.  0.
         23    2    4    4    0    0  0.86495400108E+02 -0.50163375125E+03  0.29370931775E+03  0.59583697784E+03  0.98176709018E+02 0.  0.
          3    1    3    3  502    0 -0.88564562116E+02  0.10832243697E+03  0.48952803664E+03  0.50913174196E+03  0.00000000000E+00 0. -1.
         -4    1    3    3    0  502 -0.89613747257E+02  0.74190522263E+02  0.21589556233E+03  0.24524630706E+03  0.00000000000E+00 0.  1.
         11    1    5    5    0    0  0.60098065732E+02  0.29481072744E+03  0.58673371050E+03  0.65937970059E+03  0.00000000000E+00 0.  1.
        -11    1    5    5    0    0  0.31584843534E+02  0.24310064577E+02  0.44947517899E+02  0.60073795835E+02  0.00000000000E+00 0. -1.
          1    1    6    6  503    0  0.21782173748E+02 -0.16257422331E+03  0.44066375150E+02  0.16984312349E+03  0.00000000000E+00 0. -1.
         -1    1    6    6    0  503  0.64713226360E+02 -0.33905952794E+03  0.24964294260E+03  0.42599385435E+03  0.00000000000E+00 0.  1.
<mgrwt>
<rscale>  0 0.12743520E+04</rscale>
<asrwt>0</asrwt>
<pdfrwt beam="1">  1        1 0.28465250E+00 0.12743520E+04</pdfrwt>
<pdfrwt beam="2">  1       -2 0.33758030E-01 0.12743520E+04</pdfrwt>
<totfact> 0.26729706E+01</totfact>
</mgrwt>
</event>
<event>
12    4  0.4207946E-008  0.1981012E+04  0.7818608E-02  0.8615550E-01
          1   -1    0    0  501    0  0.00000000000E+00  0.00000000000E+00  0.94313342408E+03  0.94313342408E+03  0.00000000000E+00 0. -1.
         -2   -1    0    0    0  501 -0.00000000000E+00 -0.00000000000E+00 -0.10402577802E+04  0.10402577802E+04  0.00000000000E+00 0.  1.
        -24    2    1    2    0    0  0.55275129096E+03  0.51282934156E+03 -0.24465347579E+03  0.79659722751E+03  0.78637754586E+02 0.  0.
        254    2    1    2    0    0 -0.55275129096E+03 -0.51282934156E+03  0.14752911965E+03  0.11867939768E+04  0.90453699702E+03 0.  0.
         23    2    4    4    0    0 -0.58636615994E+03 -0.71113769692E+03  0.83121733879E+01  0.92582867455E+03  0.86876607182E+02 0.  0.
         23    2    4    4    0    0  0.33614868984E+02  0.19830835537E+03  0.13921694626E+03  0.26096530224E+03  0.90914067240E+02 0.  0.
          3    1    3    3  502    0  0.26342422813E+02  0.16074561428E+02  0.43677581660E+01  0.31167163428E+02  0.00000000000E+00 0. -1.
         -4    1    3    3    0  502  0.52640886815E+03  0.49675478013E+03 -0.24902123395E+03  0.76543006408E+03  0.00000000000E+00 0.  1.
         11    1    5    5    0    0 -0.44039557959E+03 -0.55663524469E+03 -0.27332456620E+02  0.71030847196E+03  0.00000000000E+00 0.  1.
        -11    1    5    5    0    0 -0.14597058036E+03 -0.15450245224E+03  0.35644630008E+02  0.21552020259E+03  0.00000000000E+00 0. -1.
          1    1    6    6  503    0  0.40840837626E+02  0.36260055826E+02  0.57615318746E+02  0.79386967574E+02  0.00000000000E+00 0. -1.
         -1    1    6    6    0  503 -0.72259686414E+01  0.16204829954E+03  0.81601627514E+02  0.18157833466E+03  0.00000000000E+00 0.  1.
<mgrwt>
<rscale>  0 0.19810117E+04</rscale>
<asrwt>0</asrwt>
<pdfrwt beam="1">  1        1 0.14509745E+00 0.19810117E+04</pdfrwt>
<pdfrwt beam="2">  1       -2 0.16003966E+00 0.19810117E+04</pdfrwt>
<totfact> 0.34406316E+00</totfact>
</mgrwt>
</event>
<event>
12    4  0.4207946E-008  0.1711401E+04  0.7818608E-02  0.8754889E-01
         -2   -1    0    0    0  501 -0.00000000000E+00  0.00000000000E+00  0.36776057966E+03  0.36776057966E+03  0.00000000000E+00 0.  1.
          1   -1    0    0  501    0  0.00000000000E+00 -0.00000000000E+00 -0.19910320399E+04  0.19910320399E+04  0.00000000000E+00 0. -1.
        -24    2    1    2    0    0 -0.48346236718E+03  0.26966411777E+03 -0.97288874705E+03  0.11223151112E+04  0.81388559968E+02 0.  0.
        254    2    1    2    0    0  0.48346236718E+03 -0.26966411777E+03 -0.65038271321E+03  0.12364775084E+04  0.89410533960E+03 0.  0.
         23    2    4    4    0    0  0.59233690953E+03 -0.29978822373E+03 -0.78928575316E+03  0.10355314003E+04  0.92829345025E+02 0.  0.
         23    2    4    4    0    0 -0.10887454235E+03  0.30124105965E+02  0.13890303995E+03  0.20094610816E+03  0.91236813544E+02 0.  0.
          1    1    3    3  502    0 -0.46327127439E+03  0.27356279307E+03 -0.94802079103E+03  0.10900460062E+04  0.00000000000E+00 0. -1.
         -2    1    3    3    0  502 -0.20191092791E+02 -0.38986753057E+01 -0.24867956024E+02  0.32269104946E+02  0.00000000000E+00 0.  1.
         11    1    5    5    0    0  0.31278443169E+02  0.37569809629E+01 -0.49735505937E+02  0.58873393514E+02  0.00000000000E+00 0. -1.
        -11    1    5    5    0    0  0.56105846636E+03 -0.30354520469E+03 -0.73955024722E+03  0.97665800674E+03  0.00000000000E+00 0.  1.
          2    1    6    6  503    0 -0.33561500550E+02  0.47975859601E+02  0.26007219912E+02  0.64065848243E+02  0.00000000000E+00 0. -1.
         -2    1    6    6    0  503 -0.75313041799E+02 -0.17851753635E+02  0.11289582004E+03  0.13688025992E+03  0.00000000000E+00 0.  1.
<mgrwt>
<rscale>  0 0.17114007E+04</rscale>
<asrwt>0</asrwt>
<pdfrwt beam="1">  1        1 0.30631262E+00 0.17114007E+04</pdfrwt>
<pdfrwt beam="2">  1       -2 0.56578550E-01 0.17114007E+04</pdfrwt>
<totfact> 0.73944779E+00</totfact>
</mgrwt>
</event>
<event>
12    4  0.4207946E-008  0.1990988E+04  0.7818608E-02  0.8610846E-01
         -2   -1    0    0    0  501 -0.00000000000E+00  0.00000000000E+00  0.76962734368E+03  0.76962734368E+03  0.00000000000E+00 0.  1.
          1   -1    0    0  501    0  0.00000000000E+00 -0.00000000000E+00 -0.12876474373E+04  0.12876474373E+04  0.00000000000E+00 0. -1.
        -24    2    1    2    0    0 -0.28970471556E+03 -0.16563170572E+02  0.55465307332E+03  0.63096863916E+03  0.79235289001E+02 0.  0.
        254    2    1    2    0    0  0.28970471556E+03  0.16563170572E+02 -0.10726731669E+04  0.14263061418E+04  0.89415788667E+03 0.  0.
         23    2    4    4    0    0  0.31487392384E+02 -0.32772077289E+03 -0.95375630360E+02  0.35453332804E+03  0.90581504505E+02 0.  0.
         23    2    4    4    0    0  0.25821732318E+03  0.34428394346E+03 -0.97729753659E+03  0.10717728138E+04  0.91536165810E+02 0.  0.
          3    1    3    3  502    0 -0.11443888543E+03 -0.89207615392E+01  0.14213674914E+03  0.18269836874E+03  0.00000000000E+00 0. -1.
         -4    1    3    3    0  502 -0.17526583013E+03 -0.76424090333E+01  0.41251632418E+03  0.44827027042E+03  0.00000000000E+00 0.  1.
         11    1    5    5    0    0  0.59080589738E+02 -0.27553110413E+03 -0.70554282823E+02  0.29049236178E+03  0.00000000000E+00 0. -1.
        -11    1    5    5    0    0 -0.27593197354E+02 -0.52189668759E+02 -0.24821347538E+02  0.64040966256E+02  0.00000000000E+00 0.  1.
          3    1    6    6  503    0  0.17893459699E+03  0.26294512801E+03 -0.80340511957E+03  0.86407031919E+03  0.00000000000E+00 0. -1.
         -3    1    6    6    0  503  0.79282726183E+02  0.81338815450E+02 -0.17389241702E+03  0.20770249460E+03  0.00000000000E+00 0.  1.
<mgrwt>
<rscale>  0 0.19909884E+04</rscale>
<asrwt>0</asrwt>
<pdfrwt beam="1">  1        1 0.19809961E+00 0.19909884E+04</pdfrwt>
<pdfrwt beam="2">  1       -2 0.11840421E+00 0.19909884E+04</pdfrwt>
<totfact> 0.41280462E+00</totfact>
</mgrwt>
</event>
<event>
12    4  0.4207946E-008  0.2958693E+04  0.7818608E-02  0.8255626E-01
          1   -1    0    0  501    0  0.00000000000E+00  0.00000000000E+00  0.12541603468E+04  0.12541603468E+04  0.00000000000E+00 0. -1.
         -2   -1    0    0    0  501 -0.00000000000E+00 -0.00000000000E+00 -0.17449650935E+04  0.17449650935E+04  0.00000000000E+00 0.  1.
        -24    2    1    2    0    0 -0.10807239987E+04 -0.43402282632E+03  0.44816932050E+03  0.12506220668E+04  0.82822937172E+02 0.  0.
        254    2    1    2    0    0  0.10807239987E+04  0.43402282632E+03 -0.93897406720E+03  0.17485033735E+04  0.90512516991E+03 0.  0.
         23    2    4    4    0    0  0.68243442765E+03 -0.16141247380E+03 -0.67940461056E+03  0.98071314972E+03  0.91852721538E+02 0.  0.
         23    2    4    4    0    0  0.39828957104E+03  0.59543530012E+03 -0.25956945665E+03  0.76779022379E+03  0.94592525642E+02 0.  0.
          3    1    3    3  502    0 -0.74588606819E+03 -0.27587505542E+03  0.33945837836E+03  0.86468784169E+03  0.00000000000E+00 0. -1.
         -4    1    3    3    0  502 -0.33483793049E+03 -0.15814777091E+03  0.10871094214E+03  0.38593422507E+03  0.00000000000E+00 0.  1.
         11    1    5    5    0    0  0.18201323613E+03 -0.84944925708E+02 -0.20260092927E+03  0.28529212234E+03  0.00000000000E+00 0. -1.
        -11    1    5    5    0    0  0.50042119152E+03 -0.76467548087E+02 -0.47680368129E+03  0.69542102738E+03  0.00000000000E+00 0.  1.
          2    1    6    6  503    0  0.25675560431E+03  0.39799611927E+03 -0.21775997623E+03  0.52129047425E+03  0.00000000000E+00 0. -1.
         -2    1    6    6    0  503  0.14153396673E+03  0.19743918085E+03 -0.41809480416E+02  0.24649974955E+03  0.00000000000E+00 0.  1.
<mgrwt>
<rscale>  0 0.29586930E+04</rscale>
<asrwt>0</asrwt>
<pdfrwt beam="1">  1        1 0.19294774E+00 0.29586930E+04</pdfrwt>
<pdfrwt beam="2">  1       -2 0.26845617E+00 0.29586930E+04</pdfrwt>
<totfact> 0.36238522E-01</totfact>
</mgrwt>
</event>
<event>
12    4  0.4207946E-008  0.1488013E+04  0.7818608E-02  0.8892464E-01
         -2   -1    0    0    0  501 -0.00000000000E+00  0.00000000000E+00  0.23967542047E+03  0.23967542047E+03  0.00000000000E+00 0.  1.
          1   -1    0    0  501    0  0.00000000000E+00 -0.00000000000E+00 -0.23095632670E+04  0.23095632670E+04  0.00000000000E+00 0. -1.
        -24    2    1    2    0    0  0.36106890341E+03 -0.24546563276E+03 -0.93528985314E+03  0.10354939926E+04  0.82804404558E+02 0.  0.
        254    2    1    2    0    0 -0.36106890341E+03  0.24546563276E+03 -0.11345979934E+04  0.15137446949E+04  0.90193473423E+03 0.  0.
         23    2    4    4    0    0 -0.25152567612E+03  0.45683120642E+03 -0.23948540287E+03  0.58250121868E+03  0.99972469576E+02 0.  0.
         23    2    4    4    0    0 -0.10954322728E+03 -0.21136557366E+03 -0.89511259053E+03  0.93124347621E+03  0.96502527847E+02 0.  0.
          1    1    3    3  502    0  0.49202877161E+02 -0.67074879060E+02 -0.21602158679E+03  0.23148496383E+03  0.00000000000E+00 0. -1.
         -2    1    3    3    0  502  0.31186602624E+03 -0.17839075370E+03 -0.71926826636E+03  0.80400902876E+03  0.00000000000E+00 0.  1.
         11    1    5    5    0    0 -0.25477798277E+03  0.44632714461E+03 -0.21777069849E+03  0.55816110366E+03  0.00000000000E+00 0. -1.
        -11    1    5    5    0    0  0.32523066450E+01  0.10504061807E+02 -0.21714704380E+02  0.24340115022E+02  0.00000000000E+00 0.  1.
          1    1    6    6  503    0 -0.11688549202E+03 -0.20556023983E+03 -0.76307736971E+03  0.79887690078E+03  0.00000000000E+00 0. -1.
         -1    1    6    6    0  503  0.73422647323E+01 -0.58053338306E+01 -0.13203522082E+03  0.13236657542E+03  0.00000000000E+00 0.  1.
<mgrwt>
<rscale>  0 0.14880128E+04</rscale>
<asrwt>0</asrwt>
<pdfrwt beam="1">  1        1 0.35531743E+00 0.14880128E+04</pdfrwt>
<pdfrwt beam="2">  1       -2 0.36873141E-01 0.14880128E+04</pdfrwt>
<totfact> 0.10819576E+01</totfact>
</mgrwt>
</event>
<event>
12    4  0.4207946E-008  0.1407530E+04  0.7818608E-02  0.8948386E-01
          1   -1    0    0  501    0  0.00000000000E+00  0.00000000000E+00  0.10523873500E+04  0.10523873500E+04  0.00000000000E+00 0. -1.
         -2   -1    0    0    0  501 -0.00000000000E+00 -0.00000000000E+00 -0.47063027350E+03  0.47063027350E+03  0.00000000000E+00 0.  1.
        -24    2    1    2    0    0 -0.20564691295E+03 -0.17192659332E+03  0.50892569534E+03  0.58144237126E+03  0.84973298262E+02 0.  0.
        254    2    1    2    0    0  0.20564691295E+03  0.17192659332E+03  0.72831381132E+02  0.94157525222E+03  0.89967223988E+03 0.  0.
         23    2    4    4    0    0 -0.12506230889E+03 -0.28069138639E+03 -0.11816599518E+03  0.34224378660E+03  0.93484605963E+02 0.  0.
         23    2    4    4    0    0  0.33070922184E+03  0.45261797971E+03  0.19099737632E+03  0.59933146561E+03  0.92122651651E+02 0.  0.
          1    1    3    3  502    0 -0.19512351130E+03 -0.15122681765E+03  0.49789225477E+03  0.55573323852E+03  0.00000000000E+00 0. -1.
         -2    1    3    3    0  502 -0.10523401651E+02 -0.20699775673E+02  0.11033440573E+02  0.25709132737E+02  0.00000000000E+00 0.  1.
         11    1    5    5    0    0 -0.11329715534E+02  0.57439408876E+01 -0.77079977848E+01  0.14858281894E+02  0.00000000000E+00 0.  1.
        -11    1    5    5    0    0 -0.11373259336E+03 -0.28643532728E+03 -0.11045799740E+03  0.32738550471E+03  0.00000000000E+00 0. -1.
          4    1    6    6  503    0  0.34217071299E+02  0.10263475176E+03  0.52056598491E+02  0.12006077495E+03  0.00000000000E+00 0.  1.
         -4    1    6    6    0  503  0.29649215054E+03  0.34998322796E+03  0.13894077783E+03  0.47927069066E+03  0.00000000000E+00 0. -1.
<mgrwt>
<rscale>  0 0.14075302E+04</rscale>
<asrwt>0</asrwt>
<pdfrwt beam="1">  1        1 0.16190575E+00 0.14075302E+04</pdfrwt>
<pdfrwt beam="2">  1       -2 0.72404658E-01 0.14075302E+04</pdfrwt>
<totfact> 0.20325398E+01</totfact>
</mgrwt>
</event>
<event>
12    4  0.4207946E-008  0.1870452E+04  0.7818608E-02  0.8669706E-01
         -2   -1    0    0    0  501 -0.00000000000E+00  0.00000000000E+00  0.93840596006E+03  0.93840596006E+03  0.00000000000E+00 0.  1.
          1   -1    0    0  501    0  0.00000000000E+00 -0.00000000000E+00 -0.93205675458E+03  0.93205675458E+03  0.00000000000E+00 0. -1.
        -24    2    1    2    0    0 -0.24651400508E+03  0.38887333412E+03 -0.54116587044E+03  0.71504592131E+03  0.80240548144E+02 0.  0.
        254    2    1    2    0    0  0.24651400508E+03 -0.38887333412E+03  0.54751507592E+03  0.11554167933E+04  0.90731669403E+03 0.  0.
         23    2    4    4    0    0  0.76057615844E+02 -0.28220811841E+03 -0.20631569404E+03  0.37022622927E+03  0.95263383342E+02 0.  0.
         23    2    4    4    0    0  0.17045638923E+03 -0.10666521571E+03  0.75383076996E+03  0.78519056407E+03  0.88490356988E+02 0.  0.
          1    1    3    3  502    0 -0.11010983394E+03  0.16595694063E+03 -0.17460979718E+03  0.26486687778E+03  0.00000000000E+00 0. -1.
         -2    1    3    3    0  502 -0.13640417114E+03  0.22291639348E+03 -0.36655607327E+03  0.45017904353E+03  0.00000000000E+00 0.  1.
         11    1    5    5    0    0  0.58595155104E+02 -0.13579019282E+03 -0.15464397088E+03  0.21397926628E+03  0.00000000000E+00 0.  1.
        -11    1    5    5    0    0  0.17462460740E+02 -0.14641792559E+03 -0.51671723164E+02  0.15624696299E+03  0.00000000000E+00 0. -1.
          2    1    6    6  503    0  0.80526656047E+02 -0.39670175393E+01  0.22438782296E+03  0.23843274660E+03  0.00000000000E+00 0. -1.
         -2    1    6    6    0  503  0.89929733188E+02 -0.10269819817E+03  0.52944294701E+03  0.54675781746E+03  0.00000000000E+00 0.  1.
<mgrwt>
<rscale>  0 0.18704519E+04</rscale>
<asrwt>0</asrwt>
<pdfrwt beam="1">  1        1 0.14339335E+00 0.18704519E+04</pdfrwt>
<pdfrwt beam="2">  1       -2 0.14437015E+00 0.18704519E+04</pdfrwt>
<totfact> 0.46680043E+00</totfact>
</mgrwt>
</event>
<event>
12    4  0.4207946E-008  0.2919753E+04  0.7818608E-02  0.8267025E-01
          3   -1    0    0  501    0  0.00000000000E+00  0.00000000000E+00  0.75849273778E+03  0.75849273778E+03  0.00000000000E+00 0. -1.
         -4   -1    0    0    0  501 -0.00000000000E+00 -0.00000000000E+00 -0.28098350160E+04  0.28098350160E+04  0.00000000000E+00 0.  1.
        -24    2    1    2    0    0 -0.42269777766E+03 -0.58677039049E+03  0.41994695347E+03  0.84010952109E+03  0.80347130091E+02 0.  0.
        254    2    1    2    0    0  0.42269777766E+03  0.58677039049E+03 -0.24712892317E+04  0.27282182327E+04  0.90162706041E+03 0.  0.
         23    2    4    4    0    0  0.12118657328E+03  0.57511664146E+03 -0.65531667770E+03  0.88508797541E+03  0.92170707500E+02 0.  0.
         23    2    4    4    0    0  0.30151120438E+03  0.11653749026E+02 -0.18159725540E+04  0.18431302572E+04  0.91257943084E+02 0.  0.
          1    1    3    3  502    0 -0.35594782504E+03 -0.51381088269E+03  0.39015578735E+03  0.73683242038E+03  0.00000000000E+00 0. -1.
         -2    1    3    3    0  502 -0.66749952623E+02 -0.72959507801E+02  0.29791166116E+02  0.10327710072E+03  0.00000000000E+00 0.  1.
         11    1    5    5    0    0  0.79493703476E+02  0.17588383202E+03 -0.19580347498E+03  0.27494248866E+03  0.00000000000E+00 0. -1.
        -11    1    5    5    0    0  0.41692869799E+02  0.39923280945E+03 -0.45951320271E+03  0.61014548675E+03  0.00000000000E+00 0.  1.
          3    1    6    6  503    0  0.23906912256E+03  0.43017415019E+02 -0.14983564085E+04  0.15179184662E+04  0.00000000000E+00 0. -1.
         -3    1    6    6    0  503  0.62442081820E+02 -0.31363665993E+02 -0.31761614551E+03  0.32521179101E+03  0.00000000000E+00 0.  1.
<mgrwt>
<rscale>  0 0.29197530E+04</rscale>
<asrwt>0</asrwt>
<pdfrwt beam="1">  1        3 0.11669119E+00 0.29197530E+04</pdfrwt>
<pdfrwt beam="2">  1       -4 0.43228231E+00 0.29197530E+04</pdfrwt>
<totfact> 0.47322012E-03</totfact>
</mgrwt>
</event>
<event>
12    4  0.4207946E-008  0.2044168E+04  0.7818608E-02  0.8586244E-01
          1   -1    0    0  501    0  0.00000000000E+00  0.00000000000E+00  0.92124364111E+03  0.92124364111E+03  0.00000000000E+00 0. -1.
         -2   -1    0    0    0  501 -0.00000000000E+00 -0.00000000000E+00 -0.11339628968E+04  0.11339628968E+04  0.00000000000E+00 0.  1.
        -24    2    1    2    0    0  0.43111738969E+03 -0.35284736270E+03 -0.69483547901E+03  0.89439986723E+03  0.82409432396E+02 0.  0.
        254    2    1    2    0    0 -0.43111738969E+03  0.35284736270E+03  0.48211622335E+03  0.11608066706E+04  0.89703545566E+03 0.  0.
         23    2    4    4    0    0 -0.63233669834E+03  0.74423819494E+02  0.48457139366E+03  0.80562326258E+03  0.93972339934E+02 0.  0.
         23    2    4    4    0    0  0.20121930865E+03  0.27842354321E+03 -0.24551703049E+01  0.35518340806E+03  0.90223865545E+02 0.  0.
          3    1    3    3  502    0  0.53896107173E+02 -0.52157056194E+02 -0.54605616570E+02  0.92773499665E+02  0.00000000000E+00 0. -1.
         -4    1    3    3    0  502  0.37722128252E+03 -0.30069030651E+03 -0.64022986244E+03  0.80162636756E+03  0.00000000000E+00 0.  1.
         11    1    5    5    0    0 -0.83966738351E+02 -0.80554140643E+01  0.33366123691E+02  0.90711636823E+02  0.00000000000E+00 0.  1.
        -11    1    5    5    0    0 -0.54836995999E+03  0.82479233558E+02  0.45120526997E+03  0.71491162575E+03  0.00000000000E+00 0. -1.
          2    1    6    6  503    0  0.15379371336E+03  0.24255098905E+03  0.27659402193E+02  0.28852821541E+03  0.00000000000E+00 0. -1.
         -2    1    6    6    0  503  0.47425595290E+02  0.35872554157E+02 -0.30114572497E+02  0.66655192649E+02  0.00000000000E+00 0.  1.
<mgrwt>
<rscale>  0 0.20441684E+04</rscale>
<asrwt>0</asrwt>
<pdfrwt beam="1">  1        1 0.14172979E+00 0.20441684E+04</pdfrwt>
<pdfrwt beam="2">  1       -2 0.17445583E+00 0.20441684E+04</pdfrwt>
<totfact> 0.28063984E+00</totfact>
</mgrwt>
</event>
<event>
12    4  0.4207946E-008  0.1755687E+04  0.7818608E-02  0.8730226E-01
         -2   -1    0    0    0  501 -0.00000000000E+00  0.00000000000E+00  0.80000606927E+03  0.80000606927E+03  0.00000000000E+00 0.  1.
          1   -1    0    0  501    0  0.00000000000E+00 -0.00000000000E+00 -0.96325410820E+03  0.96325410820E+03  0.00000000000E+00 0. -1.
        -24    2    1    2    0    0 -0.45108289622E+03  0.44158640066E+03  0.99528692468E+02  0.64400282324E+03  0.79745515245E+02 0.  0.
        254    2    1    2    0    0  0.45108289622E+03 -0.44158640066E+03 -0.26277673140E+03  0.11192573542E+04  0.88612137200E+03 0.  0.
         23    2    4    4    0    0 -0.15726643950E+03 -0.41784694828E+03 -0.20632108963E+03  0.50065243528E+03  0.93571703749E+02 0.  0.
         23    2    4    4    0    0  0.60834933572E+03 -0.23739452381E+02 -0.56455641764E+02  0.61860491894E+03  0.93980478729E+02 0.  0.
          3    1    3    3  502    0 -0.23336328652E+03  0.22074226973E+03  0.90590744865E+02  0.33375478453E+03  0.00000000000E+00 0. -1.
         -4    1    3    3    0  502 -0.21771960970E+03  0.22084413093E+03  0.89379476026E+01  0.31024803871E+03  0.00000000000E+00 0.  1.
         11    1    5    5    0    0 -0.12342653971E+02 -0.43834063164E+02  0.74348426135E+01  0.46141554863E+02  0.00000000000E+00 0.  1.
        -11    1    5    5    0    0 -0.14492378553E+03 -0.37401288512E+03 -0.21375593225E+03  0.45451088042E+03  0.00000000000E+00 0. -1.
          2    1    6    6  503    0  0.52889616801E+02  0.43887892216E+01  0.20981697117E+02  0.57068420778E+02  0.00000000000E+00 0. -1.
         -2    1    6    6    0  503  0.55545971892E+03 -0.28128241603E+02 -0.77437338882E+02  0.56153649817E+03  0.00000000000E+00 0.  1.
<mgrwt>
<rscale>  0 0.17556869E+04</rscale>
<asrwt>0</asrwt>
<pdfrwt beam="1">  1        1 0.14819294E+00 0.17556869E+04</pdfrwt>
<pdfrwt beam="2">  1       -2 0.12307786E+00 0.17556869E+04</pdfrwt>
<totfact> 0.66938608E+00</totfact>
</mgrwt>
</event>
<event>
12    4  0.4207946E-008  0.1673863E+04  0.7818608E-02  0.8776413E-01
          1   -1    0    0  501    0  0.00000000000E+00  0.00000000000E+00  0.61027514295E+03  0.61027514295E+03  0.00000000000E+00 0. -1.
         -2   -1    0    0    0  501 -0.00000000000E+00 -0.00000000000E+00 -0.11477684924E+04  0.11477684924E+04  0.00000000000E+00 0.  1.
        -24    2    1    2    0    0 -0.27238309029E+03  0.24339088085E+03  0.29889042436E+03  0.47857028890E+03  0.79135117882E+02 0.  0.
        254    2    1    2    0    0  0.27238309029E+03 -0.24339088085E+03 -0.83638377377E+03  0.12794733464E+04  0.89670650627E+03 0.  0.
         23    2    4    4    0    0  0.58514167854E+03 -0.16503460248E+03 -0.41582977375E+03  0.74192577413E+03  0.88950826880E+02 0.  0.
         23    2    4    4    0    0 -0.31275858825E+03 -0.78356278374E+02 -0.42055400002E+03  0.53754757228E+03  0.90189160378E+02 0.  0.
          3    1    3    3  502    0 -0.17433877546E+03  0.16799640835E+03  0.24239768215E+03  0.34259807086E+03  0.00000000000E+00 0. -1.
         -4    1    3    3    0  502 -0.98044314830E+02  0.75394472505E+02  0.56492742209E+02  0.13597221803E+03  0.00000000000E+00 0.  1.
         11    1    5    5    0    0  0.31442263098E+03 -0.49780393851E+02 -0.18713690961E+03  0.36926941577E+03  0.00000000000E+00 0. -1.
        -11    1    5    5    0    0  0.27071904756E+03 -0.11525420863E+03 -0.22869286414E+03  0.37265635836E+03  0.00000000000E+00 0.  1.
          3    1    6    6  503    0 -0.21157878223E+02 -0.31883078785E+02 -0.34556358221E+02  0.51558979986E+02  0.00000000000E+00 0. -1.
         -3    1    6    6    0  503 -0.29160071002E+03 -0.46473199589E+02 -0.38599764179E+03  0.48598859229E+03  0.00000000000E+00 0.  1.
<mgrwt>
<rscale>  0 0.16738633E+04</rscale>
<asrwt>0</asrwt>
<pdfrwt beam="1">  1        1 0.93888483E-01 0.16738633E+04</pdfrwt>
<pdfrwt beam="2">  1       -2 0.17657977E+00 0.16738633E+04</pdfrwt>
<totfact> 0.53379561E+00</totfact>
</mgrwt>
</event>
<event>
12    4  0.4207946E-008  0.1586544E+04  0.7818608E-02  0.8828857E-01
          1   -1    0    0  501    0  0.00000000000E+00  0.00000000000E+00  0.60912941754E+03  0.60912941754E+03  0.00000000000E+00 0. -1.
         -2   -1    0    0    0  501 -0.00000000000E+00 -0.00000000000E+00 -0.10330818053E+04  0.10330818053E+04  0.00000000000E+00 0.  1.
        -24    2    1    2    0    0  0.11038879706E+01 -0.32412784703E+03  0.29517193451E+03  0.44561439761E+03  0.79910203661E+02 0.  0.
        254    2    1    2    0    0 -0.11038879706E+01  0.32412784703E+03 -0.71912432223E+03  0.11965968252E+04  0.89980225130E+03 0.  0.
         23    2    4    4    0    0 -0.20031942422E+03 -0.25328653825E+02  0.12882852562E+03  0.25456863561E+03  0.86249572748E+02 0.  0.
         23    2    4    4    0    0  0.19921553625E+03  0.34945650085E+03 -0.84795284785E+03  0.94202818958E+03  0.81156650417E+02 0.  0.
          1    1    3    3  502    0 -0.15608249202E+02 -0.17972573086E+03  0.21111611981E+03  0.27769582607E+03  0.00000000000E+00 0. -1.
         -2    1    3    3    0  502  0.16712137173E+02 -0.14440211617E+03  0.84055814709E+02  0.16791857154E+03  0.00000000000E+00 0.  1.
         11    1    5    5    0    0 -0.40098489682E+02  0.23257938626E+01 -0.92973497494E+01  0.41227889884E+02  0.00000000000E+00 0. -1.
        -11    1    5    5    0    0 -0.16022093454E+03 -0.27654447687E+02  0.13812587537E+03  0.21334074573E+03  0.00000000000E+00 0.  1.
          1    1    6    6  503    0  0.16629209668E+03  0.21826968295E+03 -0.59342447486E+03  0.65379455739E+03  0.00000000000E+00 0. -1.
         -1    1    6    6    0  503  0.32923439571E+02  0.13118681791E+03 -0.25452837300E+03  0.28823363219E+03  0.00000000000E+00 0.  1.
<mgrwt>
<rscale>  0 0.15865441E+04</rscale>
<asrwt>0</asrwt>
<pdfrwt beam="1">  1        1 0.93712220E-01 0.15865441E+04</pdfrwt>
<pdfrwt beam="2">  1       -2 0.15893566E+00 0.15865441E+04</pdfrwt>
<totfact> 0.72201828E+00</totfact>
</mgrwt>
</event>
<event>
12    4  0.4207946E-008  0.1040593E+04  0.7818608E-02  0.9265111E-01
          1   -1    0    0  501    0  0.00000000000E+00  0.00000000000E+00  0.15906849692E+04  0.15906849692E+04  0.00000000000E+00 0. -1.
         -2   -1    0    0    0  501 -0.00000000000E+00 -0.00000000000E+00 -0.17018347239E+03  0.17018347239E+03  0.00000000000E+00 0.  1.
        -24    2    1    2    0    0  0.10078442058E+03  0.52996493200E+02  0.29863594107E+03  0.33592911777E+03  0.10343509629E+03 0.  0.
        254    2    1    2    0    0 -0.10078442058E+03 -0.52996493200E+02  0.11218655558E+04  0.14249393239E+04  0.87115074683E+03 0.  0.
         23    2    4    4    0    0 -0.35397534819E+03 -0.30424559417E+03  0.43048254365E+03  0.64157289702E+03  0.91851146493E+02 0.  0.
         23    2    4    4    0    0  0.25319092761E+03  0.25124910097E+03  0.69138301215E+03  0.78336642684E+03  0.91764550091E+02 0.  0.
          1    1    3    3  502    0  0.94426973998E+02  0.31529606750E+02  0.29727287786E+03  0.31349917612E+03  0.00000000000E+00 0. -1.
         -2    1    3    3    0  502  0.63574465826E+01  0.21466886450E+02  0.13630632096E+01  0.22429941646E+02  0.00000000000E+00 0.  1.
         11    1    5    5    0    0 -0.23857476109E+02 -0.53926647905E+02  0.33676193723E+02  0.67906910872E+02  0.00000000000E+00 0.  1.
        -11    1    5    5    0    0 -0.33011787208E+03 -0.25031894627E+03  0.39680634992E+03  0.57366598615E+03  0.00000000000E+00 0. -1.
          2    1    6    6  503    0  0.24171901991E+03  0.21205356450E+03  0.55964778418E+03  0.64544592426E+03  0.00000000000E+00 0. -1.
         -2    1    6    6    0  503  0.11471907704E+02  0.39195536469E+02  0.13173522797E+03  0.13792050259E+03  0.00000000000E+00 0.  1.
<mgrwt>
<rscale>  0 0.10405927E+04</rscale>
<asrwt>0</asrwt>
<pdfrwt beam="1">  1        1 0.24472075E+00 0.10405927E+04</pdfrwt>
<pdfrwt beam="2">  1       -2 0.26182074E-01 0.10405927E+04</pdfrwt>
<totfact> 0.65583600E+01</totfact>
</mgrwt>
</event>
<event>
12    4  0.4207946E-008  0.2100286E+04  0.7818608E-02  0.8561118E-01
          1   -1    0    0  501    0  0.00000000000E+00  0.00000000000E+00  0.10067916571E+04  0.10067916571E+04  0.00000000000E+00 0. -1.
         -2   -1    0    0    0  501 -0.00000000000E+00 -0.00000000000E+00 -0.10953605154E+04  0.10953605154E+04  0.00000000000E+00 0.  1.
        -24    2    1    2    0    0 -0.65593404661E+03  0.10016817094E+03  0.49850141239E+03  0.83373459948E+03  0.79539853200E+02 0.  0.
        254    2    1    2    0    0  0.65593404661E+03 -0.10016817094E+03 -0.58707027062E+03  0.12684175730E+04  0.90771609045E+03 0.  0.
         23    2    4    4    0    0  0.64373553440E+03 -0.23828178388E+03 -0.76042199524E+03  0.10282700318E+04  0.89016856622E+02 0.  0.
         23    2    4    4    0    0  0.12198512207E+02  0.13811361294E+03  0.17335172461E+03  0.24014754115E+03  0.91628856347E+02 0.  0.
          3    1    3    3  502    0 -0.59228913531E+03  0.85776874654E+02  0.47609811426E+03  0.76474407905E+03  0.00000000000E+00 0. -1.
         -4    1    3    3    0  502 -0.63644911298E+02  0.14391296286E+02  0.22403298130E+02  0.68990520436E+02  0.00000000000E+00 0.  1.
         11    1    5    5    0    0  0.37566919485E+03 -0.92100477022E+02 -0.43051216782E+03  0.57874914122E+03  0.00000000000E+00 0. -1.
        -11    1    5    5    0    0  0.26806633956E+03 -0.14618130686E+03 -0.32990982742E+03  0.44952089062E+03  0.00000000000E+00 0.  1.
          3    1    6    6  503    0  0.18857073729E+02  0.15008965831E+03  0.16604537429E+03  0.22461870155E+03  0.00000000000E+00 0. -1.
         -3    1    6    6    0  503 -0.66585615222E+01 -0.11976045375E+02  0.73063503233E+01  0.15528839603E+02  0.00000000000E+00 0.  1.
<mgrwt>
<rscale>  0 0.21002855E+04</rscale>
<asrwt>0</asrwt>
<pdfrwt beam="1">  1        1 0.15489102E+00 0.21002855E+04</pdfrwt>
<pdfrwt beam="2">  1       -2 0.16851700E+00 0.21002855E+04</pdfrwt>
<totfact> 0.26316869E+00</totfact>
</mgrwt>
</event>
<event>
12    4  0.4207946E-008  0.2199448E+04  0.7818608E-02  0.8518658E-01
          1   -1    0    0  501    0  0.00000000000E+00  0.00000000000E+00  0.18591985674E+04  0.18591985674E+04  0.00000000000E+00 0. -1.
         -2   -1    0    0    0  501 -0.00000000000E+00 -0.00000000000E+00 -0.65049140563E+03  0.65049140563E+03  0.00000000000E+00 0.  1.
        -24    2    1    2    0    0 -0.53101441127E+03  0.29004339504E+02 -0.34425243078E+03  0.63863296828E+03  0.80776081773E+02 0.  0.
        254    2    1    2    0    0  0.53101441127E+03 -0.29004339504E+02  0.15529595925E+04  0.18710570047E+04  0.89797174911E+03 0.  0.
         23    2    4    4    0    0  0.16505683227E+03  0.40870598969E+03  0.84340045593E+03  0.95603017257E+03  0.91569743480E+02 0.  0.
         23    2    4    4    0    0  0.36595757900E+03 -0.43771032920E+03  0.70955913659E+03  0.91502683214E+03  0.91020070872E+02 0.  0.
          3    1    3    3  502    0 -0.89232992614E+02 -0.94830406747E+01 -0.91713804494E+02  0.12831164003E+03  0.00000000000E+00 0. -1.
         -4    1    3    3    0  502 -0.44178141865E+03  0.38487380179E+02 -0.25253862629E+03  0.51032132825E+03  0.00000000000E+00 0.  1.
         11    1    5    5    0    0  0.16200724421E+03  0.34343287374E+03  0.66140128512E+03  0.76265598136E+03  0.00000000000E+00 0.  1.
        -11    1    5    5    0    0  0.30495880601E+01  0.65273115950E+02  0.18199917081E+03  0.19337419121E+03  0.00000000000E+00 0. -1.
          3    1    6    6  503    0  0.19382321885E+03 -0.28369725054E+03  0.37644881932E+03  0.50967174112E+03  0.00000000000E+00 0. -1.
         -3    1    6    6    0  503  0.17213436015E+03 -0.15401307865E+03  0.33311031727E+03  0.40535509102E+03  0.00000000000E+00 0.  1.
<mgrwt>
<rscale>  0 0.21994478E+04</rscale>
<asrwt>0</asrwt>
<pdfrwt beam="1">  1        1 0.28603055E+00 0.21994478E+04</pdfrwt>
<pdfrwt beam="2">  1       -2 0.10007560E+00 0.21994478E+04</pdfrwt>
<totfact> 0.24520041E+00</totfact>
</mgrwt>
</event>
<event>
12    4  0.4207946E-008  0.1602798E+04  0.7818608E-02  0.8818831E-01
         -2   -1    0    0    0  501 -0.00000000000E+00  0.00000000000E+00  0.21986564121E+03  0.21986564121E+03  0.00000000000E+00 0.  1.
          1   -1    0    0  501    0  0.00000000000E+00 -0.00000000000E+00 -0.29210570286E+04  0.29210570286E+04  0.00000000000E+00 0. -1.
        -24    2    1    2    0    0 -0.34924781903E+03 -0.40711351105E+03 -0.85413337720E+03  0.10119063763E+04  0.81824436407E+02 0.  0.
        254    2    1    2    0    0  0.34924781903E+03  0.40711351105E+03 -0.18470580102E+04  0.21290162935E+04  0.91289190761E+03 0.  0.
         23    2    4    4    0    0 -0.47163559978E+02  0.59205241532E+03 -0.89460459446E+03  0.10777306099E+04  0.91844559554E+02 0.  0.
         23    2    4    4    0    0  0.39641137901E+03 -0.18493890427E+03 -0.95245341575E+03  0.10512856837E+04  0.81790584855E+02 0.  0.
          3    1    3    3  502    0 -0.10783877734E+03 -0.10563203425E+03 -0.30800116749E+03  0.34300444273E+03  0.00000000000E+00 0. -1.
         -4    1    3    3    0  502 -0.24140904169E+03 -0.30148147680E+03 -0.54613220971E+03  0.66890193358E+03  0.00000000000E+00 0.  1.
         11    1    5    5    0    0 -0.31592536685E+02  0.64674907188E+02 -0.84995155471E+02  0.11137822250E+03  0.00000000000E+00 0. -1.
        -11    1    5    5    0    0 -0.15571023292E+02  0.52737750813E+03 -0.80960943898E+03  0.96635238735E+03  0.00000000000E+00 0.  1.
          2    1    6    6  503    0  0.61390017948E+01 -0.14710911024E+01 -0.57547658805E+02  0.57892870771E+02  0.00000000000E+00 0. -1.
         -2    1    6    6    0  503  0.39027237721E+03 -0.18346781316E+03 -0.89490575694E+03  0.99339281288E+03  0.00000000000E+00 0.  1.
<mgrwt>
<rscale>  0 0.16027976E+04</rscale>
<asrwt>0</asrwt>
<pdfrwt beam="1">  1        1 0.44939337E+00 0.16027976E+04</pdfrwt>
<pdfrwt beam="2">  1       -2 0.33825485E-01 0.16027976E+04</pdfrwt>
<totfact> 0.47200647E+00</totfact>
</mgrwt>
</event>
<event>
12    4  0.4207946E-008  0.1086140E+04  0.7818608E-02  0.9218807E-01
         -2   -1    0    0    0  501 -0.00000000000E+00  0.00000000000E+00  0.35723582250E+03  0.35723582250E+03  0.00000000000E+00 0.  1.
          1   -1    0    0  501    0  0.00000000000E+00 -0.00000000000E+00 -0.82557532121E+03  0.82557532121E+03  0.00000000000E+00 0. -1.
        -24    2    1    2    0    0  0.14499790531E+03  0.22409200029E+02 -0.41271870672E+02  0.18124550281E+03  0.98081599647E+02 0.  0.
        254    2    1    2    0    0 -0.14499790531E+03 -0.22409200029E+02 -0.42706762804E+03  0.10015656409E+04  0.89399128034E+03 0.  0.
         23    2    4    4    0    0  0.29736949652E+03 -0.25141380977E+03 -0.19091792238E+03  0.44266806559E+03  0.88700856838E+02 0.  0.
         23    2    4    4    0    0 -0.44236740182E+03  0.22900460974E+03 -0.23614970565E+03  0.55889757531E+03  0.92020577733E+02 0.  0.
          1    1    3    3  502    0  0.47660640107E+02  0.26225370142E+01 -0.63520646624E+02  0.79456194619E+02  0.00000000000E+00 0. -1.
         -2    1    3    3    0  502  0.97337265198E+02  0.19786663015E+02  0.22248775952E+02  0.10178930819E+03  0.00000000000E+00 0.  1.
         11    1    5    5    0    0  0.18209532981E+03 -0.14873455614E+03 -0.66341898504E+02  0.24429884327E+03  0.00000000000E+00 0.  1.
        -11    1    5    5    0    0  0.11527416671E+03 -0.10267925363E+03 -0.12457602388E+03  0.19836922232E+03  0.00000000000E+00 0. -1.
          4    1    6    6  503    0 -0.36133050436E+02 -0.52081083686E+00 -0.42106340908E+00  0.36139256662E+02  0.00000000000E+00 0. -1.
         -4    1    6    6    0  503 -0.40623435139E+03  0.22952542058E+03 -0.23572864225E+03  0.52275831865E+03  0.00000000000E+00 0.  1.
<mgrwt>
<rscale>  0 0.10861401E+04</rscale>
<asrwt>0</asrwt>
<pdfrwt beam="1">  1        1 0.12701159E+00 0.10861401E+04</pdfrwt>
<pdfrwt beam="2">  1       -2 0.54959357E-01 0.10861401E+04</pdfrwt>
<totfact> 0.57180238E+01</totfact>
</mgrwt>
</event>
<event>
12    4  0.4207946E-008  0.2189151E+04  0.7818608E-02  0.8522957E-01
          1   -1    0    0  501    0  0.00000000000E+00  0.00000000000E+00  0.20913457361E+04  0.20913457361E+04  0.00000000000E+00 0. -1.
         -2   -1    0    0    0  501 -0.00000000000E+00 -0.00000000000E+00 -0.57288262842E+03  0.57288262842E+03  0.00000000000E+00 0.  1.
        -24    2    1    2    0    0  0.85356008475E+03 -0.23284472715E+03  0.85852400900E+03  0.12354458509E+04  0.80507709286E+02 0.  0.
        254    2    1    2    0    0 -0.85356008475E+03  0.23284472715E+03  0.65993909864E+03  0.14287825136E+04  0.90725871279E+03 0.  0.
         23    2    4    4    0    0 -0.99808730172E+03  0.34203756464E+03  0.50220205856E+03  0.11720237422E+04  0.90910874666E+02 0.  0.
         23    2    4    4    0    0  0.14452721697E+03 -0.10919283749E+03  0.15773704008E+03  0.25675877139E+03  0.90735333079E+02 0.  0.
          3    1    3    3  502    0  0.84569745780E+03 -0.23852468610E+03  0.84985603554E+03  0.12224375228E+04  0.00000000000E+00 0. -1.
         -4    1    3    3    0  502  0.78626269511E+01  0.56799589492E+01  0.86679734630E+01  0.13008328109E+02  0.00000000000E+00 0.  1.
         11    1    5    5    0    0 -0.70451949632E+03  0.21060152706E+03  0.31581986774E+03  0.80027677259E+03  0.00000000000E+00 0.  1.
        -11    1    5    5    0    0 -0.29356780540E+03  0.13143603758E+03  0.18638219081E+03  0.37174696958E+03  0.00000000000E+00 0. -1.
          1    1    6    6  503    0  0.33379351040E+02 -0.41586789452E+01 -0.43499791353E+01  0.33917517670E+02  0.00000000000E+00 0. -1.
         -1    1    6    6    0  503  0.11114786593E+03 -0.10503415855E+03  0.16208701921E+03  0.22284125372E+03  0.00000000000E+00 0.  1.
<mgrwt>
<rscale>  0 0.21891511E+04</rscale>
<asrwt>0</asrwt>
<pdfrwt beam="1">  1        1 0.32174550E+00 0.21891511E+04</pdfrwt>
<pdfrwt beam="2">  1       -2 0.88135790E-01 0.21891511E+04</pdfrwt>
<totfact> 0.22965865E+00</totfact>
</mgrwt>
</event>
<event>
12    4  0.4207946E-008  0.2067436E+04  0.7818608E-02  0.8575725E-01
         -2   -1    0    0    0  501 -0.00000000000E+00  0.00000000000E+00  0.65401842955E+03  0.65401842955E+03  0.00000000000E+00 0.  1.
          1   -1    0    0  501    0  0.00000000000E+00 -0.00000000000E+00 -0.16338572962E+04  0.16338572962E+04  0.00000000000E+00 0. -1.
        -24    2    1    2    0    0  0.46967605352E+03 -0.68758340233E+03 -0.27029255263E+03  0.87874830323E+03  0.75986748940E+02 0.  0.
        254    2    1    2    0    0 -0.46967605352E+03  0.68758340233E+03 -0.70954631399E+03  0.14091274225E+04  0.88815403545E+03 0.  0.
         23    2    4    4    0    0 -0.48223794947E+03  0.44737715677E+03 -0.10940816020E+02  0.66431781188E+03  0.92188358357E+02 0.  0.
         23    2    4    4    0    0  0.12561895945E+02  0.24020624555E+03 -0.69860549797E+03  0.74480961060E+03  0.93994003119E+02 0.  0.
          1    1    3    3  502    0  0.14684050230E+03 -0.15974235018E+03 -0.82566243806E+02  0.23215713681E+03  0.00000000000E+00 0. -1.
         -2    1    3    3    0  502  0.32283555123E+03 -0.52784105215E+03 -0.18772630882E+03  0.64659116642E+03  0.00000000000E+00 0.  1.
         11    1    5    5    0    0 -0.14188131614E+03  0.92143273910E+02  0.25108257237E+02  0.17102957457E+03  0.00000000000E+00 0. -1.
        -11    1    5    5    0    0 -0.34035663333E+03  0.35523388286E+03 -0.36049073256E+02  0.49328823731E+03  0.00000000000E+00 0.  1.
          1    1    6    6  503    0  0.12350416172E+02  0.16167000275E+03 -0.32694829133E+03  0.36494507500E+03  0.00000000000E+00 0. -1.
         -1    1    6    6    0  503  0.21147977243E+00  0.78536242806E+02 -0.37165720664E+03  0.37986453560E+03  0.00000000000E+00 0.  1.
<mgrwt>
<rscale>  0 0.20674359E+04</rscale>
<asrwt>0</asrwt>
<pdfrwt beam="1">  1        1 0.25136266E+00 0.20674359E+04</pdfrwt>
<pdfrwt beam="2">  1       -2 0.10061822E+00 0.20674359E+04</pdfrwt>
<totfact> 0.34861927E+00</totfact>
</mgrwt>
</event>
<event>
12    4  0.4207946E-008  0.1724445E+04  0.7818608E-02  0.8747544E-01
         -2   -1    0    0    0  501 -0.00000000000E+00  0.00000000000E+00  0.82025277954E+03  0.82025277954E+03  0.00000000000E+00 0.  1.
          1   -1    0    0  501    0  0.00000000000E+00 -0.00000000000E+00 -0.90633916870E+03  0.90633916870E+03  0.00000000000E+00 0. -1.
        -24    2    1    2    0    0 -0.10658484516E+03 -0.26844277436E+03 -0.55066438473E+03  0.62687055148E+03  0.79457984982E+02 0.  0.
        254    2    1    2    0    0  0.10658484516E+03  0.26844277436E+03  0.46457799557E+03  0.10997213968E+04  0.95400869189E+03 0.  0.
         23    2    4    4    0    0  0.49158907242E+03  0.21966959403E+03  0.43995641610E+03  0.70076344015E+03  0.87138994232E+02 0.  0.
         23    2    4    4    0    0 -0.38500422726E+03  0.48773180331E+02  0.24621579467E+02  0.39895795661E+03  0.89186046235E+02 0.  0.
          1    1    3    3  502    0 -0.20583696829E+02 -0.14134888914E+03 -0.21957976332E+03  0.26195127313E+03  0.00000000000E+00 0. -1.
         -2    1    3    3    0  502 -0.86001148331E+02 -0.12709388522E+03 -0.33108462141E+03  0.36491927835E+03  0.00000000000E+00 0.  1.
         11    1    5    5    0    0  0.17934732494E+03  0.12692967689E+03  0.17746774327E+03  0.28243832201E+03  0.00000000000E+00 0. -1.
        -11    1    5    5    0    0  0.31224174748E+03  0.92739917137E+02  0.26248867283E+03  0.41832511813E+03  0.00000000000E+00 0.  1.
          4    1    6    6  503    0 -0.18396168777E+03 -0.59522652099E+01 -0.22235932100E+02  0.18539624782E+03  0.00000000000E+00 0. -1.
         -4    1    6    6    0  503 -0.20104253949E+03  0.54725445541E+02  0.46857511567E+02  0.21356170880E+03  0.00000000000E+00 0.  1.
<mgrwt>
<rscale>  0 0.17244445E+04</rscale>
<asrwt>0</asrwt>
<pdfrwt beam="1">  1        1 0.13943680E+00 0.17244445E+04</pdfrwt>
<pdfrwt beam="2">  1       -2 0.12619274E+00 0.17244445E+04</pdfrwt>
<totfact> 0.70046804E+00</totfact>
</mgrwt>
</event>
<event>
12    4  0.4207946E-008  0.1377444E+04  0.7818608E-02  0.8970310E-01
          1   -1    0    0  501    0  0.00000000000E+00  0.00000000000E+00  0.15230454322E+04  0.15230454322E+04  0.00000000000E+00 0. -1.
         -2   -1    0    0    0  501 -0.00000000000E+00 -0.00000000000E+00 -0.31144040670E+03  0.31144040670E+03  0.00000000000E+00 0.  1.
        -24    2    1    2    0    0 -0.28567695762E+03 -0.10803566659E+03  0.52850545977E+02  0.32023645612E+03  0.80468492279E+02 0.  0.
        254    2    1    2    0    0  0.28567695762E+03  0.10803566659E+03  0.11587544795E+04  0.15142493828E+04  0.92571929874E+03 0.  0.
         23    2    4    4    0    0 -0.19245203512E+03 -0.85412366217E+01  0.94715041562E+03  0.97065777819E+03  0.89285351557E+02 0.  0.
         23    2    4    4    0    0  0.47812899274E+03  0.11657690321E+03  0.21160406392E+03  0.54359160460E+03  0.92293253625E+02 0.  0.
          1    1    3    3  502    0 -0.97815503509E+02 -0.59928387563E+02  0.52874712395E+02  0.12631318052E+03  0.00000000000E+00 0. -1.
         -2    1    3    3    0  502 -0.18786145411E+03 -0.48107279026E+02 -0.24166417728E-01  0.19392327560E+03  0.00000000000E+00 0.  1.
         11    1    5    5    0    0 -0.11801466397E+03  0.35291781867E+02  0.63144307747E+03  0.64334542111E+03  0.00000000000E+00 0.  1.
        -11    1    5    5    0    0 -0.74437371153E+02 -0.43833018489E+02  0.31570733815E+03  0.32731235708E+03  0.00000000000E+00 0. -1.
          3    1    6    6  503    0  0.26299760077E+03  0.11112855726E+03  0.11983760606E+03  0.30964228728E+03  0.00000000000E+00 0. -1.
         -3    1    6    6    0  503  0.21513139197E+03  0.54483459535E+01  0.91766457858E+02  0.23394931731E+03  0.00000000000E+00 0.  1.
<mgrwt>
<rscale>  0 0.13774438E+04</rscale>
<asrwt>0</asrwt>
<pdfrwt beam="1">  1        1 0.23431468E+00 0.13774438E+04</pdfrwt>
<pdfrwt beam="2">  1       -2 0.47913910E-01 0.13774438E+04</pdfrwt>
<totfact> 0.22303845E+01</totfact>
</mgrwt>
</event>
<event>
12    4  0.4207946E-008  0.2549524E+04  0.7818608E-02  0.8385552E-01
         -2   -1    0    0    0  501 -0.00000000000E+00  0.00000000000E+00  0.45192122014E+03  0.45192122014E+03  0.00000000000E+00 0.  1.
          1   -1    0    0  501    0  0.00000000000E+00 -0.00000000000E+00 -0.35958005615E+04  0.35958005615E+04  0.00000000000E+00 0. -1.
        -24    2    1    2    0    0  0.10345590055E+04 -0.45455082450E+03 -0.14665864631E+04  0.18531231468E+04  0.79124937280E+02 0.  0.
        254    2    1    2    0    0 -0.10345590055E+04  0.45455082450E+03 -0.16772928783E+04  0.21945986348E+04  0.85206982131E+03 0.  0.
         23    2    4    4    0    0 -0.96589879435E+03  0.24787107529E+02 -0.11591954548E+04  0.15118119457E+04  0.90919608808E+02 0.  0.
         23    2    4    4    0    0 -0.68660211164E+02  0.42976371697E+03 -0.51809742348E+03  0.68278668905E+03  0.91442033527E+02 0.  0.
          1    1    3    3  502    0  0.76047186479E+03 -0.33370473831E+03 -0.11333090239E+04  0.14050144672E+04  0.00000000000E+00 0. -1.
         -2    1    3    3    0  502  0.27408714073E+03 -0.12084608620E+03 -0.33327743916E+03  0.44810867958E+03  0.00000000000E+00 0.  1.
         11    1    5    5    0    0 -0.46591557300E+03  0.66529537539E+01 -0.62946160365E+03  0.78316249490E+03  0.00000000000E+00 0. -1.
        -11    1    5    5    0    0 -0.49998322136E+03  0.18134153775E+02 -0.52973385115E+03  0.72864945085E+03  0.00000000000E+00 0.  1.
          3    1    6    6  503    0  0.19405558037E+02  0.92790613830E+02 -0.87952207361E+02  0.12931459499E+03  0.00000000000E+00 0. -1.
         -3    1    6    6    0  503 -0.88065769201E+02  0.33697310314E+03 -0.43014521612E+03  0.55347209406E+03  0.00000000000E+00 0.  1.
<mgrwt>
<rscale>  0 0.25495243E+04</rscale>
<asrwt>0</asrwt>
<pdfrwt beam="1">  1        1 0.55320011E+00 0.25495243E+04</pdfrwt>
<pdfrwt beam="2">  1       -2 0.69526339E-01 0.25495243E+04</pdfrwt>
<totfact> 0.30797686E-01</totfact>
</mgrwt>
</event>
<event>
12    4  0.4207946E-008  0.1829324E+04  0.7818608E-02  0.8690859E-01
          1   -1    0    0  501    0  0.00000000000E+00  0.00000000000E+00  0.27031216510E+04  0.27031216510E+04  0.00000000000E+00 0. -1.
         -2   -1    0    0    0  501 -0.00000000000E+00 -0.00000000000E+00 -0.30949634443E+03  0.30949634443E+03  0.00000000000E+00 0.  1.
        -24    2    1    2    0    0 -0.36902376000E+02 -0.26749808578E+03 -0.13571114756E+03  0.31248137201E+03  0.79436018449E+02 0.  0.
        254    2    1    2    0    0  0.36902376000E+02  0.26749808578E+03  0.25293364541E+04  0.27001366234E+04  0.90569193204E+03 0.  0.
         23    2    4    4    0    0  0.11470705181E+03  0.29289181954E+03  0.25529633179E+04  0.25738492325E+04  0.90193368065E+02 0.  0.
         23    2    4    4    0    0 -0.77804675807E+02 -0.25393733754E+02 -0.23626863720E+02  0.12628739094E+03  0.93230183574E+02 0.  0.
          3    1    3    3  502    0  0.12469747935E+02 -0.19044919581E+02 -0.30812222226E+02  0.38309223614E+02  0.00000000000E+00 0. -1.
         -4    1    3    3    0  502 -0.49372123935E+02 -0.24845316620E+03 -0.10489892533E+03  0.27417214839E+03  0.00000000000E+00 0.  1.
         11    1    5    5    0    0  0.71786559120E+02  0.21323539946E+03  0.14708057245E+04  0.14879153622E+04  0.00000000000E+00 0.  1.
        -11    1    5    5    0    0  0.42920492687E+02  0.79656420075E+02  0.10821575933E+04  0.10859338704E+04  0.00000000000E+00 0. -1.
          3    1    6    6  503    0  0.15277738258E+02 -0.25028454537E+02  0.29861740377E+01  0.29474566293E+02  0.00000000000E+00 0. -1.
         -3    1    6    6    0  503 -0.93082414064E+02 -0.36527921640E+00 -0.26613037757E+02  0.96812824644E+02  0.00000000000E+00 0.  1.
<mgrwt>
<rscale>  0 0.18293237E+04</rscale>
<asrwt>0</asrwt>
<pdfrwt beam="1">  1        1 0.41586485E+00 0.18293237E+04</pdfrwt>
<pdfrwt beam="2">  1       -2 0.47614824E-01 0.18293237E+04</pdfrwt>
<totfact> 0.33795595E+00</totfact>
</mgrwt>
</event>
<event>
12    4  0.4817901E-008  0.1754295E+04  0.7818608E-02  0.8730990E-01
          1   -1    0    0  501    0  0.00000000000E+00  0.00000000000E+00  0.10496322649E+04  0.10496322649E+04  0.00000000000E+00 0. -1.
         -2   -1    0    0    0  501 -0.00000000000E+00 -0.00000000000E+00 -0.73300711006E+03  0.73300711006E+03  0.00000000000E+00 0.  1.
        -24    2    1    2    0    0 -0.32109217210E+03 -0.23177922515E+02 -0.45467434239E+03  0.56258978064E+03  0.78365200018E+02 0.  0.
        254    2    1    2    0    0  0.32109217210E+03  0.23177922515E+02  0.77129949718E+03  0.12200495943E+04  0.88880858405E+03 0.  0.
         23    2    4    4    0    0 -0.68125871706E+02 -0.36463633142E+03  0.24486288844E+03  0.45361847534E+03  0.90615111600E+02 0.  0.
         23    2    4    4    0    0  0.38921804380E+03  0.38781425393E+03  0.52643660874E+03  0.76643111894E+03  0.91600086669E+02 0.  0.
          3    1    3    3  502    0 -0.37758005811E+02 -0.15448430260E+02 -0.10383520730E+03  0.11156196160E+03  0.00000000000E+00 0. -1.
         -4    1    3    3    0  502 -0.28333416629E+03 -0.77294922549E+01 -0.35083913509E+03  0.45102781904E+03  0.00000000000E+00 0.  1.
         11    1    5    5    0    0 -0.25976470263E+02 -0.18399423829E+03  0.17545396146E+03  0.25556359154E+03  0.00000000000E+00 0.  1.
        -11    1    5    5    0    0 -0.42149401442E+02 -0.18064209313E+03  0.69408926981E+02  0.19805488380E+03  0.00000000000E+00 0. -1.
          2    1    6    6  503    0  0.25105834192E+02  0.27137735133E+02  0.88069386607E+01  0.38004233280E+02  0.00000000000E+00 0.  1.
         -2    1    6    6    0  503  0.36411220961E+03  0.36067651880E+03  0.51762967008E+03  0.72842688566E+03  0.00000000000E+00 0. -1.
<mgrwt>
<rscale>  0 0.17542952E+04</rscale>
<asrwt>0</asrwt>
<pdfrwt beam="1">  1        1 0.16148189E+00 0.17542952E+04</pdfrwt>
<pdfrwt beam="2">  1       -2 0.11277032E+00 0.17542952E+04</pdfrwt>
<totfact> 0.71136262E+00</totfact>
</mgrwt>
</event>
<event>
12    4  0.4207946E-008  0.1509861E+04  0.7818608E-02  0.8877922E-01
          1   -1    0    0  501    0  0.00000000000E+00  0.00000000000E+00  0.61842389373E+03  0.61842389373E+03  0.00000000000E+00 0. -1.
         -2   -1    0    0    0  501 -0.00000000000E+00 -0.00000000000E+00 -0.92156911883E+03  0.92156911883E+03  0.00000000000E+00 0.  1.
        -24    2    1    2    0    0 -0.25909815625E+02  0.22173751706E+03  0.33921233030E+03  0.41340954764E+03  0.77482927400E+02 0.  0.
        254    2    1    2    0    0  0.25909815625E+02 -0.22173751706E+03 -0.64235755539E+03  0.11265834649E+04  0.89818051050E+03 0.  0.
         23    2    4    4    0    0  0.31333347139E+03 -0.70300502257E+00  0.59747691883E+02  0.33111207122E+03  0.88809112768E+02 0.  0.
         23    2    4    4    0    0 -0.28742365577E+03 -0.22103451204E+03 -0.70210524727E+03  0.79547139370E+03  0.91402114508E+02 0.  0.
          3    1    3    3  502    0 -0.96083426964E+01  0.20882497679E+03  0.33005382062E+03  0.39068621128E+03  0.00000000000E+00 0. -1.
         -4    1    3    3    0  502 -0.16301472928E+02  0.12912540269E+02  0.91585096800E+01  0.22723336361E+02  0.00000000000E+00 0.  1.
         11    1    5    5    0    0  0.30928712082E+03 -0.97168828774E+01  0.69587508824E+02  0.31716771952E+03  0.00000000000E+00 0.  1.
        -11    1    5    5    0    0  0.40463505686E+01  0.90138778548E+01 -0.98398169413E+01  0.13944351700E+02  0.00000000000E+00 0. -1.
          2    1    6    6  503    0 -0.52964747727E+02 -0.34433895219E+02 -0.61110625659E+02  0.87894631294E+02  0.00000000000E+00 0. -1.
         -2    1    6    6    0  503 -0.23445890804E+03 -0.18660061682E+03 -0.64099462161E+03  0.70757676240E+03  0.00000000000E+00 0.  1.
<mgrwt>
<rscale>  0 0.15098614E+04</rscale>
<asrwt>0</asrwt>
<pdfrwt beam="1">  1        1 0.95142138E-01 0.15098614E+04</pdfrwt>
<pdfrwt beam="2">  1       -2 0.14177986E+00 0.15098614E+04</pdfrwt>
<totfact> 0.96300413E+00</totfact>
</mgrwt>
</event>
<event>
12    4  0.4293751E-008  0.2098596E+04  0.7818608E-02  0.8561862E-01
         -2   -1    0    0    0  501 -0.00000000000E+00  0.00000000000E+00  0.61385892729E+03  0.61385892729E+03  0.00000000000E+00 0.  1.
          1   -1    0    0  501    0  0.00000000000E+00 -0.00000000000E+00 -0.17936150361E+04  0.17936150361E+04  0.00000000000E+00 0. -1.
        -24    2    1    2    0    0 -0.34685133768E+03  0.43247973782E+03  0.26435883104E+03  0.61983086091E+03  0.83427396632E+02 0.  0.
        254    2    1    2    0    0  0.34685133768E+03 -0.43247973782E+03 -0.14441149398E+04  0.17876431025E+04  0.89602194632E+03 0.  0.
         23    2    4    4    0    0  0.10944500526E+02 -0.45753005417E+02 -0.12147280895E+04  0.12190088375E+04  0.90581978479E+02 0.  0.
         23    2    4    4    0    0  0.33590683716E+03 -0.38672673241E+03 -0.22938685035E+03  0.56863426501E+03  0.91299679216E+02 0.  0.
          3    1    3    3  502    0 -0.28893321438E+02  0.80410553040E+02  0.28757625177E+02  0.90153658105E+02  0.00000000000E+00 0. -1.
         -4    1    3    3    0  502 -0.31795801624E+03  0.35206918478E+03  0.23560120586E+03  0.52967720281E+03  0.00000000000E+00 0.  1.
         11    1    5    5    0    0  0.96130247569E+01 -0.29296965699E+02 -0.11226974039E+03  0.11642687426E+03  0.00000000000E+00 0.  1.
        -11    1    5    5    0    0  0.13314757686E+01 -0.16456039718E+02 -0.11024583491E+04  0.11025819632E+04  0.00000000000E+00 0. -1.
          4    1    6    6  503    0  0.27705410555E+03 -0.33100051450E+03 -0.15503282651E+03  0.45864528265E+03  0.00000000000E+00 0. -1.
         -4    1    6    6    0  503  0.58852731602E+02 -0.55726217906E+02 -0.74354023838E+02  0.10998898236E+03  0.00000000000E+00 0.  1.
<mgrwt>
<rscale>  0 0.20985963E+04</rscale>
<asrwt>0</asrwt>
<pdfrwt beam="1">  1        1 0.27594077E+00 0.20985963E+04</pdfrwt>
<pdfrwt beam="2">  1       -2 0.94439836E-01 0.20985963E+04</pdfrwt>
<totfact> 0.31407428E+00</totfact>
</mgrwt>
</event>
<event>
12    4  0.4207946E-008  0.1293588E+04  0.7818608E-02  0.9034665E-01
         -2   -1    0    0    0  501 -0.00000000000E+00  0.00000000000E+00  0.70013127600E+03  0.70013127600E+03  0.00000000000E+00 0.  1.
          1   -1    0    0  501    0  0.00000000000E+00 -0.00000000000E+00 -0.59752029865E+03  0.59752029865E+03  0.00000000000E+00 0. -1.
        -24    2    1    2    0    0 -0.56489141867E+02 -0.19097860824E+03  0.28688847167E+03  0.36007150229E+03  0.87650668153E+02 0.  0.
        254    2    1    2    0    0  0.56489141867E+02  0.19097860824E+03 -0.18427749433E+03  0.93758007237E+03  0.89745994074E+03 0.  0.
         23    2    4    4    0    0  0.45528580828E+02  0.47678648771E+03 -0.34442623127E+03  0.59687674838E+03  0.90742588886E+02 0.  0.
         23    2    4    4    0    0  0.10960561040E+02 -0.28580787947E+03  0.16014873695E+03  0.34070332398E+03  0.92870119857E+02 0.  0.
          3    1    3    3  502    0  0.21092623355E+02 -0.17094724472E+02  0.38007571884E+02  0.46708713162E+02  0.00000000000E+00 0. -1.
         -4    1    3    3    0  502 -0.77581765223E+02 -0.17388388377E+03  0.24888089979E+03  0.31336278913E+03  0.00000000000E+00 0.  1.
         11    1    5    5    0    0  0.56921534383E+02  0.25112334382E+03 -0.14504298816E+03  0.29553419988E+03  0.00000000000E+00 0.  1.
        -11    1    5    5    0    0 -0.11392953556E+02  0.22566314389E+03 -0.19938324312E+03  0.30134254850E+03  0.00000000000E+00 0. -1.
          2    1    6    6  503    0  0.23679102224E+02 -0.20845438506E+02  0.35861561827E+02  0.47762786825E+02  0.00000000000E+00 0.  1.
         -2    1    6    6    0  503 -0.12718541184E+02 -0.26496244096E+03  0.12428717512E+03  0.29294053716E+03  0.00000000000E+00 0. -1.
<mgrwt>
<rscale>  0 0.12935883E+04</rscale>
<asrwt>0</asrwt>
<pdfrwt beam="1">  1        1 0.91926200E-01 0.12935883E+04</pdfrwt>
<pdfrwt beam="2">  1       -2 0.10771250E+00 0.12935883E+04</pdfrwt>
<totfact> 0.20488137E+01</totfact>
</mgrwt>
</event>
<event>
12    4  0.4207946E-008  0.1233228E+04  0.7818608E-02  0.9084259E-01
         -2   -1    0    0    0  501 -0.00000000000E+00  0.00000000000E+00  0.13679654777E+04  0.13679654777E+04  0.00000000000E+00 0.  1.
          1   -1    0    0  501    0  0.00000000000E+00 -0.00000000000E+00 -0.27794040956E+03  0.27794040956E+03  0.00000000000E+00 0. -1.
        -24    2    1    2    0    0  0.17137459404E+03 -0.19108055771E+03  0.10544265526E+03  0.28838312708E+03  0.78521611141E+02 0.  0.
        254    2    1    2    0    0 -0.17137459404E+03  0.19108055771E+03  0.98458241288E+03  0.13575227602E+04  0.89865704562E+03 0.  0.
         23    2    4    4    0    0 -0.13161878150E+03  0.46658900652E+03  0.94001068548E+03  0.10614926588E+04  0.90098674466E+02 0.  0.
         23    2    4    4    0    0 -0.39755812544E+02 -0.27550844881E+03  0.44571727407E+02  0.29603010143E+03  0.90342415674E+02 0.  0.
          3    1    3    3  502    0  0.15959265274E+03 -0.19825275517E+03  0.98118064366E+02  0.27276569487E+03  0.00000000000E+00 0. -1.
         -4    1    3    3    0  502  0.11781941296E+02  0.71721974554E+01  0.73245908956E+01  0.15617432210E+02  0.00000000000E+00 0.  1.
         11    1    5    5    0    0 -0.60766271190E+02  0.20876142393E+03  0.32678526534E+03  0.39250793811E+03  0.00000000000E+00 0. -1.
        -11    1    5    5    0    0 -0.70852510306E+02  0.25782758259E+03  0.61322542014E+03  0.66898472065E+03  0.00000000000E+00 0.  1.
          1    1    6    6  503    0 -0.34015500883E+01  0.28144616288E+01  0.12812616138E+02  0.13551932319E+02  0.00000000000E+00 0. -1.
         -1    1    6    6    0  503 -0.36354262456E+02 -0.27832291044E+03  0.31759111268E+02  0.28247816911E+03  0.00000000000E+00 0.  1.
<mgrwt>
<rscale>  0 0.12332281E+04</rscale>
<asrwt>0</asrwt>
<pdfrwt beam="1">  1        1 0.42760064E-01 0.12332281E+04</pdfrwt>
<pdfrwt beam="2">  1       -2 0.21045622E+00 0.12332281E+04</pdfrwt>
<totfact> 0.94895906E+00</totfact>
</mgrwt>
</event>
<event>
12    4  0.4207946E-008  0.1929667E+04  0.7818608E-02  0.8640228E-01
          1   -1    0    0  501    0  0.00000000000E+00  0.00000000000E+00  0.10509132058E+04  0.10509132058E+04  0.00000000000E+00 0. -1.
         -2   -1    0    0    0  501 -0.00000000000E+00 -0.00000000000E+00 -0.88580485559E+03  0.88580485559E+03  0.00000000000E+00 0.  1.
        -24    2    1    2    0    0 -0.50026664065E+02 -0.98087346533E+02 -0.68290851903E+03  0.69874270323E+03  0.98759937643E+02 0.  0.
        254    2    1    2    0    0  0.50026664065E+02  0.98087346533E+02  0.84801686924E+03  0.12379753582E+04  0.89516846584E+03 0.  0.
         23    2    4    4    0    0  0.21135024981E+03 -0.16230420449E+03 -0.48659624787E+02  0.28584141284E+03  0.91246760593E+02 0.  0.
         23    2    4    4    0    0 -0.16132358575E+03  0.26039155102E+03  0.89667649403E+03  0.95213394532E+03  0.93280521713E+02 0.  0.
          3    1    3    3  502    0 -0.51822218147E+02 -0.22901926058E+02 -0.14626586269E+03  0.15685580352E+03  0.00000000000E+00 0. -1.
         -4    1    3    3    0  502  0.17955540813E+01 -0.75185420475E+02 -0.53664265635E+03  0.54188689971E+03  0.00000000000E+00 0.  1.
         11    1    5    5    0    0  0.10797127641E+03 -0.30277882855E+02 -0.35587923317E+02  0.11764797918E+03  0.00000000000E+00 0. -1.
        -11    1    5    5    0    0  0.10337897341E+03 -0.13202632163E+03 -0.13071701470E+02  0.16819343366E+03  0.00000000000E+00 0.  1.
          4    1    6    6  503    0 -0.14882791830E+03  0.24768436080E+03  0.88461780012E+03  0.93061589506E+03  0.00000000000E+00 0. -1.
         -4    1    6    6    0  503 -0.12495667448E+02  0.12707190225E+02  0.12058693911E+02  0.21518050265E+02  0.00000000000E+00 0.  1.
<mgrwt>
<rscale>  0 0.19296674E+04</rscale>
<asrwt>0</asrwt>
<pdfrwt beam="1">  1        1 0.16167896E+00 0.19296674E+04</pdfrwt>
<pdfrwt beam="2">  1       -2 0.13627767E+00 0.19296674E+04</pdfrwt>
<totfact> 0.43538327E+00</totfact>
</mgrwt>
</event>
<event>
12    4  0.4274487E-008  0.1818346E+04  0.7818608E-02  0.8696604E-01
         -2   -1    0    0    0  501 -0.00000000000E+00  0.00000000000E+00  0.14071949892E+04  0.14071949892E+04  0.00000000000E+00 0.  1.
          1   -1    0    0  501    0  0.00000000000E+00 -0.00000000000E+00 -0.58740674148E+03  0.58740674148E+03  0.00000000000E+00 0. -1.
        -24    2    1    2    0    0  0.35932178103E+03 -0.44294934225E+03  0.71513518951E+03  0.91841513747E+03  0.82169114278E+02 0.  0.
        254    2    1    2    0    0 -0.35932178103E+03  0.44294934225E+03  0.10465305817E+03  0.10761865932E+04  0.90659200228E+03 0.  0.
         23    2    4    4    0    0 -0.12886375952E+02  0.64662497020E+03  0.11970359246E+03  0.66399761298E+03  0.90961361186E+02 0.  0.
         23    2    4    4    0    0 -0.34643540508E+03 -0.20367562795E+03 -0.15050534285E+02  0.41218898018E+03  0.90399034780E+02 0.  0.
          3    1    3    3  502    0  0.23596829931E+00 -0.10414559428E+02  0.24549704595E+01  0.10702598240E+02  0.00000000000E+00 0. -1.
         -4    1    3    3    0  502  0.35908581273E+03 -0.43253478282E+03  0.71268021905E+03  0.90771253923E+03  0.00000000000E+00 0.  1.
         11    1    5    5    0    0 -0.18599987623E+02  0.30280435716E+02 -0.25169894456E+01  0.35625827185E+02  0.00000000000E+00 0.  1.
        -11    1    5    5    0    0  0.57136116712E+01  0.61634453448E+03  0.12222058190E+03  0.62837178580E+03  0.00000000000E+00 0. -1.
          4    1    6    6  503    0 -0.10718802045E+02  0.15696560020E+01  0.13919097220E+02  0.17637964867E+02  0.00000000000E+00 0.  1.
         -4    1    6    6    0  503 -0.33571660303E+03 -0.20524528395E+03 -0.28969631504E+02  0.39455101531E+03  0.00000000000E+00 0. -1.
<mgrwt>
<rscale>  0 0.18183463E+04</rscale>
<asrwt>0</asrwt>
<pdfrwt beam="1">  1        1 0.90370269E-01 0.18183463E+04</pdfrwt>
<pdfrwt beam="2">  1       -2 0.21649154E+00 0.18183463E+04</pdfrwt>
<totfact> 0.30282289E+00</totfact>
</mgrwt>
</event>
<event>
12    4  0.4207946E-008  0.1612863E+04  0.7818608E-02  0.8812685E-01
          1   -1    0    0  501    0  0.00000000000E+00  0.00000000000E+00  0.16283820995E+04  0.16283820995E+04  0.00000000000E+00 0. -1.
         -2   -1    0    0    0  501 -0.00000000000E+00 -0.00000000000E+00 -0.39937287173E+03  0.39937287173E+03  0.00000000000E+00 0.  1.
        -24    2    1    2    0    0  0.35828711414E+03  0.42662521179E+03  0.20074006256E+03  0.59768561723E+03  0.80949347322E+02 0.  0.
        254    2    1    2    0    0 -0.35828711414E+03 -0.42662521179E+03  0.10282691652E+04  0.14300693540E+04  0.82303229199E+03 0.  0.
         23    2    4    4    0    0  0.14114785537E+03  0.14902210095E+03  0.21951281179E+03  0.31528247408E+03  0.95325024398E+02 0.  0.
         23    2    4    4    0    0 -0.49943496951E+03 -0.57564731274E+03  0.80875635342E+03  0.11147868799E+04  0.88644407759E+02 0.  0.
          3    1    3    3  502    0  0.11822561981E+02  0.18834683547E+02  0.27234344253E+02  0.35160031044E+02  0.00000000000E+00 0. -1.
         -4    1    3    3    0  502  0.34646455216E+03  0.40779052825E+03  0.17350571831E+03  0.56252558619E+03  0.00000000000E+00 0.  1.
         11    1    5    5    0    0  0.48316887510E+02  0.92510753123E+02  0.54621373515E+02  0.11779751910E+03  0.00000000000E+00 0.  1.
        -11    1    5    5    0    0  0.92830967863E+02  0.56511347826E+02  0.16489143827E+03  0.19748495498E+03  0.00000000000E+00 0. -1.
          3    1    6    6  503    0 -0.26104273387E+03 -0.23351418293E+03  0.37030226618E+03  0.50970182546E+03  0.00000000000E+00 0. -1.
         -3    1    6    6    0  503 -0.23839223564E+03 -0.34213312981E+03  0.43845408724E+03  0.60508505447E+03  0.00000000000E+00 0.  1.
<mgrwt>
<rscale>  0 0.16128628E+04</rscale>
<asrwt>0</asrwt>
<pdfrwt beam="1">  1        1 0.25052032E+00 0.16128628E+04</pdfrwt>
<pdfrwt beam="2">  1       -2 0.61441981E-01 0.16128628E+04</pdfrwt>
<totfact> 0.11052889E+01</totfact>
</mgrwt>
</event>
<event>
12    4  0.4207946E-008  0.2231004E+04  0.7818608E-02  0.8505633E-01
          1   -1    0    0  501    0  0.00000000000E+00  0.00000000000E+00  0.16697433814E+04  0.16697433814E+04  0.00000000000E+00 0. -1.
         -2   -1    0    0    0  501 -0.00000000000E+00 -0.00000000000E+00 -0.74523123350E+03  0.74523123350E+03  0.00000000000E+00 0.  1.
        -24    2    1    2    0    0  0.49325609697E+03 -0.24522470761E+03 -0.41569196687E+03  0.69466966494E+03  0.79557511516E+02 0.  0.
        254    2    1    2    0    0 -0.49325609697E+03  0.24522470761E+03  0.13402041147E+04  0.17203049499E+04  0.92728923059E+03 0.  0.
         23    2    4    4    0    0 -0.73256847874E+03  0.23887836991E+03  0.75901490172E+03  0.10854403369E+04  0.91420196497E+02 0.  0.
         23    2    4    4    0    0  0.23931238177E+03  0.63463376944E+01  0.58118921300E+03  0.63486461300E+03  0.89227145279E+02 0.  0.
          1    1    3    3  502    0  0.23224935737E+03 -0.10726388900E+03 -0.24194667682E+03  0.35211290846E+03  0.00000000000E+00 0. -1.
         -2    1    3    3    0  502  0.26100673961E+03 -0.13796081861E+03 -0.17374529005E+03  0.34255675647E+03  0.00000000000E+00 0.  1.
         11    1    5    5    0    0 -0.56664118983E+03  0.19511383759E+03  0.53579230382E+03  0.80388123530E+03  0.00000000000E+00 0. -1.
        -11    1    5    5    0    0 -0.16592728892E+03  0.43764532321E+02  0.22322259790E+03  0.28155910163E+03  0.00000000000E+00 0.  1.
          1    1    6    6  503    0  0.17777992681E+03 -0.12027137363E+02  0.32384871980E+03  0.36963272004E+03  0.00000000000E+00 0. -1.
         -1    1    6    6    0  503  0.61532454962E+02  0.18373475057E+02  0.25734049320E+03  0.26523189296E+03  0.00000000000E+00 0.  1.
<mgrwt>
<rscale>  0 0.22310042E+04</rscale>
<asrwt>0</asrwt>
<pdfrwt beam="1">  1        1 0.25688360E+00 0.22310042E+04</pdfrwt>
<pdfrwt beam="2">  1       -2 0.11465096E+00 0.22310042E+04</pdfrwt>
<totfact> 0.23708966E+00</totfact>
</mgrwt>
</event>
<event>
12    4  0.4207946E-008  0.2742623E+04  0.7818608E-02  0.8321306E-01
         -2   -1    0    0    0  501 -0.00000000000E+00  0.00000000000E+00  0.13826202634E+04  0.13826202634E+04  0.00000000000E+00 0.  1.
          1   -1    0    0  501    0  0.00000000000E+00 -0.00000000000E+00 -0.13600954385E+04  0.13600954385E+04  0.00000000000E+00 0. -1.
        -24    2    1    2    0    0 -0.11168472652E+04 -0.46918457615E+03  0.32524442905E+02  0.12144898648E+04  0.80285815588E+02 0.  0.
        254    2    1    2    0    0  0.11168472652E+04  0.46918457615E+03 -0.99996180153E+01  0.15282258371E+04  0.93160734040E+03 0.  0.
         23    2    4    4    0    0  0.19184942213E+03  0.26799710850E+03 -0.37734964203E+03  0.50879062283E+03  0.88580441444E+02 0.  0.
         23    2    4    4    0    0  0.92499784304E+03  0.20118746765E+03  0.36735002401E+03  0.10194352143E+04  0.90579850057E+02 0.  0.
          1    1    3    3  502    0 -0.10846496806E+04 -0.44982427115E+03  0.18452647155E+02  0.11743710251E+04  0.00000000000E+00 0. -1.
         -2    1    3    3    0  502 -0.32197584611E+02 -0.19360305001E+02  0.14071795750E+02  0.40118839716E+02  0.00000000000E+00 0.  1.
         11    1    5    5    0    0  0.20088657388E+03  0.26235382658E+03 -0.36232426340E+03  0.49037110205E+03  0.00000000000E+00 0. -1.
        -11    1    5    5    0    0 -0.90371517482E+01  0.56432819178E+01 -0.15025378635E+02  0.18419520777E+02  0.00000000000E+00 0.  1.
          4    1    6    6  503    0  0.25735866852E+03  0.39609342207E+02  0.61752724805E+02  0.26761125401E+03  0.00000000000E+00 0.  1.
         -4    1    6    6    0  503  0.66763917452E+03  0.16157812544E+03  0.30559729921E+03  0.75182396028E+03  0.00000000000E+00 0. -1.
<mgrwt>
<rscale>  0 0.27426232E+04</rscale>
<asrwt>0</asrwt>
<pdfrwt beam="1">  1        1 0.20924545E+00 0.27426232E+04</pdfrwt>
<pdfrwt beam="2">  1       -2 0.21271081E+00 0.27426232E+04</pdfrwt>
<totfact> 0.68872453E-01</totfact>
</mgrwt>
</event>
<event>
12    4  0.4207946E-008  0.1168478E+04  0.7818608E-02  0.9140904E-01
         -2   -1    0    0    0  501 -0.00000000000E+00  0.00000000000E+00  0.20655725928E+03  0.20655725928E+03  0.00000000000E+00 0.  1.
          1   -1    0    0  501    0  0.00000000000E+00 -0.00000000000E+00 -0.16524959711E+04  0.16524959711E+04  0.00000000000E+00 0. -1.
        -24    2    1    2    0    0 -0.79087805180E+01 -0.31839637929E+02 -0.65792152698E+03  0.66330236080E+03  0.77672226818E+02 0.  0.
        254    2    1    2    0    0  0.79087805180E+01  0.31839637929E+02 -0.78801718488E+03  0.11957508696E+04  0.89876178557E+03 0.  0.
         23    2    4    4    0    0 -0.11188330313E+03  0.16342716506E+03 -0.92714875968E+03  0.95275124337E+03  0.94359935251E+02 0.  0.
         23    2    4    4    0    0  0.11979208365E+03 -0.13158752713E+03  0.13913157479E+03  0.24299962626E+03  0.89586844211E+02 0.  0.
          1    1    3    3  502    0 -0.81732424256E+00 -0.57486612346E+02 -0.42712803207E+03  0.43097996983E+03  0.00000000000E+00 0. -1.
         -2    1    3    3    0  502 -0.70914562755E+01  0.25646974417E+02 -0.23079349491E+03  0.23232239097E+03  0.00000000000E+00 0.  1.
         11    1    5    5    0    0 -0.84404378346E+02  0.62037190898E+02 -0.60226163657E+03  0.61130335433E+03  0.00000000000E+00 0.  1.
        -11    1    5    5    0    0 -0.27478924788E+02  0.10138997416E+03 -0.32488712311E+03  0.34144788904E+03  0.00000000000E+00 0. -1.
          3    1    6    6  503    0  0.14163397831E+02  0.25909516243E+01  0.46601775931E+02  0.48775407618E+02  0.00000000000E+00 0. -1.
         -3    1    6    6    0  503  0.10562868582E+03 -0.13417847875E+03  0.92529798863E+02  0.19422421864E+03  0.00000000000E+00 0.  1.
<mgrwt>
<rscale>  0 0.11684777E+04</rscale>
<asrwt>0</asrwt>
<pdfrwt beam="1">  1        1 0.25423015E+00 0.11684777E+04</pdfrwt>
<pdfrwt beam="2">  1       -2 0.31778040E-01 0.11684777E+04</pdfrwt>
<totfact> 0.41165006E+01</totfact>
</mgrwt>
</event>
<event>
12    4  0.4207946E-008  0.1287359E+04  0.7818608E-02  0.9039650E-01
         -2   -1    0    0    0  501 -0.00000000000E+00  0.00000000000E+00  0.47057143973E+03  0.47057143973E+03  0.00000000000E+00 0.  1.
          1   -1    0    0  501    0  0.00000000000E+00 -0.00000000000E+00 -0.88046906626E+03  0.88046906626E+03  0.00000000000E+00 0. -1.
        -24    2    1    2    0    0 -0.12644775904E+03 -0.27859513481E+03 -0.11970432640E+03  0.33796202040E+03  0.79277465699E+02 0.  0.
        254    2    1    2    0    0  0.12644775904E+03  0.27859513481E+03 -0.29019330013E+03  0.10130784856E+04  0.92114688385E+03 0.  0.
         23    2    4    4    0    0  0.30813041802E+02  0.29750051172E+03  0.28514352024E+03  0.42259532031E+03  0.88453262192E+02 0.  0.
         23    2    4    4    0    0  0.95634717242E+02 -0.18905376913E+02 -0.57533682037E+03  0.59048316529E+03  0.90302265750E+02 0.  0.
          3    1    3    3  502    0 -0.32377038961E+02 -0.90486674188E+02 -0.28627855175E+00  0.96105113354E+02  0.00000000000E+00 0. -1.
         -4    1    3    3    0  502 -0.94070720083E+02 -0.18810846062E+03 -0.11941804784E+03  0.24185690704E+03  0.00000000000E+00 0.  1.
         11    1    5    5    0    0  0.36809938364E+02  0.40841808672E+02  0.55979333990E+02  0.78464710105E+02  0.00000000000E+00 0. -1.
        -11    1    5    5    0    0 -0.59968965621E+01  0.25665870305E+03  0.22916418625E+03  0.34413061020E+03  0.00000000000E+00 0.  1.
          3    1    6    6  503    0  0.32796417004E+02 -0.50080107523E+02 -0.20500732624E+03  0.21356878505E+03  0.00000000000E+00 0.  1.
         -3    1    6    6    0  503  0.62838300238E+02  0.31174730610E+02 -0.37032949413E+03  0.37691438024E+03  0.00000000000E+00 0. -1.
<mgrwt>
<rscale>  0 0.12873595E+04</rscale>
<asrwt>0</asrwt>
<pdfrwt beam="1">  1        1 0.13545678E+00 0.12873595E+04</pdfrwt>
<pdfrwt beam="2">  1       -2 0.72395606E-01 0.12873595E+04</pdfrwt>
<totfact> 0.28106780E+01</totfact>
</mgrwt>
</event>
<event>
12    4  0.4207946E-008  0.4296197E+04  0.7818608E-02  0.7947322E-01
          1   -1    0    0  501    0  0.00000000000E+00  0.00000000000E+00  0.19792399622E+04  0.19792399622E+04  0.00000000000E+00 0. -1.
         -2   -1    0    0    0  501 -0.00000000000E+00 -0.00000000000E+00 -0.23313629146E+04  0.23313629146E+04  0.00000000000E+00 0.  1.
        -24    2    1    2    0    0 -0.90137044657E+03 -0.11901786638E+04  0.12461742949E+04  0.19463443591E+04  0.79448457323E+02 0.  0.
        254    2    1    2    0    0  0.90137044657E+03  0.11901786638E+04 -0.15982972473E+04  0.23642585176E+04  0.89786987567E+03 0.  0.
         23    2    4    4    0    0  0.12877308984E+03  0.30672667644E+03  0.39975734305E+02  0.34705441663E+03  0.90470691740E+02 0.  0.
         23    2    4    4    0    0  0.77259735674E+03  0.88345198737E+03 -0.16382729817E+04  0.20172041010E+04  0.88203929121E+02 0.  0.
          3    1    3    3  502    0 -0.79047284945E+03 -0.10507023462E+04  0.11292873957E+04  0.17332376549E+04  0.00000000000E+00 0. -1.
         -4    1    3    3    0  502 -0.11089759713E+03 -0.13947631756E+03  0.11688689919E+03  0.21310670428E+03  0.00000000000E+00 0.  1.
         11    1    5    5    0    0  0.25407494091E+02  0.17688829782E+03  0.24497745470E+02  0.18037502653E+03  0.00000000000E+00 0. -1.
        -11    1    5    5    0    0  0.10336559575E+03  0.12983837861E+03  0.15477988834E+02  0.16667939010E+03  0.00000000000E+00 0.  1.
          4    1    6    6  503    0  0.63044901681E+03  0.75290388553E+03 -0.13245210734E+04  0.16488439276E+04  0.00000000000E+00 0.  1.
         -4    1    6    6    0  503  0.14214833992E+03  0.13054810183E+03 -0.31375190828E+03  0.36836017345E+03  0.00000000000E+00 0. -1.
<mgrwt>
<rscale>  0 0.42961968E+04</rscale>
<asrwt>0</asrwt>
<pdfrwt beam="1">  1        1 0.30449845E+00 0.42961968E+04</pdfrwt>
<pdfrwt beam="2">  1       -2 0.35867122E+00 0.42961968E+04</pdfrwt>
<totfact> 0.28328934E-02</totfact>
</mgrwt>
</event>
<event>
12    4  0.4207946E-008  0.1425290E+04  0.7818608E-02  0.8935713E-01
          1   -1    0    0  501    0  0.00000000000E+00  0.00000000000E+00  0.45264387138E+03  0.45264387138E+03  0.00000000000E+00 0. -1.
         -2   -1    0    0    0  501 -0.00000000000E+00 -0.00000000000E+00 -0.11219927219E+04  0.11219927219E+04  0.00000000000E+00 0.  1.
        -24    2    1    2    0    0  0.96236205253E+02  0.33301365171E+03  0.71612455472E+02  0.36239645857E+03  0.77738986202E+02 0.  0.
        254    2    1    2    0    0 -0.96236205253E+02 -0.33301365171E+03 -0.74096130594E+03  0.12122401347E+04  0.89461890644E+03 0.  0.
         23    2    4    4    0    0 -0.55312966609E+02  0.26785674334E+03 -0.55281633881E+02  0.29389266531E+03  0.92250097305E+02 0.  0.
         23    2    4    4    0    0 -0.40923238644E+02 -0.60087039505E+03 -0.68567967206E+03  0.91834746935E+03  0.10239882167E+03 0.  0.
          3    1    3    3  502    0  0.10144819417E+03  0.32206801515E+03  0.80781698647E+02  0.34719623460E+03  0.00000000000E+00 0. -1.
         -4    1    3    3    0  502 -0.52119889211E+01  0.10945636560E+02 -0.91692431753E+01  0.15200223966E+02  0.00000000000E+00 0.  1.
         11    1    5    5    0    0 -0.48822186497E+02  0.22315804926E+03 -0.80447155185E+02  0.24218766612E+03  0.00000000000E+00 0.  1.
        -11    1    5    5    0    0 -0.64907801129E+01  0.44698694079E+02  0.25165521305E+02  0.51704999191E+02  0.00000000000E+00 0. -1.
          3    1    6    6  503    0 -0.16095211979E+02 -0.10458831154E+02 -0.30546005061E+02  0.36076327737E+02  0.00000000000E+00 0. -1.
         -3    1    6    6    0  503 -0.24828026664E+02 -0.59041156390E+03 -0.65513366700E+03  0.88227114162E+03  0.00000000000E+00 0.  1.
<mgrwt>
<rscale>  0 0.14252903E+04</rscale>
<asrwt>0</asrwt>
<pdfrwt beam="1">  1        1 0.69637520E-01 0.14252903E+04</pdfrwt>
<pdfrwt beam="2">  1       -2 0.17261426E+00 0.14252903E+04</pdfrwt>
<totfact> 0.88167918E+00</totfact>
</mgrwt>
</event>
<event>
12    4  0.4207946E-008  0.1642043E+04  0.7818608E-02  0.8795128E-01
         -2   -1    0    0    0  501 -0.00000000000E+00  0.00000000000E+00  0.90790541054E+03  0.90790541054E+03  0.00000000000E+00 0.  1.
          1   -1    0    0  501    0  0.00000000000E+00 -0.00000000000E+00 -0.74245173085E+03  0.74245173085E+03  0.00000000000E+00 0. -1.
        -24    2    1    2    0    0 -0.44356910425E+03  0.64865206727E+02  0.43535330148E+03  0.62999930218E+03  0.80034857093E+02 0.  0.
        254    2    1    2    0    0  0.44356910425E+03 -0.64865206727E+02 -0.26989962179E+03  0.10203578392E+04  0.87596990183E+03 0.  0.
         23    2    4    4    0    0  0.17440903308E+03  0.23462766078E+03 -0.47057794587E+03  0.56135026028E+03  0.90564129514E+02 0.  0.
         23    2    4    4    0    0  0.26916007117E+03 -0.29949286750E+03  0.20067832407E+03  0.45900757894E+03  0.90956287144E+02 0.  0.
          3    1    3    3  502    0 -0.94566256302E+02 -0.29925626133E+01  0.55392290750E+02  0.10963593451E+03  0.00000000000E+00 0. -1.
         -4    1    3    3    0  502 -0.34900284795E+03  0.67857769340E+02  0.37996101073E+03  0.52036336767E+03  0.00000000000E+00 0.  1.
         11    1    5    5    0    0  0.17853286774E+02  0.88207586729E+02 -0.11319088573E+03  0.14460807314E+03  0.00000000000E+00 0.  1.
        -11    1    5    5    0    0  0.15655574630E+03  0.14642007405E+03 -0.35738706013E+03  0.41674218713E+03  0.00000000000E+00 0. -1.
          2    1    6    6  503    0  0.71164577156E+02 -0.11620172812E+03  0.10749748973E+03  0.17355964092E+03  0.00000000000E+00 0. -1.
         -2    1    6    6    0  503  0.19799549402E+03 -0.18329113938E+03  0.93180834346E+02  0.28544793802E+03  0.00000000000E+00 0.  1.
<mgrwt>
<rscale>  0 0.16420426E+04</rscale>
<asrwt>0</asrwt>
<pdfrwt beam="1">  1        1 0.11422334E+00 0.16420426E+04</pdfrwt>
<pdfrwt beam="2">  1       -2 0.13967776E+00 0.16420426E+04</pdfrwt>
<totfact> 0.75259592E+00</totfact>
</mgrwt>
</event>
<event>
12    4  0.4207946E-008  0.2385627E+04  0.7818608E-02  0.8444904E-01
         -2   -1    0    0    0  501 -0.00000000000E+00  0.00000000000E+00  0.78227438328E+03  0.78227438328E+03  0.00000000000E+00 0.  1.
          1   -1    0    0  501    0  0.00000000000E+00 -0.00000000000E+00 -0.18188049497E+04  0.18188049497E+04  0.00000000000E+00 0. -1.
        -24    2    1    2    0    0  0.14656748085E+03 -0.56431655675E+03 -0.13558559715E+04  0.14780173265E+04  0.79086024335E+02 0.  0.
        254    2    1    2    0    0 -0.14656748085E+03  0.56431655675E+03  0.31932540515E+03  0.11230620064E+04  0.90518746857E+03 0.  0.
         23    2    4    4    0    0 -0.40069783023E+03  0.41288627764E+03 -0.11024615782E+03  0.59356690062E+03  0.95569978486E+02 0.  0.
         23    2    4    4    0    0  0.25413034938E+03  0.15143027911E+03  0.42957156297E+03  0.52949510581E+03  0.91213899464E+02 0.  0.
          3    1    3    3  502    0  0.11144211013E+03 -0.48606189409E+03 -0.10897495990E+04  0.11984280109E+04  0.00000000000E+00 0. -1.
         -4    1    3    3    0  502  0.35125370727E+02 -0.78254662657E+02 -0.26610637253E+03  0.27958931560E+03  0.00000000000E+00 0.  1.
         11    1    5    5    0    0 -0.20153516001E+03  0.27144116202E+03 -0.47878534168E+02  0.34145143021E+03  0.00000000000E+00 0. -1.
        -11    1    5    5    0    0 -0.19916267022E+03  0.14144511562E+03 -0.62367623657E+02  0.25211547041E+03  0.00000000000E+00 0.  1.
          3    1    6    6  503    0  0.16210119064E+03  0.45262328715E+02  0.21549768232E+03  0.27343139083E+03  0.00000000000E+00 0. -1.
         -3    1    6    6    0  503  0.92029158731E+02  0.10616795040E+03  0.21407388066E+03  0.25606371498E+03  0.00000000000E+00 0.  1.
<mgrwt>
<rscale>  0 0.23856274E+04</rscale>
<asrwt>0</asrwt>
<pdfrwt beam="1">  1        1 0.27981614E+00 0.23856274E+04</pdfrwt>
<pdfrwt beam="2">  1       -2 0.12034991E+00 0.23856274E+04</pdfrwt>
<totfact> 0.16436643E+00</totfact>
</mgrwt>
</event>
<event>
12    4  0.4207946E-008  0.2875069E+04  0.7818608E-02  0.8280334E-01
         -2   -1    0    0    0  501 -0.00000000000E+00  0.00000000000E+00  0.19461237155E+04  0.19461237155E+04  0.00000000000E+00 0.  1.
          1   -1    0    0  501    0  0.00000000000E+00 -0.00000000000E+00 -0.10618574975E+04  0.10618574975E+04  0.00000000000E+00 0. -1.
        -24    2    1    2    0    0 -0.70382559279E+03 -0.62162476777E+03  0.13304895026E+04  0.16304492254E+04  0.79840736461E+02 0.  0.
        254    2    1    2    0    0  0.70382559279E+03  0.62162476777E+03 -0.44622328453E+03  0.13775319876E+04  0.90370976550E+03 0.  0.
         23    2    4    4    0    0  0.12255856880E+01  0.96553784117E+02  0.22957592900E+03  0.26638283735E+03  0.94501712007E+02 0.  0.
         23    2    4    4    0    0  0.70260000710E+03  0.52507098366E+03 -0.67579921352E+03  0.11111491503E+04  0.92744537727E+02 0.  0.
          1    1    3    3  502    0 -0.40437133944E+03 -0.39363222055E+03  0.74929449699E+03  0.93803238134E+03  0.00000000000E+00 0. -1.
         -2    1    3    3    0  502 -0.29945425334E+03 -0.22799254722E+03  0.58119500557E+03  0.69241684406E+03  0.00000000000E+00 0.  1.
         11    1    5    5    0    0  0.64274611891E+01  0.84045784032E+00  0.12249487733E+03  0.12266626919E+03  0.00000000000E+00 0. -1.
        -11    1    5    5    0    0 -0.52018755011E+01  0.95713326276E+02  0.10708105167E+03  0.14371656815E+03  0.00000000000E+00 0.  1.
          4    1    6    6  503    0  0.36269383374E+03  0.29496462601E+03 -0.30657829592E+03  0.55905384281E+03  0.00000000000E+00 0. -1.
         -4    1    6    6    0  503  0.33990617336E+03  0.23010635765E+03 -0.36922091760E+03  0.55209530745E+03  0.00000000000E+00 0.  1.
<mgrwt>
<rscale>  0 0.28750694E+04</rscale>
<asrwt>0</asrwt>
<pdfrwt beam="1">  1        1 0.16336269E+00 0.28750694E+04</pdfrwt>
<pdfrwt beam="2">  1       -2 0.29940365E+00 0.28750694E+04</pdfrwt>
<totfact> 0.32786688E-01</totfact>
</mgrwt>
</event>
<event>
12    4  0.4207946E-008  0.3386469E+04  0.7818608E-02  0.8141235E-01
         -2   -1    0    0    0  501 -0.00000000000E+00  0.00000000000E+00  0.14624514878E+04  0.14624514878E+04  0.00000000000E+00 0.  1.
          1   -1    0    0  501    0  0.00000000000E+00 -0.00000000000E+00 -0.19604368023E+04  0.19604368023E+04  0.00000000000E+00 0. -1.
        -24    2    1    2    0    0 -0.44320151126E+03 -0.13155655132E+04  0.51629213373E+03  0.14832422764E+04  0.79434777504E+02 0.  0.
        254    2    1    2    0    0  0.44320151126E+03  0.13155655132E+04 -0.10142774482E+04  0.19396460138E+04  0.89795752549E+03 0.  0.
         23    2    4    4    0    0 -0.43115793846E+02  0.11110229420E+04 -0.73645829731E+03  0.13367256274E+04  0.90739350834E+02 0.  0.
         23    2    4    4    0    0  0.48631730511E+03  0.20454257120E+03 -0.27781915090E+03  0.60292038639E+03  0.89371847066E+02 0.  0.
          1    1    3    3  502    0 -0.81776973832E+02 -0.25386801214E+03  0.13290318440E+03  0.29799278089E+03  0.00000000000E+00 0. -1.
         -2    1    3    3    0  502 -0.36142453743E+03 -0.10616975011E+04  0.38338894933E+03  0.11852494955E+04  0.00000000000E+00 0.  1.
         11    1    5    5    0    0 -0.27382152892E+01  0.29346492671E+03 -0.14862401431E+03  0.32896543688E+03  0.00000000000E+00 0.  1.
        -11    1    5    5    0    0 -0.40377578557E+02  0.81755801532E+03 -0.58783428300E+03  0.10077601905E+04  0.00000000000E+00 0. -1.
          3    1    6    6  503    0  0.23268357044E+03  0.54400721967E+02 -0.10281037921E+03  0.26013661138E+03  0.00000000000E+00 0. -1.
         -3    1    6    6    0  503  0.25363373466E+03  0.15014184923E+03 -0.17500877168E+03  0.34278377502E+03  0.00000000000E+00 0.  1.
<mgrwt>
<rscale>  0 0.33864694E+04</rscale>
<asrwt>0</asrwt>
<pdfrwt beam="1">  1        1 0.30160566E+00 0.33864694E+04</pdfrwt>
<pdfrwt beam="2">  1       -2 0.22499254E+00 0.33864694E+04</pdfrwt>
<totfact> 0.21099266E-01</totfact>
</mgrwt>
</event>
<event>
12    4  0.4207946E-008  0.2627569E+04  0.7818608E-02  0.8358897E-01
          1   -1    0    0  501    0  0.00000000000E+00  0.00000000000E+00  0.10441808485E+04  0.10441808485E+04  0.00000000000E+00 0. -1.
         -2   -1    0    0    0  501 -0.00000000000E+00 -0.00000000000E+00 -0.16529983459E+04  0.16529983459E+04  0.00000000000E+00 0.  1.
        -24    2    1    2    0    0  0.94084348618E+03  0.65151674214E+03 -0.74354817979E+02  0.11490758469E+04  0.72014804908E+02 0.  0.
        254    2    1    2    0    0 -0.94084348618E+03 -0.65151674214E+03 -0.53446267941E+03  0.15481033476E+04  0.89516092868E+03 0.  0.
         23    2    4    4    0    0 -0.10953246822E+04 -0.65009672746E+03 -0.44623865319E+03  0.13526833591E+04  0.90892353951E+02 0.  0.
         23    2    4    4    0    0  0.15448119597E+03 -0.14200146853E+01 -0.88224026215E+02  0.19541998845E+03  0.80864310634E+02 0.  0.
          3    1    3    3  502    0  0.61598047331E+03  0.40419750542E+03 -0.77065181707E+02  0.74077433077E+03  0.00000000000E+00 0. -1.
         -4    1    3    3    0  502  0.32486301287E+03  0.24731923672E+03  0.27103637275E+01  0.40830151611E+03  0.00000000000E+00 0.  1.
         11    1    5    5    0    0 -0.10971048451E+04 -0.64986913801E+03 -0.44594486193E+03  0.13508648184E+04  0.00000000000E+00 0.  1.
        -11    1    5    5    0    0  0.17801629398E+01 -0.22758945093E+00 -0.29379126357E+00  0.18185407218E+01  0.00000000000E+00 0. -1.
          4    1    6    6  503    0  0.59575639735E+02  0.13724403873E+02 -0.77509210532E+02  0.98718254790E+02  0.00000000000E+00 0. -1.
         -4    1    6    6    0  503  0.94905556235E+02 -0.15144418558E+02 -0.10714815683E+02  0.96701733660E+02  0.00000000000E+00 0.  1.
<mgrwt>
<rscale>  0 0.26275686E+04</rscale>
<asrwt>0</asrwt>
<pdfrwt beam="1">  1        1 0.16064321E+00 0.26275686E+04</pdfrwt>
<pdfrwt beam="2">  1       -2 0.25430744E+00 0.26275686E+04</pdfrwt>
<totfact> 0.65159123E-01</totfact>
</mgrwt>
</event>
<event>
12    4  0.4207946E-008  0.2039745E+04  0.7818608E-02  0.8588261E-01
         -2   -1    0    0    0  501 -0.00000000000E+00  0.00000000000E+00  0.11872710545E+04  0.11872710545E+04  0.00000000000E+00 0.  1.
          1   -1    0    0  501    0  0.00000000000E+00 -0.00000000000E+00 -0.87607653687E+03  0.87607653687E+03  0.00000000000E+00 0. -1.
        -24    2    1    2    0    0  0.78803201718E+03  0.85939948175E+02  0.32984017700E+03  0.86235541037E+03  0.80511965859E+02 0.  0.
        254    2    1    2    0    0 -0.78803201718E+03 -0.85939948175E+02 -0.18645659334E+02  0.12009921810E+04  0.90202795051E+03 0.  0.
         23    2    4    4    0    0 -0.19881304543E+03  0.24824730861E+03  0.29968424981E+03  0.44700140981E+03  0.94054545449E+02 0.  0.
         23    2    4    4    0    0 -0.58921897175E+03 -0.33418725679E+03 -0.31832990915E+03  0.75399077122E+03  0.91148410648E+02 0.  0.
          1    1    3    3  502    0  0.17214690322E+03 -0.10568682533E+01  0.10102610861E+03  0.19960447861E+03  0.00000000000E+00 0. -1.
         -2    1    3    3    0  502  0.61588511396E+03  0.86996816429E+02  0.22881406839E+03  0.66275093177E+03  0.00000000000E+00 0.  1.
         11    1    5    5    0    0 -0.14087286610E+03  0.10105401246E+03  0.15106230447E+03  0.22994977206E+03  0.00000000000E+00 0. -1.
        -11    1    5    5    0    0 -0.57940179328E+02  0.14719329615E+03  0.14862194534E+03  0.21705163775E+03  0.00000000000E+00 0.  1.
          2    1    6    6  503    0 -0.41523570930E+03 -0.24428434191E+03 -0.27005164271E+03  0.55228925729E+03  0.00000000000E+00 0. -1.
         -2    1    6    6    0  503 -0.17398326244E+03 -0.89902914875E+02 -0.48278266440E+02  0.20170151394E+03  0.00000000000E+00 0.  1.
<mgrwt>
<rscale>  0 0.20397454E+04</rscale>
<asrwt>0</asrwt>
<pdfrwt beam="1">  1        1 0.13478101E+00 0.20397454E+04</pdfrwt>
<pdfrwt beam="2">  1       -2 0.18265709E+00 0.20397454E+04</pdfrwt>
<totfact> 0.26815054E+00</totfact>
</mgrwt>
</event>
<event>
12    4  0.4207946E-008  0.1529467E+04  0.7818608E-02  0.8865091E-01
          1   -1    0    0  501    0  0.00000000000E+00  0.00000000000E+00  0.13064798214E+04  0.13064798214E+04  0.00000000000E+00 0. -1.
         -2   -1    0    0    0  501 -0.00000000000E+00 -0.00000000000E+00 -0.44762832035E+03  0.44762832035E+03  0.00000000000E+00 0.  1.
        -24    2    1    2    0    0  0.47517559051E+03 -0.12849768364E+03  0.21811661370E+03  0.54459221283E+03  0.81867726146E+02 0.  0.
        254    2    1    2    0    0 -0.47517559051E+03  0.12849768364E+03  0.64073488738E+03  0.12095159290E+04  0.90004671544E+03 0.  0.
         23    2    4    4    0    0 -0.31778448304E+02  0.41697690931E+03  0.49283657665E+03  0.65266402841E+03  0.90569476184E+02 0.  0.
         23    2    4    4    0    0 -0.44339714221E+03 -0.28847922567E+03  0.14789831073E+03  0.55685190055E+03  0.91590607997E+02 0.  0.
          3    1    3    3  502    0  0.17174199124E+03 -0.71634230412E+02  0.11668166122E+03  0.21963921459E+03  0.00000000000E+00 0. -1.
         -4    1    3    3    0  502  0.30343359926E+03 -0.56863453228E+02  0.10143495248E+03  0.32495299823E+03  0.00000000000E+00 0.  1.
         11    1    5    5    0    0 -0.31426844172E+02  0.37022784069E+03  0.47397307638E+03  0.60225142398E+03  0.00000000000E+00 0. -1.
        -11    1    5    5    0    0 -0.35160413181E+00  0.46749068619E+02  0.18863500272E+02  0.50412604423E+02  0.00000000000E+00 0.  1.
          1    1    6    6  503    0 -0.27619006860E+03 -0.13430582758E+03  0.59412060233E+02  0.31280793183E+03  0.00000000000E+00 0. -1.
         -1    1    6    6    0  503 -0.16720707360E+03 -0.15417339809E+03  0.88486250500E+02  0.24404396872E+03  0.00000000000E+00 0.  1.
<mgrwt>
<rscale>  0 0.15294671E+04</rscale>
<asrwt>0</asrwt>
<pdfrwt beam="1">  1        1 0.20099689E+00 0.15294671E+04</pdfrwt>
<pdfrwt beam="2">  1       -2 0.68865896E-01 0.15294671E+04</pdfrwt>
<totfact> 0.14594918E+01</totfact>
</mgrwt>
</event>
<event>
12    4  0.4207946E-008  0.1424634E+04  0.7818608E-02  0.8936178E-01
          1   -1    0    0  501    0  0.00000000000E+00  0.00000000000E+00  0.12314260240E+04  0.12314260240E+04  0.00000000000E+00 0. -1.
         -2   -1    0    0    0  501 -0.00000000000E+00 -0.00000000000E+00 -0.41203881045E+03  0.41203881045E+03  0.00000000000E+00 0.  1.
        -24    2    1    2    0    0  0.15928828867E+03 -0.36995460512E+03  0.25865711941E+03  0.48520964744E+03  0.79282581868E+02 0.  0.
        254    2    1    2    0    0 -0.15928828867E+03  0.36995460512E+03  0.56073009411E+03  0.11582551870E+04  0.92999874783E+03 0.  0.
         23    2    4    4    0    0 -0.25168833390E+03  0.54080685441E+03  0.51752498972E+02  0.60537749346E+03  0.89356125882E+02 0.  0.
         23    2    4    4    0    0  0.92400045231E+02 -0.17085224929E+03  0.50897759514E+03  0.55287769352E+03  0.94272436024E+02 0.  0.
          1    1    3    3  502    0  0.40775628387E+02 -0.14529512024E+03  0.13597409243E+03  0.20313118335E+03  0.00000000000E+00 0. -1.
         -2    1    3    3    0  502  0.11851266028E+03 -0.22465948488E+03  0.12268302698E+03  0.28207846409E+03  0.00000000000E+00 0.  1.
         11    1    5    5    0    0 -0.17935482517E+03  0.43251665247E+03  0.90100672632E+01  0.46831612111E+03  0.00000000000E+00 0. -1.
        -11    1    5    5    0    0 -0.72333508731E+02  0.10829020194E+03  0.42742431709E+02  0.13706137234E+03  0.00000000000E+00 0.  1.
          1    1    6    6  503    0  0.54120372137E+02 -0.79317921110E+02  0.13307252975E+03  0.16409949867E+03  0.00000000000E+00 0. -1.
         -1    1    6    6    0  503  0.38279673094E+02 -0.91534328180E+02  0.37590506539E+03  0.38877819485E+03  0.00000000000E+00 0.  1.
<mgrwt>
<rscale>  0 0.14246337E+04</rscale>
<asrwt>0</asrwt>
<pdfrwt beam="1">  1        1 0.18945016E+00 0.14246337E+04</pdfrwt>
<pdfrwt beam="2">  1       -2 0.63390587E-01 0.14246337E+04</pdfrwt>
<totfact> 0.19933180E+01</totfact>
</mgrwt>
</event>
<event>
12    4  0.4207946E-008  0.1146227E+04  0.7818608E-02  0.9161271E-01
          1   -1    0    0  501    0  0.00000000000E+00  0.00000000000E+00  0.13439966762E+04  0.13439966762E+04  0.00000000000E+00 0. -1.
         -2   -1    0    0    0  501 -0.00000000000E+00 -0.00000000000E+00 -0.24438977981E+03  0.24438977981E+03  0.00000000000E+00 0.  1.
        -24    2    1    2    0    0  0.35161503310E+02  0.13080308885E+03 -0.40625946099E+01  0.15749146633E+03  0.80257572374E+02 0.  0.
        254    2    1    2    0    0 -0.35161503310E+02 -0.13080308885E+03  0.11036694910E+04  0.14308949896E+04  0.90057112252E+03 0.  0.
         23    2    4    4    0    0  0.14967310579E+03 -0.11524669904E+02 -0.10094097904E+03  0.20311098958E+03  0.92358736597E+02 0.  0.
         23    2    4    4    0    0 -0.18483460910E+03 -0.11927841895E+03  0.12046104700E+04  0.12277840001E+04  0.89308411838E+02 0.  0.
          1    1    3    3  502    0 -0.15071469703E+02  0.45470457326E+02  0.25347423815E+02  0.54195973859E+02  0.00000000000E+00 0. -1.
         -2    1    3    3    0  502  0.50232973013E+02  0.85332631525E+02 -0.29410018425E+02  0.10329549247E+03  0.00000000000E+00 0.  1.
         11    1    5    5    0    0  0.15333906029E+03 -0.59245902429E+01 -0.11214192543E+03  0.19006256765E+03  0.00000000000E+00 0. -1.
        -11    1    5    5    0    0 -0.36659545043E+01 -0.56000796607E+01  0.11200946398E+02  0.13048421930E+02  0.00000000000E+00 0.  1.
          1    1    6    6  503    0 -0.18697851769E+03 -0.12851262374E+03  0.11746068125E+04  0.11963183625E+04  0.00000000000E+00 0. -1.
         -1    1    6    6    0  503  0.21439085926E+01  0.92342047978E+01  0.30003657524E+02  0.31465637561E+02  0.00000000000E+00 0.  1.
<mgrwt>
<rscale>  0 0.11462269E+04</rscale>
<asrwt>0</asrwt>
<pdfrwt beam="1">  1        1 0.20676872E+00 0.11462269E+04</pdfrwt>
<pdfrwt beam="2">  1       -2 0.37598428E-01 0.11462269E+04</pdfrwt>
<totfact> 0.48926048E+01</totfact>
</mgrwt>
</event>
<event>
12    4  0.4207946E-008  0.1121458E+04  0.7818608E-02  0.9184527E-01
         -2   -1    0    0    0  501 -0.00000000000E+00  0.00000000000E+00  0.12174613225E+04  0.12174613225E+04  0.00000000000E+00 0.  1.
          1   -1    0    0  501    0  0.00000000000E+00 -0.00000000000E+00 -0.25825604407E+03  0.25825604407E+03  0.00000000000E+00 0. -1.
        -24    2    1    2    0    0  0.99562831055E+02 -0.13839248913E+03  0.21620169817E+03  0.28725714346E+03  0.81903930355E+02 0.  0.
        254    2    1    2    0    0 -0.99562831055E+02  0.13839248913E+03  0.74300358022E+03  0.11884602231E+04  0.91176649599E+03 0.  0.
         23    2    4    4    0    0  0.21314435742E+03 -0.29834643119E+03  0.23490179068E+03  0.44350072636E+03  0.84100730735E+02 0.  0.
         23    2    4    4    0    0 -0.31270718848E+03  0.43673892032E+03  0.50810178954E+03  0.74495949671E+03  0.90942580541E+02 0.  0.
          1    1    3    3  502    0 -0.97379779456E-01  0.99512124145E+01  0.72959026270E+01  0.12339623434E+02  0.00000000000E+00 0. -1.
         -2    1    3    3    0  502  0.99660210834E+02 -0.14834370154E+03  0.20890579554E+03  0.27491752003E+03  0.00000000000E+00 0.  1.
         11    1    5    5    0    0  0.17548581858E+03 -0.26757788800E+03  0.16982723568E+03  0.36226301032E+03  0.00000000000E+00 0. -1.
        -11    1    5    5    0    0  0.37658538846E+02 -0.30768543185E+02  0.65074555001E+02  0.81237716033E+02  0.00000000000E+00 0.  1.
          2    1    6    6  503    0 -0.15016386818E+03  0.28562771093E+03  0.29212618686E+03  0.43528161643E+03  0.00000000000E+00 0. -1.
         -2    1    6    6    0  503 -0.16254332030E+03  0.15111120938E+03  0.21597560268E+03  0.30967788027E+03  0.00000000000E+00 0.  1.
<mgrwt>
<rscale>  0 0.11214575E+04</rscale>
<asrwt>0</asrwt>
<pdfrwt beam="1">  1        1 0.39731700E-01 0.11214575E+04</pdfrwt>
<pdfrwt beam="2">  1       -2 0.18730174E+00 0.11214575E+04</pdfrwt>
<totfact> 0.14941949E+01</totfact>
</mgrwt>
</event>
<event>
12    4  0.4207946E-008  0.1490666E+04  0.7818608E-02  0.8890684E-01
          1   -1    0    0  501    0  0.00000000000E+00  0.00000000000E+00  0.49302581716E+03  0.49302581716E+03  0.00000000000E+00 0. -1.
         -2   -1    0    0    0  501 -0.00000000000E+00 -0.00000000000E+00 -0.11267587773E+04  0.11267587773E+04  0.00000000000E+00 0.  1.
        -24    2    1    2    0    0  0.43014545449E+03 -0.38249962688E+02 -0.40543151347E+03  0.59751971083E+03  0.78529746255E+02 0.  0.
        254    2    1    2    0    0 -0.43014545449E+03  0.38249962688E+02 -0.22830144664E+03  0.10222648836E+04  0.89800655347E+03 0.  0.
         23    2    4    4    0    0 -0.53363001076E+03  0.17312569330E+03 -0.45242264456E+03  0.72629295000E+03  0.89898308303E+02 0.  0.
         23    2    4    4    0    0  0.10348455628E+03 -0.13487573061E+03  0.22412119792E+03  0.29597193362E+03  0.92024768609E+02 0.  0.
          3    1    3    3  502    0  0.46128636022E+02 -0.28876815239E+02 -0.58687880837E+02  0.80037421727E+02  0.00000000000E+00 0. -1.
         -4    1    3    3    0  502  0.38401681846E+03 -0.93731474486E+01 -0.34674363264E+03  0.51748228910E+03  0.00000000000E+00 0.  1.
         11    1    5    5    0    0 -0.20739417000E+03  0.47475472973E+02 -0.12199945869E+03  0.24525523481E+03  0.00000000000E+00 0. -1.
        -11    1    5    5    0    0 -0.32623584077E+03  0.12565022032E+03 -0.33042318587E+03  0.48103771518E+03  0.00000000000E+00 0.  1.
          4    1    6    6  503    0  0.38185091890E+02 -0.50097177709E-01  0.77283525701E+02  0.86202361320E+02  0.00000000000E+00 0. -1.
         -4    1    6    6    0  503  0.65299464387E+02 -0.13482563343E+03  0.14683767222E+03  0.20976957230E+03  0.00000000000E+00 0.  1.
<mgrwt>
<rscale>  0 0.14906658E+04</rscale>
<asrwt>0</asrwt>
<pdfrwt beam="1">  1        1 0.75850127E-01 0.14906658E+04</pdfrwt>
<pdfrwt beam="2">  1       -2 0.17334750E+00 0.14906658E+04</pdfrwt>
<totfact> 0.77137082E+00</totfact>
</mgrwt>
</event>
<event>
12    4  0.4207946E-008  0.1653112E+04  0.7818608E-02  0.8788567E-01
          1   -1    0    0  501    0  0.00000000000E+00  0.00000000000E+00  0.17911848642E+04  0.17911848642E+04  0.00000000000E+00 0. -1.
         -2   -1    0    0    0  501 -0.00000000000E+00 -0.00000000000E+00 -0.38142069904E+03  0.38142069904E+03  0.00000000000E+00 0.  1.
        -24    2    1    2    0    0  0.96841260332E+02 -0.44731425284E+03  0.95806329586E+03  0.10647570616E+04  0.79712300309E+02 0.  0.
        254    2    1    2    0    0 -0.96841260332E+02  0.44731425284E+03  0.45170086932E+03  0.11078485017E+04  0.90212324925E+03 0.  0.
         23    2    4    4    0    0  0.28160631031E+03  0.49686277296E+03  0.11087429622E+03  0.58841358457E+03  0.88106230174E+02 0.  0.
         23    2    4    4    0    0 -0.37844757064E+03 -0.49548520118E+02  0.34082657310E+03  0.51943491711E+03  0.89287516561E+02 0.  0.
          3    1    3    3  502    0  0.49849978590E+02 -0.33099368869E+03  0.75794465555E+03  0.82856619723E+03  0.00000000000E+00 0. -1.
         -4    1    3    3    0  502  0.46991281742E+02 -0.11632056414E+03  0.20011864031E+03  0.23619086435E+03  0.00000000000E+00 0.  1.
         11    1    5    5    0    0  0.23581222952E+03  0.33941317545E+03  0.91512593932E+02  0.42330044426E+03  0.00000000000E+00 0. -1.
        -11    1    5    5    0    0  0.45794080787E+02  0.15744959751E+03  0.19361702288E+02  0.16511314032E+03  0.00000000000E+00 0.  1.
          1    1    6    6  503    0 -0.25326213033E+03 -0.73662008276E+02  0.21460662586E+03  0.34003500112E+03  0.00000000000E+00 0. -1.
         -1    1    6    6    0  503 -0.12518544031E+03  0.24113488158E+02  0.12621994724E+03  0.17939991599E+03  0.00000000000E+00 0.  1.
<mgrwt>
<rscale>  0 0.16531122E+04</rscale>
<asrwt>0</asrwt>
<pdfrwt beam="1">  1        1 0.27556690E+00 0.16531122E+04</pdfrwt>
<pdfrwt beam="2">  1       -2 0.58680109E-01 0.16531122E+04</pdfrwt>
<totfact> 0.94039363E+00</totfact>
</mgrwt>
</event>
<event>
12    4  0.4207946E-008  0.2510577E+04  0.7818608E-02  0.8399227E-01
         -2   -1    0    0    0  501 -0.00000000000E+00  0.00000000000E+00  0.57370660294E+03  0.57370660294E+03  0.00000000000E+00 0.  1.
          1   -1    0    0  501    0  0.00000000000E+00 -0.00000000000E+00 -0.27466123761E+04  0.27466123761E+04  0.00000000000E+00 0. -1.
        -24    2    1    2    0    0  0.80988861387E+03  0.71494280598E+02  0.11284666374E+02  0.81703373797E+03  0.79911114676E+02 0.  0.
        254    2    1    2    0    0 -0.80988861387E+03 -0.71494280598E+02 -0.21841904396E+04  0.25032852411E+04  0.91362909487E+03 0.  0.
         23    2    4    4    0    0 -0.20140974124E+02  0.30097745006E+03 -0.35739280151E+03  0.47631109715E+03  0.90274926822E+02 0.  0.
         23    2    4    4    0    0 -0.78974763975E+03 -0.37247173066E+03 -0.18267976381E+04  0.20269741440E+04  0.94858026670E+02 0.  0.
          3    1    3    3  502    0  0.61310814402E+03  0.47003659048E+02 -0.25124450987E+02  0.61542032649E+03  0.00000000000E+00 0. -1.
         -4    1    3    3    0  502  0.19678046985E+03  0.24490621550E+02  0.36409117362E+02  0.20161341148E+03  0.00000000000E+00 0.  1.
         11    1    5    5    0    0  0.11914639846E+02  0.24939035286E+03 -0.25245702787E+03  0.35506627221E+03  0.00000000000E+00 0. -1.
        -11    1    5    5    0    0 -0.32055613971E+02  0.51587097204E+02 -0.10493577364E+03  0.12124482494E+03  0.00000000000E+00 0.  1.
          2    1    6    6  503    0 -0.59628773287E+03 -0.24600524773E+03 -0.12803760100E+04  0.14336807069E+04  0.00000000000E+00 0. -1.
         -2    1    6    6    0  503 -0.19345990688E+03 -0.12646648293E+03 -0.54642162806E+03  0.59329343708E+03  0.00000000000E+00 0.  1.
<mgrwt>
<rscale>  0 0.25105773E+04</rscale>
<asrwt>0</asrwt>
<pdfrwt beam="1">  1        1 0.42255575E+00 0.25105773E+04</pdfrwt>
<pdfrwt beam="2">  1       -2 0.88262555E-01 0.25105773E+04</pdfrwt>
<totfact> 0.78449240E-01</totfact>
</mgrwt>
</event>
<event>
12    4  0.4207946E-008  0.1425019E+04  0.7818608E-02  0.8935905E-01
          1   -1    0    0  501    0  0.00000000000E+00  0.00000000000E+00  0.11711034171E+04  0.11711034171E+04  0.00000000000E+00 0. -1.
         -2   -1    0    0    0  501 -0.00000000000E+00 -0.00000000000E+00 -0.43349708842E+03  0.43349708842E+03  0.00000000000E+00 0.  1.
        -24    2    1    2    0    0  0.63733985643E+01  0.39082705633E+03  0.41035871535E+02  0.40140332445E+03  0.81573757762E+02 0.  0.
        254    2    1    2    0    0 -0.63733985643E+01 -0.39082705633E+03  0.69657045716E+03  0.12031971811E+04  0.89982589795E+03 0.  0.
         23    2    4    4    0    0  0.82163901082E+02 -0.39981439970E+03 -0.71876011769E+02  0.42433950035E+03  0.91079029643E+02 0.  0.
         23    2    4    4    0    0 -0.88537299646E+02  0.89873433741E+01  0.76844646893E+03  0.77885768073E+03  0.90496880931E+02 0.  0.
          3    1    3    3  502    0  0.18785248376E+02  0.36331635375E+03  0.55370324968E+02  0.36799121097E+03  0.00000000000E+00 0. -1.
         -4    1    3    3    0  502 -0.12411849812E+02  0.27510702576E+02 -0.14334453433E+02  0.33412113480E+02  0.00000000000E+00 0.  1.
         11    1    5    5    0    0  0.94207789052E+02 -0.26813162004E+03 -0.30747055508E+02  0.28585845205E+03  0.00000000000E+00 0. -1.
        -11    1    5    5    0    0 -0.12043887970E+02 -0.13168277966E+03 -0.41128956261E+02  0.13848104831E+03  0.00000000000E+00 0.  1.
          3    1    6    6  503    0 -0.10086205336E+03  0.17520590682E+02  0.52128920083E+03  0.53124622898E+03  0.00000000000E+00 0. -1.
         -3    1    6    6    0  503  0.12324753717E+02 -0.85332473074E+01  0.24715726810E+03  0.24761145175E+03  0.00000000000E+00 0.  1.
<mgrwt>
<rscale>  0 0.14250192E+04</rscale>
<asrwt>0</asrwt>
<pdfrwt beam="1">  1        1 0.18016976E+00 0.14250192E+04</pdfrwt>
<pdfrwt beam="2">  1       -2 0.66691860E-01 0.14250192E+04</pdfrwt>
<totfact> 0.19780059E+01</totfact>
</mgrwt>
</event>
<event>
12    4  0.4207946E-008  0.1572349E+04  0.7818608E-02  0.8837717E-01
          1   -1    0    0  501    0  0.00000000000E+00  0.00000000000E+00  0.11631781832E+04  0.11631781832E+04  0.00000000000E+00 0. -1.
         -2   -1    0    0    0  501 -0.00000000000E+00 -0.00000000000E+00 -0.53136369334E+03  0.53136369334E+03  0.00000000000E+00 0.  1.
        -24    2    1    2    0    0 -0.63062397930E+01  0.50510385696E+03  0.28765750070E+03  0.58732264450E+03  0.83853300829E+02 0.  0.
        254    2    1    2    0    0  0.63062397930E+01 -0.50510385696E+03  0.34415698914E+03  0.11072192320E+04  0.92321217475E+03 0.  0.
         23    2    4    4    0    0 -0.29335080424E+03 -0.30910921070E+03  0.53697989018E+03  0.69086805981E+03  0.85720914189E+02 0.  0.
         23    2    4    4    0    0  0.29965704403E+03 -0.19599464626E+03 -0.19282290103E+03  0.41635117221E+03  0.89215368809E+02 0.  0.
          1    1    3    3  502    0  0.20608610362E+02  0.41988216818E+03  0.25758857856E+03  0.49302903138E+03  0.00000000000E+00 0. -1.
         -2    1    3    3    0  502 -0.26914850155E+02  0.85221688778E+02  0.30068922138E+02  0.94293613122E+02  0.00000000000E+00 0.  1.
         11    1    5    5    0    0 -0.29776322290E+03 -0.29648249912E+03  0.52783007054E+03  0.67466242860E+03  0.00000000000E+00 0. -1.
        -11    1    5    5    0    0  0.44124186601E+01 -0.12626711572E+02  0.91498196312E+01  0.16205631208E+02  0.00000000000E+00 0.  1.
          4    1    6    6  503    0  0.20642766364E+03 -0.10862793160E+03 -0.16463157291E+03  0.28551000445E+03  0.00000000000E+00 0. -1.
         -4    1    6    6    0  503  0.93229380399E+02 -0.87366714658E+02 -0.28191328118E+02  0.13084116776E+03  0.00000000000E+00 0.  1.
<mgrwt>
<rscale>  0 0.15723494E+04</rscale>
<asrwt>0</asrwt>
<pdfrwt beam="1">  1        1 0.17895049E+00 0.15723494E+04</pdfrwt>
<pdfrwt beam="2">  1       -2 0.81748261E-01 0.15723494E+04</pdfrwt>
<totfact> 0.12628928E+01</totfact>
</mgrwt>
</event>
<event>
12    4  0.4207946E-008  0.2595344E+04  0.7818608E-02  0.8369784E-01
          1   -1    0    0  501    0  0.00000000000E+00  0.00000000000E+00  0.52929220246E+03  0.52929220246E+03  0.00000000000E+00 0. -1.
         -2   -1    0    0    0  501 -0.00000000000E+00 -0.00000000000E+00 -0.31815185213E+04  0.31815185213E+04  0.00000000000E+00 0.  1.
        -24    2    1    2    0    0  0.82815064975E+03  0.75368374129E+03 -0.14817851679E+04  0.18592631912E+04  0.85437987756E+02 0.  0.
        254    2    1    2    0    0 -0.82815064975E+03 -0.75368374129E+03 -0.11704411509E+04  0.18515475325E+04  0.89689636910E+03 0.  0.
         23    2    4    4    0    0 -0.99417224560E+03 -0.55378552418E+03 -0.82034197092E+03  0.14062186200E+04  0.97123617946E+02 0.  0.
         23    2    4    4    0    0  0.16602159585E+03 -0.19989821711E+03 -0.35009917998E+03  0.44532891256E+03  0.90696951723E+02 0.  0.
          1    1    3    3  502    0  0.20876888650E+03  0.15002207258E+03 -0.30657773842E+03  0.40010121210E+03  0.00000000000E+00 0. -1.
         -2    1    3    3    0  502  0.61938176325E+03  0.60366166871E+03 -0.11752074295E+04  0.14591619791E+04  0.00000000000E+00 0.  1.
         11    1    5    5    0    0 -0.97829092640E+03 -0.55677579251E+03 -0.80436687706E+03  0.13834950281E+04  0.00000000000E+00 0. -1.
        -11    1    5    5    0    0 -0.15881319200E+02  0.29902683354E+01 -0.15975093859E+02  0.22723591883E+02  0.00000000000E+00 0.  1.
          1    1    6    6  503    0  0.22005575526E+02 -0.60255890779E+02 -0.14440733221E+03  0.15801422507E+03  0.00000000000E+00 0. -1.
         -1    1    6    6    0  503  0.14401602032E+03 -0.13964232633E+03 -0.20569184777E+03  0.28731468749E+03  0.00000000000E+00 0.  1.
<mgrwt>
<rscale>  0 0.25953443E+04</rscale>
<asrwt>0</asrwt>
<pdfrwt beam="1">  1        1 0.81429570E-01 0.25953443E+04</pdfrwt>
<pdfrwt beam="2">  1       -2 0.48946439E+00 0.25953443E+04</pdfrwt>
<totfact> 0.60537490E-02</totfact>
</mgrwt>
</event>
<event>
12    4  0.4207946E-008  0.2079526E+04  0.7818608E-02  0.8570316E-01
         -2   -1    0    0    0  501 -0.00000000000E+00  0.00000000000E+00  0.13916635851E+04  0.13916635851E+04  0.00000000000E+00 0.  1.
          1   -1    0    0  501    0  0.00000000000E+00 -0.00000000000E+00 -0.77684517025E+03  0.77684517025E+03  0.00000000000E+00 0. -1.
        -24    2    1    2    0    0  0.74594036766E+03 -0.30038901623E+03  0.50037838399E+03  0.95025923867E+03  0.77158929060E+02 0.  0.
        254    2    1    2    0    0 -0.74594036766E+03  0.30038901623E+03  0.11444003086E+03  0.12182495167E+04  0.90795086379E+03 0.  0.
         23    2    4    4    0    0  0.32074663368E+02  0.32962300932E+03 -0.17161110023E+03  0.38383805958E+03  0.90560333233E+02 0.  0.
         23    2    4    4    0    0 -0.77801503103E+03 -0.29233993094E+02  0.28605113110E+03  0.83441145710E+03  0.90858215281E+02 0.  0.
          3    1    3    3  502    0  0.71868083675E+03 -0.27417676966E+03  0.48557712493E+03  0.90964838833E+03  0.00000000000E+00 0. -1.
         -4    1    3    3    0  502  0.27259530911E+02 -0.26212246567E+02  0.14801259061E+02  0.40610850340E+02  0.00000000000E+00 0.  1.
         11    1    5    5    0    0 -0.17239682537E+02  0.84617445602E+02 -0.79821147833E+02  0.11759563936E+03  0.00000000000E+00 0. -1.
        -11    1    5    5    0    0  0.49314345905E+02  0.24500556372E+03 -0.91789952400E+02  0.26624242022E+03  0.00000000000E+00 0.  1.
          1    1    6    6  503    0 -0.69755946656E+03 -0.31508438152E+02  0.28423238781E+03  0.75390320422E+03  0.00000000000E+00 0. -1.
         -1    1    6    6    0  503 -0.80455564468E+02  0.22744450581E+01  0.18187432897E+01  0.80508252878E+02  0.00000000000E+00 0.  1.
<mgrwt>
<rscale>  0 0.20795260E+04</rscale>
<asrwt>0</asrwt>
<pdfrwt beam="1">  1        1 0.11951464E+00 0.20795260E+04</pdfrwt>
<pdfrwt beam="2">  1       -2 0.21410209E+00 0.20795260E+04</pdfrwt>
<totfact> 0.20150317E+00</totfact>
</mgrwt>
</event>
<event>
12    4  0.4207946E-008  0.2640772E+04  0.7818608E-02  0.8354482E-01
          1   -1    0    0  501    0  0.00000000000E+00  0.00000000000E+00  0.19387556407E+04  0.19387556407E+04  0.00000000000E+00 0. -1.
         -4   -1    0    0    0  501 -0.00000000000E+00 -0.00000000000E+00 -0.89924668988E+03  0.89924668988E+03  0.00000000000E+00 0.  1.
        -24    2    1    2    0    0  0.82133457661E+03 -0.82628427545E+03  0.48847607739E+03  0.12658890635E+04  0.80808739780E+02 0.  0.
        254    2    1    2    0    0 -0.82133457661E+03  0.82628427545E+03  0.55103287348E+03  0.15721132671E+04  0.90031478178E+03 0.  0.
         23    2    4    4    0    0 -0.97224620181E+03  0.57853000678E+03  0.56423092715E+03  0.12674707233E+04  0.90365090445E+02 0.  0.
         23    2    4    4    0    0  0.15091162520E+03  0.24775426867E+03 -0.13198053673E+02  0.30464254379E+03  0.92067337334E+02 0.  0.
          3    1    3    3  502    0  0.22847766850E+03 -0.26001517441E+03  0.11260440356E+03  0.36399132906E+03  0.00000000000E+00 0. -1.
         -4    1    3    3    0  502  0.59285690811E+03 -0.56626910104E+03  0.37587167383E+03  0.90189773449E+03  0.00000000000E+00 0.  1.
         11    1    5    5    0    0 -0.14026262383E+03  0.63864435581E+02  0.10681068382E+03  0.18751211149E+03  0.00000000000E+00 0.  1.
        -11    1    5    5    0    0 -0.83198357798E+03  0.51466557120E+03  0.45742024333E+03  0.10799586118E+04  0.00000000000E+00 0. -1.
          2    1    6    6  503    0  0.14616808599E+03  0.20229942318E+03 -0.38298887994E+02  0.25250142732E+03  0.00000000000E+00 0. -1.
         -2    1    6    6    0  503  0.47435392108E+01  0.45454845493E+02  0.25100834321E+02  0.52141116469E+02  0.00000000000E+00 0.  1.
<mgrwt>
<rscale>  0 0.26407723E+04</rscale>
<asrwt>0</asrwt>
<pdfrwt beam="1">  1        1 0.29827010E+00 0.26407723E+04</pdfrwt>
<pdfrwt beam="2">  1       -4 0.13834564E+00 0.26407723E+04</pdfrwt>
<totfact> 0.51986637E-01</totfact>
</mgrwt>
</event>
<event>
12    4  0.4207946E-008  0.3008266E+04  0.7818608E-02  0.8241375E-01
         -2   -1    0    0    0  501 -0.00000000000E+00  0.00000000000E+00  0.74170802139E+03  0.74170802139E+03  0.00000000000E+00 0.  1.
          1   -1    0    0  501    0  0.00000000000E+00 -0.00000000000E+00 -0.30502776783E+04  0.30502776783E+04  0.00000000000E+00 0. -1.
        -24    2    1    2    0    0  0.24983643060E+03  0.74744088594E+03  0.36106340135E+03  0.87042087610E+03  0.78610442895E+02 0.  0.
        254    2    1    2    0    0 -0.24983643060E+03 -0.74744088594E+03 -0.26696330582E+04  0.29215648235E+04  0.88741998659E+03 0.  0.
         23    2    4    4    0    0 -0.32200201577E+03 -0.72387044115E+02 -0.30274854827E+03  0.45738759988E+03  0.92852306024E+02 0.  0.
         23    2    4    4    0    0  0.72165585176E+02 -0.67505384182E+03 -0.23668845100E+04  0.24641772237E+04  0.95506780332E+02 0.  0.
          1    1    3    3  502    0  0.23985944925E+03  0.71358430380E+03  0.36151568218E+03  0.83512196863E+03  0.00000000000E+00 0. -1.
         -2    1    3    3    0  502  0.99769813425E+01  0.33856582137E+02 -0.45228082681E+00  0.35298907471E+02  0.00000000000E+00 0.  1.
         11    1    5    5    0    0 -0.28528731847E+03 -0.72511410845E+02 -0.22201232199E+03  0.36869530767E+03  0.00000000000E+00 0. -1.
        -11    1    5    5    0    0 -0.36714697302E+02  0.12436672954E+00 -0.80736226275E+02  0.88692292214E+02  0.00000000000E+00 0.  1.
          3    1    6    6  503    0  0.69324008931E+02 -0.66842423486E+03 -0.23612772990E+04  0.24550411928E+04  0.00000000000E+00 0. -1.
         -3    1    6    6    0  503  0.28415762445E+01 -0.66296069565E+01 -0.56072109990E+01  0.91360308197E+01  0.00000000000E+00 0.  1.
<mgrwt>
<rscale>  0 0.30082656E+04</rscale>
<asrwt>0</asrwt>
<pdfrwt beam="1">  1        1 0.46927349E+00 0.30082656E+04</pdfrwt>
<pdfrwt beam="2">  1       -2 0.11410893E+00 0.30082656E+04</pdfrwt>
<totfact> 0.24682961E-01</totfact>
</mgrwt>
</event>
<event>
12    4  0.4207946E-008  0.1316161E+04  0.7818608E-02  0.9016847E-01
          1   -1    0    0  501    0  0.00000000000E+00  0.00000000000E+00  0.18160646624E+04  0.18160646624E+04  0.00000000000E+00 0. -1.
         -2   -1    0    0    0  501 -0.00000000000E+00 -0.00000000000E+00 -0.23846597140E+03  0.23846597140E+03  0.00000000000E+00 0.  1.
        -24    2    1    2    0    0  0.16208255941E+03 -0.25271708889E+03  0.71291612266E+03  0.77772284609E+03  0.80416069923E+02 0.  0.
        254    2    1    2    0    0 -0.16208255941E+03  0.25271708889E+03  0.86468256832E+03  0.12768077877E+04  0.89018284619E+03 0.  0.
         23    2    4    4    0    0 -0.15993396274E+02  0.57036457624E+03  0.52350241624E+03  0.77968675827E+03  0.91022649140E+02 0.  0.
         23    2    4    4    0    0 -0.14608916313E+03 -0.31764748735E+03  0.34118015208E+03  0.49712102942E+03  0.92105656247E+02 0.  0.
          1    1    3    3  502    0  0.11729700779E+03 -0.16700939303E+03  0.38371778893E+03  0.43461484896E+03  0.00000000000E+00 0. -1.
         -2    1    3    3    0  502  0.44785551612E+02 -0.85707695867E+02  0.32919833373E+03  0.34310799713E+03  0.00000000000E+00 0.  1.
         11    1    5    5    0    0  0.35175582583E+01  0.43738894864E+03  0.44530503377E+03  0.62419391114E+03  0.00000000000E+00 0. -1.
        -11    1    5    5    0    0 -0.19510954532E+02  0.13297562759E+03  0.78197382477E+02  0.15549284713E+03  0.00000000000E+00 0.  1.
          2    1    6    6  503    0 -0.69979819298E+02 -0.23376768705E+03  0.26710132676E+03  0.36178394848E+03  0.00000000000E+00 0. -1.
         -2    1    6    6    0  503 -0.76109343834E+02 -0.83879800299E+02  0.74078825317E+02  0.13533708094E+03  0.00000000000E+00 0.  1.
<mgrwt>
<rscale>  0 0.13161605E+04</rscale>
<asrwt>0</asrwt>
<pdfrwt beam="1">  1        1 0.27939456E+00 0.13161605E+04</pdfrwt>
<pdfrwt beam="2">  1       -2 0.36687074E-01 0.13161605E+04</pdfrwt>
<totfact> 0.23959263E+01</totfact>
</mgrwt>
</event>
<event>
12    4  0.4207946E-008  0.1457998E+04  0.7818608E-02  0.8912874E-01
          1   -1    0    0  501    0  0.00000000000E+00  0.00000000000E+00  0.49135291061E+03  0.49135291061E+03  0.00000000000E+00 0. -1.
         -2   -1    0    0    0  501 -0.00000000000E+00 -0.00000000000E+00 -0.10815839982E+04  0.10815839982E+04  0.00000000000E+00 0.  1.
        -24    2    1    2    0    0  0.20573988072E+03  0.14535265416E+03 -0.57414419083E+03  0.63197354959E+03  0.79326684812E+02 0.  0.
        254    2    1    2    0    0 -0.20573988072E+03 -0.14535265416E+03 -0.16086896791E+02  0.94096335926E+03  0.90647502042E+03 0.  0.
         23    2    4    4    0    0 -0.49609995317E+03 -0.27731812433E+01 -0.21688474051E+03  0.54922866920E+03  0.92142749786E+02 0.  0.
         23    2    4    4    0    0  0.29036007245E+03 -0.14257947292E+03  0.20079784372E+03  0.39173469006E+03  0.92186851468E+02 0.  0.
          3    1    3    3  502    0  0.22028976953E+02 -0.12259993531E+01 -0.10453070177E+03  0.10683373303E+03  0.00000000000E+00 0. -1.
         -4    1    3    3    0  502  0.18371090377E+03  0.14657865351E+03 -0.46961348906E+03  0.52513981656E+03  0.00000000000E+00 0.  1.
         11    1    5    5    0    0 -0.36604948709E+03  0.15490339107E+02 -0.11825282929E+03  0.38498819364E+03  0.00000000000E+00 0. -1.
        -11    1    5    5    0    0 -0.13005046608E+03 -0.18263520351E+02 -0.98631911219E+02  0.16424047557E+03  0.00000000000E+00 0.  1.
          2    1    6    6  503    0  0.31505489249E+02 -0.19809044783E+02  0.64513698862E+02  0.74478261586E+02  0.00000000000E+00 0. -1.
         -2    1    6    6    0  503  0.25885458320E+03 -0.12277042813E+03  0.13628414486E+03  0.31725642847E+03  0.00000000000E+00 0.  1.
<mgrwt>
<rscale>  0 0.14579979E+04</rscale>
<asrwt>0</asrwt>
<pdfrwt beam="1">  1        1 0.75592755E-01 0.14579979E+04</pdfrwt>
<pdfrwt beam="2">  1       -2 0.16639754E+00 0.14579979E+04</pdfrwt>
<totfact> 0.87084859E+00</totfact>
</mgrwt>
</event>
<event>
12    4  0.4207946E-008  0.1508216E+04  0.7818608E-02  0.8879007E-01
          1   -1    0    0  501    0  0.00000000000E+00  0.00000000000E+00  0.20517614214E+04  0.20517614214E+04  0.00000000000E+00 0. -1.
         -2   -1    0    0    0  501 -0.00000000000E+00 -0.00000000000E+00 -0.27716629034E+03  0.27716629034E+03  0.00000000000E+00 0.  1.
        -24    2    1    2    0    0  0.10894250158E+02 -0.47456597588E+03  0.46543730397E+03  0.66908926535E+03  0.75610918037E+02 0.  0.
        254    2    1    2    0    0 -0.10894250158E+02  0.47456597588E+03  0.13091578271E+04  0.16598384464E+04  0.90323745593E+03 0.  0.
         23    2    4    4    0    0 -0.40994642277E+03  0.66012930266E+02  0.41536938664E+03  0.59434243927E+03  0.91090236896E+02 0.  0.
         23    2    4    4    0    0  0.39905217261E+03  0.40855304561E+03  0.89378844046E+03  0.10654960071E+04  0.10131997529E+03 0.  0.
          1    1    3    3  502    0 -0.20975699041E+02 -0.23771765462E+03  0.19492126470E+03  0.30812978224E+03  0.00000000000E+00 0. -1.
         -4    1    3    3    0  502  0.31869949198E+02 -0.23684832126E+03  0.27051603927E+03  0.36095948311E+03  0.00000000000E+00 0.  1.
         11    1    5    5    0    0 -0.21658722409E+02 -0.57710966711E+01  0.56417638608E+02  0.60707131042E+02  0.00000000000E+00 0.  1.
        -11    1    5    5    0    0 -0.38828770036E+03  0.71784026937E+02  0.35895174803E+03  0.53363530823E+03  0.00000000000E+00 0. -1.
          2    1    6    6  503    0  0.53913394030E+01 -0.17569881062E+01 -0.55474863785E+00  0.56974813571E+01  0.00000000000E+00 0.  1.
         -2    1    6    6    0  503  0.39366083321E+03  0.41031003372E+03  0.89434318910E+03  0.10597985258E+04  0.00000000000E+00 0. -1.
<mgrwt>
<rscale>  0 0.15082163E+04</rscale>
<asrwt>0</asrwt>
<pdfrwt beam="1">  1        1 0.31565559E+00 0.15082163E+04</pdfrwt>
<pdfrwt beam="2">  1       -2 0.42640969E-01 0.15082163E+04</pdfrwt>
<totfact> 0.12170002E+01</totfact>
</mgrwt>
</event>
<event>
12    4  0.4207946E-008  0.1711481E+04  0.7818608E-02  0.8754843E-01
         -2   -1    0    0    0  501 -0.00000000000E+00  0.00000000000E+00  0.30907103167E+03  0.30907103167E+03  0.00000000000E+00 0.  1.
          1   -1    0    0  501    0  0.00000000000E+00 -0.00000000000E+00 -0.23693314236E+04  0.23693314236E+04  0.00000000000E+00 0. -1.
        -24    2    1    2    0    0  0.24110373040E+03 -0.54574194756E+03 -0.50516685512E+03  0.78531703322E+03  0.74592285193E+02 0.  0.
        254    2    1    2    0    0 -0.24110373040E+03  0.54574194756E+03 -0.15550935368E+04  0.18930854221E+04  0.89971730273E+03 0.  0.
         23    2    4    4    0    0 -0.33075848801E+03  0.47429332438E+02 -0.12454563820E+04  0.12926934761E+04  0.90797052412E+02 0.  0.
         23    2    4    4    0    0  0.89654757605E+02  0.49831261512E+03 -0.30963715480E+03  0.60039194594E+03  0.90784817930E+02 0.  0.
          1    1    3    3  502    0  0.92315701017E+02 -0.14185224994E+03 -0.16896883215E+03  0.23915416723E+03  0.00000000000E+00 0. -1.
         -2    1    3    3    0  502  0.14878802939E+03 -0.40388969762E+03 -0.33619802298E+03  0.54616286599E+03  0.00000000000E+00 0.  1.
         11    1    5    5    0    0 -0.94176039182E+02  0.55377013607E+02 -0.36902345414E+03  0.38485588172E+03  0.00000000000E+00 0. -1.
        -11    1    5    5    0    0 -0.23658244883E+03 -0.79476811691E+01 -0.87643292791E+03  0.90783759442E+03  0.00000000000E+00 0.  1.
          3    1    6    6  503    0  0.32769764159E+02  0.86669862110E+02 -0.94902741156E+02  0.13263503579E+03  0.00000000000E+00 0. -1.
         -3    1    6    6    0  503  0.56884993447E+02  0.41164275301E+03 -0.21473441364E+03  0.46775691014E+03  0.00000000000E+00 0.  1.
<mgrwt>
<rscale>  0 0.17114809E+04</rscale>
<asrwt>0</asrwt>
<pdfrwt beam="1">  1        1 0.36451254E+00 0.17114809E+04</pdfrwt>
<pdfrwt beam="2">  1       -2 0.47549388E-01 0.17114809E+04</pdfrwt>
<totfact> 0.58425094E+00</totfact>
</mgrwt>
</event>
<event>
12    4  0.4207946E-008  0.2854141E+04  0.7818608E-02  0.8286654E-01
         -2   -1    0    0    0  501 -0.00000000000E+00  0.00000000000E+00  0.19004615838E+04  0.19004615838E+04  0.00000000000E+00 0.  1.
          1   -1    0    0  501    0  0.00000000000E+00 -0.00000000000E+00 -0.10715974913E+04  0.10715974913E+04  0.00000000000E+00 0. -1.
        -24    2    1    2    0    0  0.24159141925E+03 -0.12405877833E+04  0.69161636836E+03  0.14433490462E+04  0.86595649237E+02 0.  0.
        254    2    1    2    0    0 -0.24159141925E+03  0.12405877833E+04  0.13724772418E+03  0.15287100288E+04  0.84893636550E+03 0.  0.
         23    2    4    4    0    0  0.80793568189E+02  0.31606854779E+01 -0.17169864545E+03  0.20979048113E+03  0.89409342518E+02 0.  0.
         23    2    4    4    0    0 -0.32238498744E+03  0.12374270978E+04  0.30894636963E+03  0.13189195477E+04  0.94567497497E+02 0.  0.
          3    1    3    3  502    0  0.71898125774E+02 -0.28197215360E+03  0.19679999290E+03  0.35129456742E+03  0.00000000000E+00 0. -1.
         -4    1    3    3    0  502  0.16969329347E+03 -0.95861562966E+03  0.49481637546E+03  0.10920544788E+04  0.00000000000E+00 0.  1.
         11    1    5    5    0    0  0.16501257095E+02  0.70230351608E+01  0.74469345784E+01  0.19418324933E+02  0.00000000000E+00 0.  1.
        -11    1    5    5    0    0  0.64292311093E+02 -0.38623496829E+01 -0.17914558003E+03  0.19037215620E+03  0.00000000000E+00 0. -1.
          1    1    6    6  503    0 -0.28739479796E+03  0.11359454604E+04  0.30812110210E+03  0.12115719015E+04  0.00000000000E+00 0. -1.
         -1    1    6    6    0  503 -0.34990189475E+02  0.10148163734E+03  0.82526753071E+00  0.10734764620E+03  0.00000000000E+00 0.  1.
<mgrwt>
<rscale>  0 0.28541408E+04</rscale>
<asrwt>0</asrwt>
<pdfrwt beam="1">  1        1 0.16486115E+00 0.28541408E+04</pdfrwt>
<pdfrwt beam="2">  1       -2 0.29237870E+00 0.28541408E+04</pdfrwt>
<totfact> 0.35646408E-01</totfact>
</mgrwt>
</event>
<event>
12    4  0.4207946E-008  0.1665931E+04  0.7818608E-02  0.8781037E-01
          1   -1    0    0  501    0  0.00000000000E+00  0.00000000000E+00  0.77595292775E+03  0.77595292775E+03  0.00000000000E+00 0. -1.
         -2   -1    0    0    0  501 -0.00000000000E+00 -0.00000000000E+00 -0.89416713915E+03  0.89416713915E+03  0.00000000000E+00 0.  1.
        -24    2    1    2    0    0  0.91235501819E+02 -0.54731579135E+03  0.15489774858E+03  0.58127404287E+03  0.77509406833E+02 0.  0.
        254    2    1    2    0    0 -0.91235501819E+02  0.54731579135E+03 -0.27311195998E+03  0.10888460240E+04  0.89616796925E+03 0.  0.
         23    2    4    4    0    0  0.13715558845E+03 -0.16608316373E+03  0.90737671306E+02  0.25116301606E+03  0.91947065865E+02 0.  0.
         23    2    4    4    0    0 -0.22839109027E+03  0.71339895509E+03 -0.36384963129E+03  0.83768300797E+03  0.90695691331E+02 0.  0.
          3    1    3    3  502    0  0.50137655839E+02 -0.32084660303E+03  0.50914331972E+02  0.32870746327E+03  0.00000000000E+00 0. -1.
         -4    1    3    3    0  502  0.41097845980E+02 -0.22646918833E+03  0.10398341661E+03  0.25256657961E+03  0.00000000000E+00 0.  1.
         11    1    5    5    0    0  0.71239149374E+02 -0.11469100356E+03  0.10699644849E+02  0.13543827044E+03  0.00000000000E+00 0.  1.
        -11    1    5    5    0    0  0.65916439079E+02 -0.51392160176E+02  0.80038026457E+02  0.11572474561E+03  0.00000000000E+00 0. -1.
          2    1    6    6  503    0 -0.15291035724E+03  0.56725248437E+03 -0.25508732399E+03  0.64048926707E+03  0.00000000000E+00 0.  1.
         -2    1    6    6    0  503 -0.75480733036E+02  0.14614647072E+03 -0.10876230729E+03  0.19719374090E+03  0.00000000000E+00 0. -1.
<mgrwt>
<rscale>  0 0.16659311E+04</rscale>
<asrwt>0</asrwt>
<pdfrwt beam="1">  1        1 0.11937737E+00 0.16659311E+04</pdfrwt>
<pdfrwt beam="2">  1       -2 0.13756418E+00 0.16659311E+04</pdfrwt>
<totfact> 0.72918413E+00</totfact>
</mgrwt>
</event>
<event>
12    4  0.4207946E-008  0.2186008E+04  0.7818608E-02  0.8524275E-01
          1   -1    0    0  501    0  0.00000000000E+00  0.00000000000E+00  0.12140799261E+04  0.12140799261E+04  0.00000000000E+00 0. -1.
         -2   -1    0    0    0  501 -0.00000000000E+00 -0.00000000000E+00 -0.98400217181E+03  0.98400217181E+03  0.00000000000E+00 0.  1.
        -24    2    1    2    0    0  0.30901819343E+03  0.73447786897E+03 -0.29965698349E+03  0.85513653134E+03  0.80710566833E+02 0.  0.
        254    2    1    2    0    0 -0.30901819343E+03 -0.73447786897E+03  0.52973473781E+03  0.13429455666E+04  0.94230245598E+03 0.  0.
         23    2    4    4    0    0  0.27017896522E+03 -0.45581103073E+03  0.57723234532E+02  0.54022823170E+03  0.88057944263E+02 0.  0.
         23    2    4    4    0    0 -0.57919715864E+03 -0.27866683825E+03  0.47201150328E+03  0.80271733490E+03  0.91846095203E+02 0.  0.
          3    1    3    3  502    0  0.13551513874E+03  0.22922438076E+03 -0.86764787441E+02  0.28006481018E+03  0.00000000000E+00 0. -1.
         -4    1    3    3    0  502  0.17350305468E+03  0.50525348821E+03 -0.21289219605E+03  0.57507172116E+03  0.00000000000E+00 0.  1.
         11    1    5    5    0    0  0.11813930163E+03 -0.24882832021E+03  0.66097750324E+02  0.28326902430E+03  0.00000000000E+00 0.  1.
        -11    1    5    5    0    0  0.15203966359E+03 -0.20698271052E+03 -0.83745157921E+01  0.25695920741E+03  0.00000000000E+00 0. -1.
          2    1    6    6  503    0 -0.17599004479E+02 -0.66365248800E+01 -0.22372315080E+01  0.18941320597E+02  0.00000000000E+00 0. -1.
         -2    1    6    6    0  503 -0.56159815417E+03 -0.27203031337E+03  0.47424873479E+03  0.78377601431E+03  0.00000000000E+00 0.  1.
<mgrwt>
<rscale>  0 0.21860076E+04</rscale>
<asrwt>0</asrwt>
<pdfrwt beam="1">  1        1 0.18678153E+00 0.21860076E+04</pdfrwt>
<pdfrwt beam="2">  1       -2 0.15138495E+00 0.21860076E+04</pdfrwt>
<totfact> 0.24435313E+00</totfact>
</mgrwt>
</event>
<event>
12    4  0.4207946E-008  0.1561285E+04  0.7818608E-02  0.8844691E-01
          1   -1    0    0  501    0  0.00000000000E+00  0.00000000000E+00  0.17392727277E+04  0.17392727277E+04  0.00000000000E+00 0. -1.
         -2   -1    0    0    0  501 -0.00000000000E+00 -0.00000000000E+00 -0.35037811558E+03  0.35037811558E+03  0.00000000000E+00 0.  1.
        -24    2    1    2    0    0  0.16473634883E+03  0.31493053208E+03 -0.21143330981E+02  0.36549012483E+03  0.82563225705E+02 0.  0.
        254    2    1    2    0    0 -0.16473634883E+03 -0.31493053208E+03  0.14100379431E+04  0.17241607185E+04  0.92639293901E+03 0.  0.
         23    2    4    4    0    0 -0.17796723272E+03 -0.61832648388E+03  0.75482279266E+03  0.99621969418E+03  0.93253708575E+02 0.  0.
         23    2    4    4    0    0  0.13230883885E+02  0.30339595180E+03  0.65521515048E+03  0.72794102432E+03  0.91471753074E+02 0.  0.
          3    1    3    3  502    0  0.78561332279E+02  0.80819390727E+02 -0.27210677423E+02  0.11594859987E+03  0.00000000000E+00 0. -1.
         -4    1    3    3    0  502  0.86175016555E+02  0.23411114135E+03  0.60673464420E+01  0.24954152495E+03  0.00000000000E+00 0.  1.
         11    1    5    5    0    0 -0.16505601410E+03 -0.50676128623E+03  0.57333469341E+03  0.78279190062E+03  0.00000000000E+00 0. -1.
        -11    1    5    5    0    0 -0.12911218616E+02 -0.11156519765E+03  0.18148809925E+03  0.21342779356E+03  0.00000000000E+00 0.  1.
          3    1    6    6  503    0  0.19114254233E+02  0.27201184048E+03  0.63243822072E+03  0.68871902769E+03  0.00000000000E+00 0. -1.
         -3    1    6    6    0  503 -0.58833703478E+01  0.31384111324E+02  0.22776929758E+02  0.39221996628E+02  0.00000000000E+00 0.  1.
<mgrwt>
<rscale>  0 0.15612855E+04</rscale>
<asrwt>0</asrwt>
<pdfrwt beam="1">  1        1 0.26758041E+00 0.15612855E+04</pdfrwt>
<pdfrwt beam="2">  1       -2 0.53904327E-01 0.15612855E+04</pdfrwt>
<totfact> 0.12273489E+01</totfact>
</mgrwt>
</event>
<event>
12    4  0.4207946E-008  0.2103653E+04  0.7818608E-02  0.8559636E-01
          1   -1    0    0  501    0  0.00000000000E+00  0.00000000000E+00  0.18638504051E+04  0.18638504051E+04  0.00000000000E+00 0. -1.
         -2   -1    0    0    0  501 -0.00000000000E+00 -0.00000000000E+00 -0.59357725755E+03  0.59357725755E+03  0.00000000000E+00 0.  1.
        -24    2    1    2    0    0 -0.29833645885E+03  0.63873725391E+03 -0.47598942247E+02  0.71146482588E+03  0.83226299570E+02 0.  0.
        254    2    1    2    0    0  0.29833645885E+03 -0.63873725391E+03  0.13178720898E+04  0.17459628368E+04  0.90255717830E+03 0.  0.
         23    2    4    4    0    0 -0.26911331086E+03 -0.36723554011E+02  0.51650934477E+03  0.59027960409E+03  0.88755361897E+02 0.  0.
         23    2    4    4    0    0  0.56744976971E+03 -0.60201369990E+03  0.80136274501E+03  0.11556832327E+04  0.94877548289E+02 0.  0.
          1    1    3    3  502    0 -0.12271859226E+03  0.26171616844E+03  0.21457212729E+02  0.28985447674E+03  0.00000000000E+00 0. -1.
         -2    1    3    3    0  502 -0.17561786659E+03  0.37702108548E+03 -0.69056154976E+02  0.42161034914E+03  0.00000000000E+00 0.  1.
         11    1    5    5    0    0 -0.61935304685E+02 -0.10358880321E+02  0.21145700306E+03  0.22058411663E+03  0.00000000000E+00 0. -1.
        -11    1    5    5    0    0 -0.20717800617E+03 -0.26364673690E+02  0.30505234171E+03  0.36969548745E+03  0.00000000000E+00 0.  1.
          1    1    6    6  503    0  0.56446769601E+02 -0.10036685390E+03  0.88157335883E+02  0.14502227081E+03  0.00000000000E+00 0. -1.
         -1    1    6    6    0  503  0.51100300011E+03 -0.50164684600E+03  0.71320540913E+03  0.10106609619E+04  0.00000000000E+00 0.  1.
<mgrwt>
<rscale>  0 0.21036532E+04</rscale>
<asrwt>0</asrwt>
<pdfrwt beam="1">  1        1 0.28674621E+00 0.21036532E+04</pdfrwt>
<pdfrwt beam="2">  1       -2 0.91319579E-01 0.21036532E+04</pdfrwt>
<totfact> 0.30415114E+00</totfact>
</mgrwt>
</event>
<event>
12    4  0.4207946E-008  0.1342710E+04  0.7818608E-02  0.8996365E-01
          1   -1    0    0  501    0  0.00000000000E+00  0.00000000000E+00  0.43702668423E+03  0.43702668423E+03  0.00000000000E+00 0. -1.
         -2   -1    0    0    0  501 -0.00000000000E+00 -0.00000000000E+00 -0.10313268035E+04  0.10313268035E+04  0.00000000000E+00 0.  1.
        -24    2    1    2    0    0 -0.19650261459E+03 -0.23831562958E+03 -0.35140124839E+03  0.47414744074E+03  0.76976238827E+02 0.  0.
        254    2    1    2    0    0  0.19650261459E+03  0.23831562958E+03 -0.24289887084E+03  0.99420604696E+03  0.91325691101E+03 0.  0.
         23    2    4    4    0    0  0.18695022153E+03 -0.32475519635E+03 -0.36304837830E+02  0.38748367996E+03  0.91701898031E+02 0.  0.
         23    2    4    4    0    0  0.95523930597E+01  0.56307082593E+03 -0.20659403301E+03  0.60672236699E+03  0.91054560061E+02 0.  0.
          1    1    3    3  502    0 -0.17955128578E+03 -0.22810889015E+03 -0.34939836326E+03  0.45425933809E+03  0.00000000000E+00 0. -1.
         -2    1    3    3    0  502 -0.16951328813E+02 -0.10206739427E+02 -0.20028851353E+01  0.19888102653E+02  0.00000000000E+00 0.  1.
         11    1    5    5    0    0  0.64707540493E+02 -0.15503247106E+03 -0.56757525791E+02  0.17732329124E+03  0.00000000000E+00 0.  1.
        -11    1    5    5    0    0  0.12224268104E+03 -0.16972272529E+03  0.20452687961E+02  0.21016038873E+03  0.00000000000E+00 0. -1.
          3    1    6    6  503    0  0.64454865407E+01  0.29239271086E+03 -0.15554793255E+03  0.33125549201E+03  0.00000000000E+00 0. -1.
         -3    1    6    6    0  503  0.31069065190E+01  0.27067811507E+03 -0.51046100464E+02  0.27546687499E+03  0.00000000000E+00 0.  1.
<mgrwt>
<rscale>  0 0.13427097E+04</rscale>
<asrwt>0</asrwt>
<pdfrwt beam="1">  1        1 0.67234874E-01 0.13427097E+04</pdfrwt>
<pdfrwt beam="2">  1       -2 0.15866566E+00 0.13427097E+04</pdfrwt>
<totfact> 0.11739861E+01</totfact>
</mgrwt>
</event>
<event>
12    4  0.4207946E-008  0.1552362E+04  0.7818608E-02  0.8850361E-01
          1   -1    0    0  501    0  0.00000000000E+00  0.00000000000E+00  0.23928662650E+04  0.23928662650E+04  0.00000000000E+00 0. -1.
         -2   -1    0    0    0  501 -0.00000000000E+00 -0.00000000000E+00 -0.25177196325E+03  0.25177196325E+03  0.00000000000E+00 0.  1.
        -24    2    1    2    0    0  0.38168236696E+03  0.14571064041E+03  0.18526550000E+03  0.45609090867E+03  0.82356490342E+02 0.  0.
        254    2    1    2    0    0 -0.38168236696E+03 -0.14571064041E+03  0.19558288017E+04  0.21885473196E+04  0.89306217495E+03 0.  0.
         23    2    4    4    0    0 -0.22549392607E+03 -0.46530979820E+03  0.15718750304E+04  0.16572423182E+04  0.91105822506E+02 0.  0.
         23    2    4    4    0    0 -0.15618844089E+03  0.31959915778E+03  0.38395377131E+03  0.53130500140E+03  0.91247220673E+02 0.  0.
          3    1    3    3  502    0  0.14908914823E+03  0.18292626918E+02  0.49504310654E+02  0.15815457974E+03  0.00000000000E+00 0. -1.
         -4    1    3    3    0  502  0.23259321873E+03  0.12741801350E+03  0.13576118935E+03  0.29793632893E+03  0.00000000000E+00 0.  1.
         11    1    5    5    0    0 -0.17060151879E+03 -0.42036227001E+03  0.13355421234E+04  0.14104900140E+04  0.00000000000E+00 0.  1.
        -11    1    5    5    0    0 -0.54892407276E+02 -0.44947528189E+02  0.23633290701E+03  0.24675230415E+03  0.00000000000E+00 0. -1.
          3    1    6    6  503    0 -0.77226564896E+02  0.12934806258E+03  0.10122938824E+03  0.18150000733E+03  0.00000000000E+00 0. -1.
         -3    1    6    6    0  503 -0.78961875995E+02  0.19025109520E+03  0.28272438308E+03  0.34980499406E+03  0.00000000000E+00 0.  1.
<mgrwt>
<rscale>  0 0.15523616E+04</rscale>
<asrwt>0</asrwt>
<pdfrwt beam="1">  1        1 0.36813326E+00 0.15523616E+04</pdfrwt>
<pdfrwt beam="2">  1       -2 0.38734150E-01 0.15523616E+04</pdfrwt>
<totfact> 0.85746161E+00</totfact>
</mgrwt>
</event>
<event>
12    4  0.4207946E-008  0.2022574E+04  0.7818608E-02  0.8596139E-01
         -2   -1    0    0    0  501 -0.00000000000E+00  0.00000000000E+00  0.20727594102E+03  0.20727594102E+03  0.00000000000E+00 0.  1.
          1   -1    0    0  501    0  0.00000000000E+00 -0.00000000000E+00 -0.49340076341E+04  0.49340076341E+04  0.00000000000E+00 0. -1.
        -24    2    1    2    0    0 -0.12597629958E+03  0.66424109923E+02 -0.38464612026E+04  0.38499328412E+04  0.80230343545E+02 0.  0.
        254    2    1    2    0    0  0.12597629958E+03 -0.66424109923E+02 -0.88027049046E+03  0.12913507339E+04  0.93403875253E+03 0.  0.
         23    2    4    4    0    0 -0.57327552003E+02  0.20872992766E+03 -0.91703454268E+03  0.94666745344E+03  0.91500185882E+02 0.  0.
         23    2    4    4    0    0  0.18330385158E+03 -0.27515403758E+03  0.36764052219E+02  0.34468328049E+03  0.90249221135E+02 0.  0.
          3    1    3    3  502    0 -0.85846654830E+02  0.23742546670E+01 -0.17434834871E+04  0.17455973061E+04  0.00000000000E+00 0. -1.
         -4    1    3    3    0  502 -0.40129644749E+02  0.64049855256E+02 -0.21029777155E+04  0.21043355351E+04  0.00000000000E+00 0.  1.
         11    1    5    5    0    0  0.23157790546E+01 -0.75621440912E+01 -0.69110202426E+02  0.69561260305E+02  0.00000000000E+00 0. -1.
        -11    1    5    5    0    0 -0.59643331057E+02  0.21629207175E+03 -0.84792434026E+03  0.87710619314E+03  0.00000000000E+00 0.  1.
          3    1    6    6  503    0  0.34586458837E+02 -0.12602286303E+03 -0.11450921570E+01  0.13068778205E+03  0.00000000000E+00 0. -1.
         -3    1    6    6    0  503  0.14871739275E+03 -0.14913117455E+03  0.37909144376E+02  0.21399549845E+03  0.00000000000E+00 0.  1.
<mgrwt>
<rscale>  0 0.20225737E+04</rscale>
<asrwt>0</asrwt>
<pdfrwt beam="1">  1        1 0.75907807E+00 0.20225737E+04</pdfrwt>
<pdfrwt beam="2">  1       -2 0.31888607E-01 0.20225737E+04</pdfrwt>
<totfact> 0.79416051E-02</totfact>
</mgrwt>
</event>
<event>
12    4  0.4207946E-008  0.1281109E+04  0.7818608E-02  0.9044681E-01
          1   -1    0    0  501    0  0.00000000000E+00  0.00000000000E+00  0.20394525044E+03  0.20394525044E+03  0.00000000000E+00 0. -1.
         -2   -1    0    0    0  501 -0.00000000000E+00 -0.00000000000E+00 -0.20118641052E+04  0.20118641052E+04  0.00000000000E+00 0.  1.
        -24    2    1    2    0    0 -0.18770555852E+03  0.25269502414E+03 -0.49786058077E+03  0.59465471956E+03  0.81614494332E+02 0.  0.
        254    2    1    2    0    0  0.18770555852E+03 -0.25269502414E+03 -0.13100582740E+04  0.16211546361E+04  0.90155505709E+03 0.  0.
         23    2    4    4    0    0 -0.74556863274E+02  0.28772004373E+03 -0.24680150427E+03  0.39644101315E+03  0.88954735517E+02 0.  0.
         23    2    4    4    0    0  0.26226242180E+03 -0.54041506787E+03 -0.10632567698E+04  0.12247136230E+04  0.92620064755E+02 0.  0.
          1    1    3    3  502    0 -0.67604124251E+02  0.12014177935E+03 -0.28520701792E+03  0.31677658978E+03  0.00000000000E+00 0. -1.
         -4    1    3    3    0  502 -0.12010143427E+03  0.13255324478E+03 -0.21265356285E+03  0.27787812978E+03  0.00000000000E+00 0.  1.
         11    1    5    5    0    0 -0.59271072480E+02  0.10135813197E+03 -0.13357105551E+03  0.17784194617E+03  0.00000000000E+00 0. -1.
        -11    1    5    5    0    0 -0.15285790795E+02  0.18636191177E+03 -0.11323044876E+03  0.21859906698E+03  0.00000000000E+00 0.  1.
          2    1    6    6  503    0  0.47047469025E+02 -0.12318933694E+03 -0.16543181667E+03  0.21155794252E+03  0.00000000000E+00 0. -1.
         -2    1    6    6    0  503  0.21521495277E+03 -0.41722573093E+03 -0.89782495310E+03  0.10131556805E+04  0.00000000000E+00 0.  1.
<mgrwt>
<rscale>  0 0.12811091E+04</rscale>
<asrwt>0</asrwt>
<pdfrwt beam="1">  1        1 0.31376194E-01 0.12811091E+04</pdfrwt>
<pdfrwt beam="2">  1       -2 0.30951753E+00 0.12811091E+04</pdfrwt>
<totfact> 0.34830552E+00</totfact>
</mgrwt>
</event>
<event>
12    4  0.4207946E-008  0.2432808E+04  0.7818608E-02  0.8427322E-01
         -2   -1    0    0    0  501 -0.00000000000E+00  0.00000000000E+00  0.61429569830E+03  0.61429569830E+03  0.00000000000E+00 0.  1.
          1   -1    0    0  501    0  0.00000000000E+00 -0.00000000000E+00 -0.24086756004E+04  0.24086756004E+04  0.00000000000E+00 0. -1.
        -24    2    1    2    0    0 -0.10242152905E+03 -0.94979296182E+03 -0.22347702293E+03  0.98448105855E+03  0.81634153007E+02 0.  0.
        254    2    1    2    0    0  0.10242152905E+03  0.94979296182E+03 -0.15709028792E+04  0.20384902402E+04  0.88040318235E+03 0.  0.
         23    2    4    4    0    0 -0.35513168910E+03  0.22240969490E+03 -0.61766145727E+03  0.75179925997E+03  0.90065878667E+02 0.  0.
         23    2    4    4    0    0  0.45755321815E+03  0.72738326692E+03 -0.95324142192E+03  0.12866909802E+04  0.91995139296E+02 0.  0.
          3    1    3    3  502    0 -0.50061778978E+02 -0.25018746880E+03 -0.31200899961E+02  0.25704755867E+03  0.00000000000E+00 0. -1.
         -4    1    3    3    0  502 -0.52359750071E+02 -0.69960549302E+03 -0.19227612297E+03  0.72743349989E+03  0.00000000000E+00 0.  1.
         11    1    5    5    0    0 -0.24757785287E+03  0.10372383174E+03 -0.38591402751E+03  0.47008835673E+03  0.00000000000E+00 0.  1.
        -11    1    5    5    0    0 -0.10755383622E+03  0.11868586316E+03 -0.23174742977E+03  0.28171090324E+03  0.00000000000E+00 0. -1.
          2    1    6    6  503    0  0.28794329165E+01 -0.24919024333E+01 -0.17206350704E+01  0.41786716434E+01  0.00000000000E+00 0. -1.
         -2    1    6    6    0  503  0.45467378523E+03  0.72987516935E+03 -0.95152078685E+03  0.12825123086E+04  0.00000000000E+00 0.  1.
<mgrwt>
<rscale>  0 0.24328083E+04</rscale>
<asrwt>0</asrwt>
<pdfrwt beam="1">  1        1 0.37056548E+00 0.24328083E+04</pdfrwt>
<pdfrwt beam="2">  1       -2 0.94507030E-01 0.24328083E+04</pdfrwt>
<totfact> 0.11609312E+00</totfact>
</mgrwt>
</event>
<event>
12    4  0.4207946E-008  0.1420329E+04  0.7818608E-02  0.8939233E-01
         -2   -1    0    0    0  501 -0.00000000000E+00  0.00000000000E+00  0.21227001911E+03  0.21227001911E+03  0.00000000000E+00 0.  1.
          1   -1    0    0  501    0  0.00000000000E+00 -0.00000000000E+00 -0.23759076057E+04  0.23759076057E+04  0.00000000000E+00 0. -1.
        -24    2    1    2    0    0 -0.11490023606E+03 -0.25551238312E+03 -0.88139286367E+02  0.30405508399E+03  0.78691283686E+02 0.  0.
        254    2    1    2    0    0  0.11490023606E+03  0.25551238312E+03 -0.20754983002E+04  0.22841225408E+04  0.91161063238E+03 0.  0.
         23    2    4    4    0    0 -0.24096381373E+03  0.45084054404E+03 -0.92536044423E+03  0.10608374334E+04  0.88109889939E+02 0.  0.
         23    2    4    4    0    0  0.35586404979E+03 -0.19532816093E+03 -0.11501378559E+04  0.12232851074E+04  0.93899168436E+02 0.  0.
          3    1    3    3  502    0 -0.11518944310E+03 -0.25853496276E+03 -0.93343281301E+02  0.29803003697E+03  0.00000000000E+00 0. -1.
         -4    1    3    3    0  502  0.28920704428E+00  0.30225796400E+01  0.52039949343E+01  0.60250470264E+01  0.00000000000E+00 0.  1.
         11    1    5    5    0    0 -0.19380096230E+03  0.41082819549E+03 -0.84584298928E+03  0.96009842293E+03  0.00000000000E+00 0.  1.
        -11    1    5    5    0    0 -0.47162851428E+02  0.40012348558E+02 -0.79517454957E+02  0.10073901049E+03  0.00000000000E+00 0. -1.
          3    1    6    6  503    0  0.22679908202E+03 -0.72590615778E+02 -0.68513864026E+03  0.72534279998E+03  0.00000000000E+00 0. -1.
         -3    1    6    6    0  503  0.12906496777E+03 -0.12273754515E+03 -0.46499921568E+03  0.49794230738E+03  0.00000000000E+00 0.  1.
<mgrwt>
<rscale>  0 0.14203295E+04</rscale>
<asrwt>0</asrwt>
<pdfrwt beam="1">  1        1 0.36552425E+00 0.14203295E+04</pdfrwt>
<pdfrwt beam="2">  1       -2 0.32656925E-01 0.14203295E+04</pdfrwt>
<totfact> 0.12364726E+01</totfact>
</mgrwt>
</event>
<event>
12    4  0.4207946E-008  0.2186605E+04  0.7818608E-02  0.8524024E-01
          1   -1    0    0  501    0  0.00000000000E+00  0.00000000000E+00  0.59192489838E+03  0.59192489838E+03  0.00000000000E+00 0. -1.
         -2   -1    0    0    0  501 -0.00000000000E+00 -0.00000000000E+00 -0.20193616837E+04  0.20193616837E+04  0.00000000000E+00 0.  1.
        -24    2    1    2    0    0  0.21273934898E+03 -0.86125231554E+03 -0.38208329297E+03  0.96914130031E+03  0.78953375954E+02 0.  0.
        254    2    1    2    0    0 -0.21273934898E+03  0.86125231554E+03 -0.10453534924E+04  0.16421452818E+04  0.90380507904E+03 0.  0.
         23    2    4    4    0    0  0.66837565664E+02  0.64697405297E+03 -0.14701252117E+03  0.67295185496E+03  0.90602606566E+02 0.  0.
         23    2    4    4    0    0 -0.27957691464E+03  0.21427826257E+03 -0.89834097123E+03  0.96919342685E+03  0.90779805306E+02 0.  0.
          1    1    3    3  502    0  0.15723913004E+02 -0.14913852352E+02 -0.98191986759E+01  0.23792458780E+02  0.00000000000E+00 0. -1.
         -2    1    3    3    0  502  0.19701543597E+03 -0.84633846319E+03 -0.37226409429E+03  0.94534884153E+03  0.00000000000E+00 0.  1.
         11    1    5    5    0    0  0.49949323534E+02  0.50728970389E+03 -0.76104520600E+02  0.51539274020E+03  0.00000000000E+00 0.  1.
        -11    1    5    5    0    0  0.16888242130E+02  0.13968434907E+03 -0.70908000568E+02  0.15755911476E+03  0.00000000000E+00 0. -1.
          4    1    6    6  503    0 -0.86997198239E+02  0.18242951932E+02 -0.21178223817E+03  0.22968028693E+03  0.00000000000E+00 0. -1.
         -4    1    6    6    0  503 -0.19257971640E+03  0.19603531064E+03 -0.68655873306E+03  0.73951313993E+03  0.00000000000E+00 0.  1.
<mgrwt>
<rscale>  0 0.21866051E+04</rscale>
<asrwt>0</asrwt>
<pdfrwt beam="1">  1        1 0.91065367E-01 0.21866051E+04</pdfrwt>
<pdfrwt beam="2">  1       -2 0.31067103E+00 0.21866051E+04</pdfrwt>
<totfact> 0.76391128E-01</totfact>
</mgrwt>
</event>
<event>
12    4  0.4207946E-008  0.1174893E+04  0.7818608E-02  0.9135121E-01
         -2   -1    0    0    0  501 -0.00000000000E+00  0.00000000000E+00  0.14614729793E+03  0.14614729793E+03  0.00000000000E+00 0.  1.
          1   -1    0    0  501    0  0.00000000000E+00 -0.00000000000E+00 -0.23612715229E+04  0.23612715229E+04  0.00000000000E+00 0. -1.
        -24    2    1    2    0    0  0.10077659506E+03 -0.99352127326E+01 -0.93664060585E+03  0.94533172299E+03  0.78114092128E+02 0.  0.
        254    2    1    2    0    0 -0.10077659506E+03  0.99352127326E+01 -0.12784836191E+04  0.15620870979E+04  0.89181898744E+03 0.  0.
         23    2    4    4    0    0 -0.33069463485E+03 -0.32405715946E+03 -0.78910119677E+03  0.91944599853E+03  0.91259308334E+02 0.  0.
         23    2    4    4    0    0  0.22991803980E+03  0.33399237220E+03 -0.48938242236E+03  0.64264109933E+03  0.95284928084E+02 0.  0.
          1    1    3    3  502    0  0.86682487397E+02  0.24889589586E+02 -0.64073984239E+03  0.64705555474E+03  0.00000000000E+00 0. -1.
         -4    1    3    3    0  502  0.14094107660E+02 -0.34824802318E+02 -0.29590076346E+03  0.29827616825E+03  0.00000000000E+00 0.  1.
         11    1    5    5    0    0 -0.18475864586E+03 -0.20117239435E+03 -0.54517543462E+03  0.60977237063E+03  0.00000000000E+00 0.  1.
        -11    1    5    5    0    0 -0.14593598899E+03 -0.12288476511E+03 -0.24392576214E+03  0.30967362790E+03  0.00000000000E+00 0. -1.
          3    1    6    6  503    0  0.83027099113E-01  0.29294996861E+02 -0.68382253698E+02  0.74393120350E+02  0.00000000000E+00 0. -1.
         -3    1    6    6    0  503  0.22983501270E+03  0.30469737534E+03 -0.42100016866E+03  0.56824797898E+03  0.00000000000E+00 0.  1.
<mgrwt>
<rscale>  0 0.11748931E+04</rscale>
<asrwt>0</asrwt>
<pdfrwt beam="1">  1        1 0.36327251E+00 0.11748931E+04</pdfrwt>
<pdfrwt beam="2">  1       -2 0.22484202E-01 0.11748931E+04</pdfrwt>
<totfact> 0.25674005E+01</totfact>
</mgrwt>
</event>
<event>
12    4  0.4207946E-008  0.1652286E+04  0.7818608E-02  0.8789055E-01
         -2   -1    0    0    0  501 -0.00000000000E+00  0.00000000000E+00  0.12136322798E+04  0.12136322798E+04  0.00000000000E+00 0.  1.
          1   -1    0    0  501    0  0.00000000000E+00 -0.00000000000E+00 -0.56237186660E+03  0.56237186660E+03  0.00000000000E+00 0. -1.
        -24    2    1    2    0    0 -0.43399071124E+03 -0.37002661535E+03  0.39151871711E+03  0.69617605647E+03  0.78144495919E+02 0.  0.
        254    2    1    2    0    0  0.43399071124E+03  0.37002661535E+03  0.25974169606E+03  0.10798280899E+04  0.87937211779E+03 0.  0.
         23    2    4    4    0    0  0.14978303073E+03  0.59545312320E+03 -0.62931308074E+01  0.62091183734E+03  0.92154913261E+02 0.  0.
         23    2    4    4    0    0  0.28420768051E+03 -0.22542650784E+03  0.26603482687E+03  0.45891625255E+03  0.90766082036E+02 0.  0.
          3    1    3    3  502    0 -0.22867311727E+03 -0.21330014312E+03  0.17020174187E+03  0.35602946304E+03  0.00000000000E+00 0. -1.
         -4    1    3    3    0  502 -0.20531759397E+03 -0.15672647223E+03  0.22131697524E+03  0.34014659343E+03  0.00000000000E+00 0.  1.
         11    1    5    5    0    0  0.76988035653E+02  0.14762064951E+03  0.11179710230E+02  0.16686521422E+03  0.00000000000E+00 0. -1.
        -11    1    5    5    0    0  0.72794995078E+02  0.44783247369E+03 -0.17472841038E+02  0.45404662313E+03  0.00000000000E+00 0.  1.
          3    1    6    6  503    0  0.35397750297E+02 -0.53759138794E+02  0.15257786565E+02  0.66150175969E+02  0.00000000000E+00 0. -1.
         -3    1    6    6    0  503  0.24880993022E+03 -0.17166736905E+03  0.25077704030E+03  0.39276607658E+03  0.00000000000E+00 0.  1.
<mgrwt>
<rscale>  0 0.16522865E+04</rscale>
<asrwt>0</asrwt>
<pdfrwt beam="1">  1        1 0.86518749E-01 0.16522865E+04</pdfrwt>
<pdfrwt beam="2">  1       -2 0.18671266E+00 0.16522865E+04</pdfrwt>
<totfact> 0.51211577E+00</totfact>
</mgrwt>
</event>
<event>
12    4  0.4207946E-008  0.1461567E+04  0.7818608E-02  0.8910421E-01
          1   -1    0    0  501    0  0.00000000000E+00  0.00000000000E+00  0.49267112870E+03  0.49267112870E+03  0.00000000000E+00 0. -1.
         -2   -1    0    0    0  501 -0.00000000000E+00 -0.00000000000E+00 -0.10839774123E+04  0.10839774123E+04  0.00000000000E+00 0.  1.
        -24    2    1    2    0    0 -0.72646239690E+02  0.34440405879E+03  0.14431353425E+03  0.38869882726E+03  0.79804450353E+02 0.  0.
        254    2    1    2    0    0  0.72646239690E+02 -0.34440405879E+03 -0.73561981780E+03  0.11879497137E+04  0.86382658797E+03 0.  0.
         23    2    4    4    0    0  0.45010675274E+03 -0.21880304651E+03 -0.29834495291E+03  0.59000890242E+03  0.92897427215E+02 0.  0.
         23    2    4    4    0    0 -0.37746051305E+03 -0.12560101228E+03 -0.43727486489E+03  0.59794081127E+03  0.89843492399E+02 0.  0.
          3    1    3    3  502    0 -0.48284547730E+02  0.11626095775E+03  0.84406677376E+02  0.15156680056E+03  0.00000000000E+00 0. -1.
         -4    1    3    3    0  502 -0.24361691960E+02  0.22814310104E+03  0.59906856870E+02  0.23713202670E+03  0.00000000000E+00 0.  1.
         11    1    5    5    0    0  0.12934547362E+03 -0.10021189493E+03 -0.12920042817E+03  0.20848363502E+03  0.00000000000E+00 0. -1.
        -11    1    5    5    0    0  0.32076127912E+03 -0.11859115158E+03 -0.16914452474E+03  0.38152526740E+03  0.00000000000E+00 0.  1.
          3    1    6    6  503    0 -0.56209461826E+02  0.75579595468E+01 -0.90715729121E+02  0.10698583954E+03  0.00000000000E+00 0. -1.
         -3    1    6    6    0  503 -0.32125105123E+03 -0.13315897183E+03 -0.34655913576E+03  0.49095497174E+03  0.00000000000E+00 0.  1.
<mgrwt>
<rscale>  0 0.14615668E+04</rscale>
<asrwt>0</asrwt>
<pdfrwt beam="1">  1        1 0.75795559E-01 0.14615668E+04</pdfrwt>
<pdfrwt beam="2">  1       -2 0.16676575E+00 0.14615668E+04</pdfrwt>
<totfact> 0.86211416E+00</totfact>
</mgrwt>
</event>
<event>
12    4  0.4207946E-008  0.2870969E+04  0.7818608E-02  0.8281568E-01
         -2   -1    0    0    0  501 -0.00000000000E+00  0.00000000000E+00  0.13918834106E+04  0.13918834106E+04  0.00000000000E+00 0.  1.
          1   -1    0    0  501    0  0.00000000000E+00 -0.00000000000E+00 -0.14804516707E+04  0.14804516707E+04  0.00000000000E+00 0. -1.
        -24    2    1    2    0    0  0.55845083952E+03 -0.68450288292E+03  0.90219945388E+03  0.12647574256E+04  0.72359892664E+02 0.  0.
        254    2    1    2    0    0 -0.55845083952E+03  0.68450288292E+03 -0.99076771396E+03  0.16075776558E+04  0.90679309631E+03 0.  0.
         23    2    4    4    0    0 -0.51646921560E+03  0.24177245662E+03 -0.70994124820E+02  0.58190966139E+03  0.91565915110E+02 0.  0.
         23    2    4    4    0    0 -0.41981623914E+02  0.44273042630E+03 -0.91977358914E+03  0.10256679944E+04  0.90767242771E+02 0.  0.
          3    1    3    3  502    0  0.71897962961E+02 -0.11829238705E+03  0.11629445251E+03  0.18079492691E+03  0.00000000000E+00 0. -1.
         -4    1    3    3    0  502  0.48655287656E+03 -0.56621049587E+03  0.78590500137E+03  0.10839624987E+04  0.00000000000E+00 0.  1.
         11    1    5    5    0    0 -0.48037301141E+03  0.21019914442E+03 -0.42364900284E+02  0.52605769188E+03  0.00000000000E+00 0. -1.
        -11    1    5    5    0    0 -0.36096204190E+02  0.31573312205E+02 -0.28629224536E+02  0.55851969510E+02  0.00000000000E+00 0.  1.
          2    1    6    6  503    0 -0.15226039925E+02  0.32090886358E+02 -0.13441489485E+03  0.13902885038E+03  0.00000000000E+00 0.  1.
         -2    1    6    6    0  503 -0.26755583989E+02  0.41063953994E+03 -0.78535869429E+03  0.88663914403E+03  0.00000000000E+00 0. -1.
<mgrwt>
<rscale>  0 0.28709693E+04</rscale>
<asrwt>0</asrwt>
<pdfrwt beam="1">  1        1 0.22776179E+00 0.28709693E+04</pdfrwt>
<pdfrwt beam="2">  1       -2 0.21413591E+00 0.28709693E+04</pdfrwt>
<totfact> 0.54940266E-01</totfact>
</mgrwt>
</event>
<event>
12    4  0.4207946E-008  0.1183382E+04  0.7818608E-02  0.9127528E-01
         -2   -1    0    0    0  501 -0.00000000000E+00  0.00000000000E+00  0.59387846899E+03  0.59387846899E+03  0.00000000000E+00 0.  1.
          1   -1    0    0  501    0  0.00000000000E+00 -0.00000000000E+00 -0.58951185407E+03  0.58951185407E+03  0.00000000000E+00 0. -1.
        -24    2    1    2    0    0 -0.12910241349E+03 -0.34218658680E+02 -0.19640697080E+03  0.25065148739E+03  0.80075715297E+02 0.  0.
        254    2    1    2    0    0  0.12910241349E+03  0.34218658680E+02  0.20077358572E+03  0.93273883567E+03  0.90102905229E+03 0.  0.
         23    2    4    4    0    0  0.14459892239E+03  0.45138024995E+03  0.11335250007E+03  0.49586788078E+03  0.91559748295E+02 0.  0.
         23    2    4    4    0    0 -0.15496508896E+02 -0.41716159127E+03  0.87421085648E+02  0.43687095489E+03  0.94603646815E+02 0.  0.
          3    1    3    3  502    0 -0.11570753263E+03 -0.20300692938E+02 -0.19907454832E+03  0.23115152396E+03  0.00000000000E+00 0. -1.
         -4    1    3    3    0  502 -0.13394880861E+02 -0.13917965742E+02  0.26675775241E+01  0.19499963424E+02  0.00000000000E+00 0.  1.
         11    1    5    5    0    0  0.10933065324E+03  0.25332174798E+03  0.27960799634E+02  0.27732094413E+03  0.00000000000E+00 0. -1.
        -11    1    5    5    0    0  0.35268269149E+02  0.19805850197E+03  0.85391700438E+02  0.21854693664E+03  0.00000000000E+00 0.  1.
          3    1    6    6  503    0 -0.43888447035E+01 -0.87069951766E+01 -0.12861043952E+02  0.16139398204E+02  0.00000000000E+00 0. -1.
         -3    1    6    6    0  503 -0.11107664193E+02 -0.40845459610E+03  0.10028212960E+03  0.42073155669E+03  0.00000000000E+00 0.  1.
<mgrwt>
<rscale>  0 0.11833823E+04</rscale>
<asrwt>0</asrwt>
<pdfrwt beam="1">  1        1 0.90694132E-01 0.11833823E+04</pdfrwt>
<pdfrwt beam="2">  1       -2 0.91365918E-01 0.11833823E+04</pdfrwt>
<totfact> 0.31099905E+01</totfact>
</mgrwt>
</event>
<event>
12    4  0.4207946E-008  0.1871048E+04  0.7818608E-02  0.8669403E-01
         -2   -1    0    0    0  501 -0.00000000000E+00  0.00000000000E+00  0.19089136294E+04  0.19089136294E+04  0.00000000000E+00 0.  1.
          1   -1    0    0  501    0  0.00000000000E+00 -0.00000000000E+00 -0.45848337717E+03  0.45848337717E+03  0.00000000000E+00 0. -1.
        -24    2    1    2    0    0 -0.55432524991E+03 -0.25165398766E+03  0.10743539767E+04  0.12374710825E+04  0.80572951204E+02 0.  0.
        254    2    1    2    0    0  0.55432524991E+03  0.25165398766E+03  0.37607627550E+03  0.11299259241E+04  0.87446727597E+03 0.  0.
         23    2    4    4    0    0 -0.21688451729E+02  0.34721521279E+03 -0.97592239188E+02  0.37241761716E+03  0.90232164385E+02 0.  0.
         23    2    4    4    0    0  0.57601370164E+03 -0.95561225131E+02  0.47366851469E+03  0.75750830693E+03  0.92375543502E+02 0.  0.
          3    1    3    3  502    0  0.17509179853E+01 -0.20610163085E+01  0.58669209470E+00  0.27672566974E+01  0.00000000000E+00 0. -1.
         -4    1    3    3    0  502 -0.55607616790E+03 -0.24959297135E+03  0.10737672846E+04  0.12347038258E+04  0.00000000000E+00 0.  1.
         11    1    5    5    0    0 -0.21318825901E+02  0.18257125790E+02 -0.19907202762E+02  0.34410924162E+02  0.00000000000E+00 0. -1.
        -11    1    5    5    0    0 -0.36962582786E+00  0.32895808700E+03 -0.77685036426E+02  0.33800669299E+03  0.00000000000E+00 0.  1.
          2    1    6    6  503    0  0.77490755788E+02  0.17807554507E+02  0.73341403101E+02  0.10817064130E+03  0.00000000000E+00 0. -1.
         -2    1    6    6    0  503  0.49852294586E+03 -0.11336877964E+03  0.40032711159E+03  0.64933766564E+03  0.00000000000E+00 0.  1.
<mgrwt>
<rscale>  0 0.18710480E+04</rscale>
<asrwt>0</asrwt>
<pdfrwt beam="1">  1        1 0.70535905E-01 0.18710480E+04</pdfrwt>
<pdfrwt beam="2">  1       -2 0.29367902E+00 0.18710480E+04</pdfrwt>
<totfact> 0.14251116E+00</totfact>
</mgrwt>
</event>
<event>
12    4  0.4207946E-008  0.1692541E+04  0.7818608E-02  0.8765630E-01
          1   -1    0    0  501    0  0.00000000000E+00  0.00000000000E+00  0.12661161818E+04  0.12661161818E+04  0.00000000000E+00 0. -1.
         -2   -1    0    0    0  501 -0.00000000000E+00 -0.00000000000E+00 -0.56564636183E+03  0.56564636183E+03  0.00000000000E+00 0.  1.
        -24    2    1    2    0    0 -0.56750780077E+03 -0.14697501299E+02  0.45915137724E+03  0.73438713525E+03  0.78888254628E+02 0.  0.
        254    2    1    2    0    0  0.56750780077E+03  0.14697501299E+02  0.24131844270E+03  0.10973754084E+04  0.90758860481E+03 0.  0.
         23    2    4    4    0    0  0.48051276444E+03  0.41306255823E+03  0.60845728880E+02  0.64202856089E+03  0.83577966452E+02 0.  0.
         23    2    4    4    0    0  0.86995036329E+02 -0.39836505693E+03  0.18047271382E+03  0.45534684746E+03  0.92236089116E+02 0.  0.
          1    1    3    3  502    0 -0.52201162745E+03 -0.23184216871E+02  0.44400002448E+03  0.68568919260E+03  0.00000000000E+00 0. -1.
         -2    1    3    3    0  502 -0.45496173321E+02  0.84867155724E+01  0.15151352755E+02  0.48697942650E+02  0.00000000000E+00 0.  1.
         11    1    5    5    0    0  0.83659622494E+02  0.11073896859E+03 -0.45967041486E+01  0.13886389484E+03  0.00000000000E+00 0. -1.
        -11    1    5    5    0    0  0.39685314195E+03  0.30232358964E+03  0.65442433029E+02  0.50316466605E+03  0.00000000000E+00 0.  1.
          4    1    6    6  503    0  0.36491873071E+02 -0.73423839124E+02  0.71878115581E+02  0.10903751855E+03  0.00000000000E+00 0. -1.
         -4    1    6    6    0  503  0.50503163258E+02 -0.32494121780E+03  0.10859459823E+03  0.34630932891E+03  0.00000000000E+00 0.  1.
<mgrwt>
<rscale>  0 0.16925413E+04</rscale>
<asrwt>0</asrwt>
<pdfrwt beam="1">  1        1 0.19478710E+00 0.16925413E+04</pdfrwt>
<pdfrwt beam="2">  1       -2 0.87022517E-01 0.16925413E+04</pdfrwt>
<totfact> 0.91248385E+00</totfact>
</mgrwt>
</event>
<event>
12    4  0.4207946E-008  0.1623762E+04  0.7818608E-02  0.8806082E-01
         -2   -1    0    0    0  501 -0.00000000000E+00  0.00000000000E+00  0.90364756772E+03  0.90364756772E+03  0.00000000000E+00 0.  1.
          3   -1    0    0  501    0  0.00000000000E+00 -0.00000000000E+00 -0.72943313681E+03  0.72943313681E+03  0.00000000000E+00 0. -1.
        -24    2    1    2    0    0  0.31181951857E+03 -0.33709767251E+03  0.37731611991E+03  0.59837793280E+03  0.69443812861E+02 0.  0.
        254    2    1    2    0    0 -0.31181951857E+03  0.33709767251E+03 -0.20310168899E+03  0.10347027717E+04  0.90470618257E+03 0.  0.
         23    2    4    4    0    0  0.60493447753E+02 -0.12777892624E+03  0.23614613254E+03  0.28944037447E+03  0.89575796108E+02 0.  0.
         23    2    4    4    0    0 -0.37231296632E+03  0.46487659876E+03 -0.43924782153E+03  0.74526239726E+03  0.88035192284E+02 0.  0.
          1    1    3    3  502    0  0.23511406455E+03 -0.28050339803E+03  0.32589254300E+03  0.49006808633E+03  0.00000000000E+00 0. -1.
         -2    1    3    3    0  502  0.76705454018E+02 -0.56594274484E+02  0.51423576910E+02  0.10830984647E+03  0.00000000000E+00 0.  1.
         11    1    5    5    0    0  0.79088601692E+02 -0.79224908219E+02  0.13230133874E+03  0.17330677203E+03  0.00000000000E+00 0.  1.
        -11    1    5    5    0    0 -0.18595153939E+02 -0.48554018026E+02  0.10384479380E+03  0.11613360244E+03  0.00000000000E+00 0. -1.
          1    1    6    6  503    0 -0.11859442967E+02  0.20935352873E+02  0.20582048841E+00  0.24061956477E+02  0.00000000000E+00 0. -1.
         -1    1    6    6    0  503 -0.36045352336E+03  0.44394124589E+03 -0.43945364202E+03  0.72120044078E+03  0.00000000000E+00 0.  1.
<mgrwt>
<rscale>  0 0.16237617E+04</rscale>
<asrwt>0</asrwt>
<pdfrwt beam="1">  1        3 0.11222048E+00 0.16237617E+04</pdfrwt>
<pdfrwt beam="2">  1       -2 0.13902270E+00 0.16237617E+04</pdfrwt>
<totfact> 0.96809935E-01</totfact>
</mgrwt>
</event>
<event>
12    4  0.4207946E-008  0.1335713E+04  0.7818608E-02  0.9001714E-01
          1   -1    0    0  501    0  0.00000000000E+00  0.00000000000E+00  0.17296079058E+04  0.17296079058E+04  0.00000000000E+00 0. -1.
         -2   -1    0    0    0  501 -0.00000000000E+00 -0.00000000000E+00 -0.25788062810E+03  0.25788062810E+03  0.00000000000E+00 0.  1.
        -24    2    1    2    0    0 -0.29512855657E+03  0.50667727722E+02  0.10863414032E+03  0.32804203651E+03  0.78371664142E+02 0.  0.
        254    2    1    2    0    0  0.29512855657E+03 -0.50667727722E+02  0.13630931374E+04  0.16594464974E+04  0.89781495475E+03 0.  0.
         23    2    4    4    0    0 -0.31476571092E+02 -0.29089029608E+03  0.88033554463E+02  0.31793211925E+03  0.87880526047E+02 0.  0.
         23    2    4    4    0    0  0.32660512766E+03  0.24022256836E+03  0.12750595829E+04  0.13415143781E+04  0.97499205084E+02 0.  0.
          1    1    3    3  502    0 -0.25236044406E+03  0.63871771343E+02  0.71701446501E+02  0.27001202628E+03  0.00000000000E+00 0. -1.
         -2    1    3    3    0  502 -0.42768112505E+02 -0.13204043621E+02  0.36932693823E+02  0.58030010238E+02  0.00000000000E+00 0.  1.
         11    1    5    5    0    0 -0.19310738909E+02 -0.22343051576E+03  0.10452856368E+03  0.24742740478E+03  0.00000000000E+00 0. -1.
        -11    1    5    5    0    0 -0.12165832184E+02 -0.67459780319E+02 -0.16495009220E+02  0.70504714470E+02  0.00000000000E+00 0.  1.
          1    1    6    6  503    0  0.13786552525E+03  0.15648594291E+03  0.57574706110E+03  0.61235564155E+03  0.00000000000E+00 0. -1.
         -1    1    6    6    0  503  0.18873960241E+03  0.83736625451E+02  0.69931252180E+03  0.72915873656E+03  0.00000000000E+00 0.  1.
<mgrwt>
<rscale>  0 0.13357131E+04</rscale>
<asrwt>0</asrwt>
<pdfrwt beam="1">  1        1 0.26609352E+00 0.13357131E+04</pdfrwt>
<pdfrwt beam="2">  1       -2 0.39673944E-01 0.13357131E+04</pdfrwt>
<totfact> 0.23520825E+01</totfact>
</mgrwt>
</event>
<event>
12    4  0.4207946E-008  0.1963535E+04  0.7818608E-02  0.8623861E-01
         -2   -1    0    0    0  501 -0.00000000000E+00  0.00000000000E+00  0.46294082750E+03  0.46294082750E+03  0.00000000000E+00 0.  1.
          1   -1    0    0  501    0  0.00000000000E+00 -0.00000000000E+00 -0.20820536056E+04  0.20820536056E+04  0.00000000000E+00 0. -1.
        -24    2    1    2    0    0  0.27450911479E+03 -0.30468040585E+03  0.21051646070E+03  0.46879871560E+03  0.85262252565E+02 0.  0.
        254    2    1    2    0    0 -0.27450911479E+03  0.30468040585E+03 -0.18296292388E+04  0.20761957175E+04  0.89154927071E+03 0.  0.
         23    2    4    4    0    0  0.25557342144E+03  0.23928450526E+03 -0.11590445130E+04  0.12141794609E+04  0.90954560783E+02 0.  0.
         23    2    4    4    0    0 -0.53008253623E+03  0.65395900585E+02 -0.67058472586E+03  0.86201625659E+03  0.90133418013E+02 0.  0.
          3    1    3    3  502    0  0.12953166961E+03 -0.10527065402E+03  0.48614865266E+02  0.17384984658E+03  0.00000000000E+00 0. -1.
         -4    1    3    3    0  502  0.14497744518E+03 -0.19940975182E+03  0.16190159543E+03  0.29494886902E+03  0.00000000000E+00 0.  1.
         11    1    5    5    0    0  0.13432714985E+03  0.18342165892E+03 -0.77047176883E+03  0.80331440589E+03  0.00000000000E+00 0. -1.
        -11    1    5    5    0    0  0.12124627159E+03  0.55862846347E+02 -0.38857274414E+03  0.41086505505E+03  0.00000000000E+00 0.  1.
          2    1    6    6  503    0 -0.28153979520E+03  0.22931200613E+01 -0.30066354549E+03  0.41190834207E+03  0.00000000000E+00 0. -1.
         -2    1    6    6    0  503 -0.24854274103E+03  0.63102780523E+02 -0.36992118037E+03  0.45010791452E+03  0.00000000000E+00 0.  1.
<mgrwt>
<rscale>  0 0.19635352E+04</rscale>
<asrwt>0</asrwt>
<pdfrwt beam="1">  1        1 0.32031593E+00 0.19635352E+04</pdfrwt>
<pdfrwt beam="2">  1       -2 0.71221667E-01 0.19635352E+04</pdfrwt>
<totfact> 0.38340386E+00</totfact>
</mgrwt>
</event>
<event>
12    4  0.4207946E-008  0.1739544E+04  0.7818608E-02  0.8739127E-01
          1   -1    0    0  501    0  0.00000000000E+00  0.00000000000E+00  0.17922512894E+04  0.17922512894E+04  0.00000000000E+00 0. -1.
         -2   -1    0    0    0  501 -0.00000000000E+00 -0.00000000000E+00 -0.42209656903E+03  0.42209656903E+03  0.00000000000E+00 0.  1.
        -24    2    1    2    0    0  0.43299928459E+03 -0.14129391418E+03  0.11919471996E+04  0.12785206956E+04  0.80154174742E+02 0.  0.
        254    2    1    2    0    0 -0.43299928459E+03  0.14129391418E+03  0.17820752074E+03  0.93582716283E+03  0.79784848662E+03 0.  0.
         23    2    4    4    0    0 -0.80594154976E+02  0.13319446466E+03  0.44817054415E+03  0.48285707244E+03  0.89765987574E+02 0.  0.
         23    2    4    4    0    0 -0.35240512961E+03  0.80994495208E+01 -0.26996302342E+03  0.45297009039E+03  0.89704472128E+02 0.  0.
          1    1    3    3  502    0  0.42581028058E+03 -0.14164279475E+03  0.11251666604E+04  0.12113534126E+04  0.00000000000E+00 0. -1.
         -2    1    3    3    0  502  0.71890040103E+01  0.34888057704E+00  0.66780539195E+02  0.67167283044E+02  0.00000000000E+00 0.  1.
         11    1    5    5    0    0  0.13973772732E+02  0.38625968240E+01  0.80486381388E+02  0.81781682347E+02  0.00000000000E+00 0.  1.
        -11    1    5    5    0    0 -0.94567927708E+02  0.12933186783E+03  0.36768416276E+03  0.40107539009E+03  0.00000000000E+00 0. -1.
          2    1    6    6  503    0 -0.24738458551E+02 -0.31620891173E+01  0.45615109575E+01  0.25353451861E+02  0.00000000000E+00 0. -1.
         -2    1    6    6    0  503 -0.32766667106E+03  0.11261538638E+02 -0.27452453437E+03  0.42761663853E+03  0.00000000000E+00 0.  1.
<mgrwt>
<rscale>  0 0.17395438E+04</rscale>
<asrwt>0</asrwt>
<pdfrwt beam="1">  1        1 0.27573096E+00 0.17395438E+04</pdfrwt>
<pdfrwt beam="2">  1       -2 0.64937935E-01 0.17395438E+04</pdfrwt>
<totfact> 0.75114276E+00</totfact>
</mgrwt>
</event>
<event>
12    4  0.4207946E-008  0.1154669E+04  0.7818608E-02  0.9153487E-01
         -2   -1    0    0    0  501 -0.00000000000E+00  0.00000000000E+00  0.23052170661E+03  0.23052170661E+03  0.00000000000E+00 0.  1.
          1   -1    0    0  501    0  0.00000000000E+00 -0.00000000000E+00 -0.14459161939E+04  0.14459161939E+04  0.00000000000E+00 0. -1.
        -24    2    1    2    0    0 -0.12891094530E+03  0.42614856897E+02 -0.76387266273E+01  0.15730260277E+03  0.79067697871E+02 0.  0.
        254    2    1    2    0    0  0.12891094530E+03 -0.42614856897E+02 -0.12077557607E+04  0.15191352977E+04  0.91140771205E+03 0.  0.
         23    2    4    4    0    0  0.39496851666E+02  0.37262802111E+03 -0.22977447344E+03  0.44875541156E+03  0.90407230633E+02 0.  0.
         23    2    4    4    0    0  0.89414093635E+02 -0.41524287800E+03 -0.97798128722E+03  0.10703798862E+04  0.94043472511E+02 0.  0.
          1    1    3    3  502    0 -0.71881513117E+02 -0.84522466601E+01 -0.28773833981E+02  0.77886622237E+02  0.00000000000E+00 0. -1.
         -2    1    3    3    0  502 -0.57029432185E+02  0.51067103557E+02  0.21135107354E+02  0.79415980532E+02  0.00000000000E+00 0.  1.
         11    1    5    5    0    0 -0.55531791299E+01 -0.35566074074E+01 -0.40143998931E+01  0.77202759795E+01  0.00000000000E+00 0.  1.
        -11    1    5    5    0    0  0.45050030796E+02  0.37618462852E+03 -0.22576007355E+03  0.44103513558E+03  0.00000000000E+00 0. -1.
          2    1    6    6  503    0  0.97661568701E+02 -0.40731937917E+03 -0.96958397985E+03  0.10561912481E+04  0.00000000000E+00 0. -1.
         -2    1    6    6    0  503 -0.82474750660E+01 -0.79234988306E+01 -0.83973073703E+01  0.14188638051E+02  0.00000000000E+00 0.  1.
<mgrwt>
<rscale>  0 0.11546689E+04</rscale>
<asrwt>0</asrwt>
<pdfrwt beam="1">  1        1 0.22244865E+00 0.11546689E+04</pdfrwt>
<pdfrwt beam="2">  1       -2 0.35464878E-01 0.11546689E+04</pdfrwt>
<totfact> 0.46411096E+01</totfact>
</mgrwt>
</event>
<event>
12    4  0.4207946E-008  0.1393451E+04  0.7818608E-02  0.8958573E-01
         -2   -1    0    0    0  501 -0.00000000000E+00  0.00000000000E+00  0.33422327256E+03  0.33422327256E+03  0.00000000000E+00 0.  1.
          1   -1    0    0  501    0  0.00000000000E+00 -0.00000000000E+00 -0.14524010949E+04  0.14524010949E+04  0.00000000000E+00 0. -1.
        -24    2    1    2    0    0 -0.28252157125E+03 -0.22629750048E+03 -0.11685687859E+03  0.38844088464E+03  0.78751468811E+02 0.  0.
        254    2    1    2    0    0  0.28252157125E+03  0.22629750048E+03 -0.10013209438E+04  0.13981834829E+04  0.90622537059E+03 0.  0.
         23    2    4    4    0    0 -0.58821329980E+02 -0.10200155985E+03 -0.89147477338E+03  0.90374021239E+03  0.90304113070E+02 0.  0.
         23    2    4    4    0    0  0.34134290123E+03  0.32829906033E+03 -0.10984617041E+03  0.49444327047E+03  0.90070624056E+02 0.  0.
          3    1    3    3  502    0 -0.23429239551E+03 -0.21979171498E+03 -0.94319586622E+02  0.33480966083E+03  0.00000000000E+00 0. -1.
         -4    1    3    3    0  502 -0.48229175744E+02 -0.65057855019E+01 -0.22537291964E+02  0.53631223807E+02  0.00000000000E+00 0.  1.
         11    1    5    5    0    0 -0.60991409442E+01 -0.58481947474E+02 -0.65351904854E+03  0.65615888663E+03  0.00000000000E+00 0. -1.
        -11    1    5    5    0    0 -0.52722189036E+02 -0.43519612378E+02 -0.23795572484E+03  0.24758132576E+03  0.00000000000E+00 0.  1.
          3    1    6    6  503    0  0.32060113096E+03  0.32760398475E+03 -0.93007027361E+02  0.46771761046E+03  0.00000000000E+00 0. -1.
         -3    1    6    6    0  503  0.20741770271E+02  0.69507558416E+00 -0.16839143049E+02  0.26725660004E+02  0.00000000000E+00 0.  1.
<mgrwt>
<rscale>  0 0.13934507E+04</rscale>
<asrwt>0</asrwt>
<pdfrwt beam="1">  1        1 0.22344632E+00 0.13934507E+04</pdfrwt>
<pdfrwt beam="2">  1       -2 0.51418965E-01 0.13934507E+04</pdfrwt>
<totfact> 0.21593637E+01</totfact>
</mgrwt>
</event>
<event>
12    4  0.4207946E-008  0.1641454E+04  0.7818608E-02  0.8795478E-01
         -2   -1    0    0    0  501 -0.00000000000E+00  0.00000000000E+00  0.31949355833E+03  0.31949355833E+03  0.00000000000E+00 0.  1.
          1   -1    0    0  501    0  0.00000000000E+00 -0.00000000000E+00 -0.21083136948E+04  0.21083136948E+04  0.00000000000E+00 0. -1.
        -24    2    1    2    0    0 -0.24864865608E+03 -0.12295410873E+03  0.86363071017E+02  0.30103015884E+03  0.78846112587E+02 0.  0.
        254    2    1    2    0    0  0.24864865608E+03  0.12295410873E+03 -0.18751832075E+04  0.21267770943E+04  0.96432612748E+03 0.  0.
         23    2    4    4    0    0 -0.93535716699E+02  0.41799711577E+03 -0.13916925536E+04  0.14588757168E+04  0.89664230249E+02 0.  0.
         23    2    4    4    0    0  0.34218437278E+03 -0.29504300704E+03 -0.48349065387E+03  0.66790137749E+03  0.90490423236E+02 0.  0.
          3    1    3    3  502    0 -0.17825824503E+02 -0.26567781376E+02 -0.91492273132E+01  0.33276348761E+02  0.00000000000E+00 0. -1.
         -4    1    3    3    0  502 -0.23082283158E+03 -0.96386327358E+02  0.95512298330E+02  0.26775381008E+03  0.00000000000E+00 0.  1.
         11    1    5    5    0    0 -0.50286518538E+02  0.78296484565E+02 -0.24226753454E+03  0.25952385581E+03  0.00000000000E+00 0. -1.
        -11    1    5    5    0    0 -0.43249198161E+02  0.33970063120E+03 -0.11494250191E+04  0.11993518610E+04  0.00000000000E+00 0.  1.
          4    1    6    6  503    0  0.11271404519E+03 -0.48903157083E+02 -0.10685370962E+03  0.16283024908E+03  0.00000000000E+00 0. -1.
         -4    1    6    6    0  503  0.22947032759E+03 -0.24613984995E+03 -0.37663694425E+03  0.50507112841E+03  0.00000000000E+00 0.  1.
<mgrwt>
<rscale>  0 0.16414538E+04</rscale>
<asrwt>0</asrwt>
<pdfrwt beam="1">  1        1 0.32435594E+00 0.16414538E+04</pdfrwt>
<pdfrwt beam="2">  1       -2 0.49152858E-01 0.16414538E+04</pdfrwt>
<totfact> 0.82807456E+00</totfact>
</mgrwt>
</event>
<event>
12    4  0.4207946E-008  0.1438978E+04  0.7818608E-02  0.8926078E-01
          1   -1    0    0  501    0  0.00000000000E+00  0.00000000000E+00  0.33930763211E+04  0.33930763211E+04  0.00000000000E+00 0. -1.
         -2   -1    0    0    0  501 -0.00000000000E+00 -0.00000000000E+00 -0.15256497030E+03  0.15256497030E+03  0.00000000000E+00 0.  1.
        -24    2    1    2    0    0 -0.10055266071E+03 -0.38896169896E+03  0.60950713862E+03  0.73424220602E+03  0.78807513900E+02 0.  0.
        254    2    1    2    0    0  0.10055266071E+03  0.38896169896E+03  0.26310042122E+04  0.28113990854E+04  0.90574809517E+03 0.  0.
         23    2    4    4    0    0  0.37664838254E+03  0.49985784047E+03  0.21267132992E+04  0.22187740185E+04  0.91251429415E+02 0.  0.
         23    2    4    4    0    0 -0.27609572183E+03 -0.11089614151E+03  0.50429091293E+03  0.59262506684E+03  0.91478648711E+02 0.  0.
          3    1    3    3  502    0 -0.16173027222E+02 -0.21627554560E+03  0.30846902548E+03  0.37708065200E+03  0.00000000000E+00 0. -1.
         -4    1    3    3    0  502 -0.84379633486E+02 -0.17268615337E+03  0.30103811314E+03  0.35716155403E+03  0.00000000000E+00 0.  1.
         11    1    5    5    0    0  0.73331716694E+02  0.16514440802E+03  0.59007239119E+03  0.61711882407E+03  0.00000000000E+00 0.  1.
        -11    1    5    5    0    0  0.30331666584E+03  0.33471343245E+03  0.15366409081E+04  0.16016551945E+04  0.00000000000E+00 0. -1.
          4    1    6    6  503    0 -0.26296692738E+03 -0.79809799956E+02  0.47045164208E+03  0.54483571524E+03  0.00000000000E+00 0. -1.
         -4    1    6    6    0  503 -0.13128794449E+02 -0.31086341552E+02  0.33839270850E+02  0.47789351600E+02  0.00000000000E+00 0.  1.
<mgrwt>
<rscale>  0 0.14389782E+04</rscale>
<asrwt>0</asrwt>
<pdfrwt beam="1">  1        1 0.52201169E+00 0.14389782E+04</pdfrwt>
<pdfrwt beam="2">  1       -2 0.23471536E-01 0.14389782E+04</pdfrwt>
<totfact> 0.42070799E+00</totfact>
</mgrwt>
</event>
<event>
12    4  0.4207946E-008  0.1235719E+04  0.7818608E-02  0.9082154E-01
          1   -1    0    0  501    0  0.00000000000E+00  0.00000000000E+00  0.79166335655E+03  0.79166335655E+03  0.00000000000E+00 0. -1.
         -2   -1    0    0    0  501 -0.00000000000E+00 -0.00000000000E+00 -0.48221317147E+03  0.48221317147E+03  0.00000000000E+00 0.  1.
        -24    2    1    2    0    0  0.19445404867E+03 -0.52123449601E+02  0.28522348619E+03  0.35819689147E+03  0.80145773066E+02 0.  0.
        254    2    1    2    0    0 -0.19445404867E+03  0.52123449601E+02  0.24226698896E+02  0.91567963655E+03  0.89294626535E+03 0.  0.
         23    2    4    4    0    0  0.22908018639E+03  0.38663529290E+02  0.30909803073E+03  0.39698299589E+03  0.89896085177E+02 0.  0.
         23    2    4    4    0    0 -0.42353423506E+03  0.13459920311E+02 -0.28487133183E+03  0.51869664066E+03  0.91280401047E+02 0.  0.
          3    1    3    3  502    0  0.13368833378E+03 -0.48010650093E+02  0.25081114240E+03  0.28824264477E+03  0.00000000000E+00 0. -1.
         -4    1    3    3    0  502  0.60765714894E+02 -0.41127995077E+01  0.34412343789E+02  0.69954246700E+02  0.00000000000E+00 0.  1.
         11    1    5    5    0    0  0.17158760286E+03 -0.83090659484E+01  0.18570848391E+03  0.25298021075E+03  0.00000000000E+00 0. -1.
        -11    1    5    5    0    0  0.57492583521E+02  0.46972595238E+02  0.12338954682E+03  0.14400278514E+03  0.00000000000E+00 0.  1.
          1    1    6    6  503    0 -0.22267539277E+03 -0.74524478443E+01 -0.97442073263E+02  0.24317653498E+03  0.00000000000E+00 0. -1.
         -1    1    6    6    0  503 -0.20085884229E+03  0.20912368156E+02 -0.18742925857E+03  0.27552010568E+03  0.00000000000E+00 0.  1.
<mgrwt>
<rscale>  0 0.12357192E+04</rscale>
<asrwt>0</asrwt>
<pdfrwt beam="1">  1        1 0.12179436E+00 0.12357192E+04</pdfrwt>
<pdfrwt beam="2">  1       -2 0.74186642E-01 0.12357192E+04</pdfrwt>
<totfact> 0.31818136E+01</totfact>
</mgrwt>
</event>
<event>
12    4  0.4207946E-008  0.1375839E+04  0.7818608E-02  0.8971495E-01
         -2   -1    0    0    0  501 -0.00000000000E+00  0.00000000000E+00  0.16941288411E+03  0.16941288411E+03  0.00000000000E+00 0.  1.
          1   -1    0    0  501    0  0.00000000000E+00 -0.00000000000E+00 -0.27933730371E+04  0.27933730371E+04  0.00000000000E+00 0. -1.
        -24    2    1    2    0    0  0.14356361239E+03  0.24887173854E+03 -0.19233952770E+03  0.35482576199E+03  0.79744431858E+02 0.  0.
        254    2    1    2    0    0 -0.14356361239E+03 -0.24887173854E+03 -0.24316206253E+04  0.26079601593E+04  0.89784724405E+03 0.  0.
         23    2    4    4    0    0 -0.10603003020E+02  0.32860415601E+03 -0.95915216621E+03  0.10181615348E+04  0.92665624305E+02 0.  0.
         23    2    4    4    0    0 -0.13296060937E+03 -0.57747589455E+03 -0.14724684591E+04  0.15897986245E+04  0.90218461841E+02 0.  0.
          3    1    3    3  502    0  0.26459722721E+02  0.17790010061E+02  0.47360182975E+00  0.31887704263E+02  0.00000000000E+00 0. -1.
         -4    1    3    3    0  502  0.11710388967E+03  0.23108172848E+03 -0.19281312953E+03  0.32293805773E+03  0.00000000000E+00 0.  1.
         11    1    5    5    0    0  0.64787752852E+01  0.29479562197E+02 -0.19586557465E+03  0.19817755284E+03  0.00000000000E+00 0.  1.
        -11    1    5    5    0    0 -0.17081778305E+02  0.29912459381E+03 -0.76328659156E+03  0.81998398193E+03  0.00000000000E+00 0. -1.
          1    1    6    6  503    0 -0.94558408392E+02 -0.34330573131E+03 -0.99086750352E+03  0.10529095532E+04  0.00000000000E+00 0. -1.
         -1    1    6    6    0  503 -0.38402200976E+02 -0.23417016324E+03 -0.48160095560E+03  0.53688907125E+03  0.00000000000E+00 0.  1.
<mgrwt>
<rscale>  0 0.13758392E+04</rscale>
<asrwt>0</asrwt>
<pdfrwt beam="1">  1        1 0.42974971E+00 0.13758392E+04</pdfrwt>
<pdfrwt beam="2">  1       -2 0.26063520E-01 0.13758392E+04</pdfrwt>
<totfact> 0.96702487E+00</totfact>
</mgrwt>
</event>
<event>
12    4  0.4207946E-008  0.1297464E+04  0.7818608E-02  0.9031578E-01
         -2   -1    0    0    0  501 -0.00000000000E+00  0.00000000000E+00  0.52832432286E+03  0.52832432286E+03  0.00000000000E+00 0.  1.
          1   -1    0    0  501    0  0.00000000000E+00 -0.00000000000E+00 -0.79658167605E+03  0.79658167605E+03  0.00000000000E+00 0. -1.
        -24    2    1    2    0    0 -0.21229260053E+03 -0.42597958743E+02 -0.31819348982E+03  0.39226454979E+03  0.75773647963E+02 0.  0.
        254    2    1    2    0    0  0.21229260053E+03  0.42597958743E+02  0.49936136627E+02  0.93264144913E+03  0.90578348437E+03 0.  0.
         23    2    4    4    0    0  0.10480075897E+03 -0.12074849346E+03  0.44541246017E+03  0.48202712977E+03  0.91621484416E+02 0.  0.
         23    2    4    4    0    0  0.10749184156E+03  0.16334645220E+03 -0.39547632354E+03  0.45061431936E+03  0.91734305882E+02 0.  0.
          1    1    3    3  502    0 -0.19125171830E+03 -0.49129007320E+02 -0.31224816707E+03  0.36944525569E+03  0.00000000000E+00 0. -1.
         -2    1    3    3    0  502 -0.21040882228E+02  0.65310485768E+01 -0.59453227525E+01  0.22819294097E+02  0.00000000000E+00 0.  1.
         11    1    5    5    0    0 -0.16479876526E+02 -0.80520814007E+01  0.54418451557E+02  0.57426389535E+02  0.00000000000E+00 0.  1.
        -11    1    5    5    0    0  0.12128063549E+03 -0.11269641206E+03  0.39099400861E+03  0.42460074023E+03  0.00000000000E+00 0. -1.
          1    1    6    6  503    0  0.52005486436E+02  0.14649080016E+03 -0.25508969327E+03  0.29872207278E+03  0.00000000000E+00 0. -1.
         -1    1    6    6    0  503  0.55486355127E+02  0.16855652037E+02 -0.14038663027E+03  0.15189224658E+03  0.00000000000E+00 0.  1.
<mgrwt>
<rscale>  0 0.12974644E+04</rscale>
<asrwt>0</asrwt>
<pdfrwt beam="1">  1        1 0.12255103E+00 0.12974644E+04</pdfrwt>
<pdfrwt beam="2">  1       -2 0.81280665E-01 0.12974644E+04</pdfrwt>
<totfact> 0.25566085E+01</totfact>
</mgrwt>
</event>
<event>
12    4  0.4207946E-008  0.1258595E+04  0.7818608E-02  0.9063060E-01
          1   -1    0    0  501    0  0.00000000000E+00  0.00000000000E+00  0.27147646950E+04  0.27147646950E+04  0.00000000000E+00 0. -1.
         -2   -1    0    0    0  501 -0.00000000000E+00 -0.00000000000E+00 -0.14587459952E+03  0.14587459952E+03  0.00000000000E+00 0.  1.
        -24    2    1    2    0    0  0.18553509863E+03  0.22211814498E+03  0.43059914881E+03  0.52417677724E+03  0.74739037253E+02 0.  0.
        254    2    1    2    0    0 -0.18553509863E+03 -0.22211814498E+03  0.21382909466E+04  0.23364625172E+04  0.89610779423E+03 0.  0.
         23    2    4    4    0    0  0.28142690918E+02 -0.25501703621E+03  0.10890834488E+03  0.29335231513E+03  0.91481437459E+02 0.  0.
         23    2    4    4    0    0 -0.21367778955E+03  0.32898891228E+02  0.20293826017E+04  0.20431102021E+04  0.95734105185E+02 0.  0.
          1    1    3    3  502    0  0.14110981225E+03  0.20742477697E+03  0.34424064813E+03  0.42595614919E+03  0.00000000000E+00 0. -1.
         -2    1    3    3    0  502  0.44425286383E+02  0.14693368012E+02  0.86358500687E+02  0.98220628051E+02  0.00000000000E+00 0.  1.
         11    1    5    5    0    0  0.51586730693E+02 -0.20006690889E+03  0.57308598835E+02  0.21441136704E+03  0.00000000000E+00 0. -1.
        -11    1    5    5    0    0 -0.23444039775E+02 -0.54950127316E+02  0.51599746042E+02  0.78940948086E+02  0.00000000000E+00 0.  1.
          1    1    6    6  503    0 -0.13624379304E+03 -0.26502037643E+02  0.12126943047E+04  0.12206114065E+04  0.00000000000E+00 0. -1.
         -1    1    6    6    0  503 -0.77433996501E+02  0.59400928871E+02  0.81668829708E+03  0.82249879559E+03  0.00000000000E+00 0.  1.
<mgrwt>
<rscale>  0 0.12585948E+04</rscale>
<asrwt>0</asrwt>
<pdfrwt beam="1">  1        1 0.41765607E+00 0.12585948E+04</pdfrwt>
<pdfrwt beam="2">  1       -2 0.22442248E-01 0.12585948E+04</pdfrwt>
<totfact> 0.14555220E+01</totfact>
</mgrwt>
</event>
<event>
12    4  0.4207946E-008  0.1964377E+04  0.7818608E-02  0.8623459E-01
          1   -1    0    0  501    0  0.00000000000E+00  0.00000000000E+00  0.21995209237E+04  0.21995209237E+04  0.00000000000E+00 0. -1.
         -2   -1    0    0    0  501 -0.00000000000E+00 -0.00000000000E+00 -0.43859269089E+03  0.43859269089E+03  0.00000000000E+00 0.  1.
        -24    2    1    2    0    0 -0.31299518870E+03  0.60820021977E+03  0.13165098960E+04  0.14856937617E+04  0.78829891583E+02 0.  0.
        254    2    1    2    0    0  0.31299518870E+03 -0.60820021977E+03  0.44441833686E+03  0.11524198529E+04  0.81405796098E+03 0.  0.
         23    2    4    4    0    0  0.33512668149E+03 -0.28913029293E+03 -0.14452274243E+03  0.47478373698E+03  0.92879248939E+02 0.  0.
         23    2    4    4    0    0 -0.22131492789E+02 -0.31906992684E+03  0.58894107929E+03  0.67763611596E+03  0.10021820985E+03 0.  0.
          3    1    3    3  502    0 -0.24792857039E+03  0.53005144372E+03  0.10824071503E+04  0.12304585925E+04  0.00000000000E+00 0. -1.
         -4    1    3    3    0  502 -0.65066618314E+02  0.78148776047E+02  0.23410274569E+03  0.25523516912E+03  0.00000000000E+00 0.  1.
         11    1    5    5    0    0  0.11024639053E+03 -0.13771055346E+03 -0.90813723746E+02  0.19840765001E+03  0.00000000000E+00 0.  1.
        -11    1    5    5    0    0  0.22488029096E+03 -0.15141973947E+03 -0.53709018684E+02  0.27637608698E+03  0.00000000000E+00 0. -1.
          3    1    6    6  503    0 -0.16401142979E+02 -0.13779797344E+02  0.11209536645E+02  0.24177138327E+02  0.00000000000E+00 0. -1.
         -3    1    6    6    0  503 -0.57303498099E+01 -0.30529012949E+03  0.57773154265E+03  0.65345897763E+03  0.00000000000E+00 0.  1.
<mgrwt>
<rscale>  0 0.19643765E+04</rscale>
<asrwt>0</asrwt>
<pdfrwt beam="1">  1        1 0.33838783E+00 0.19643765E+04</pdfrwt>
<pdfrwt beam="2">  1       -2 0.67475800E-01 0.19643765E+04</pdfrwt>
<totfact> 0.35885032E+00</totfact>
</mgrwt>
</event>
<event>
12    4  0.4207946E-008  0.1203964E+04  0.7818608E-02  0.9109394E-01
         -2   -1    0    0    0  501 -0.00000000000E+00  0.00000000000E+00  0.11715690270E+04  0.11715690270E+04  0.00000000000E+00 0.  1.
          1   -1    0    0  501    0  0.00000000000E+00 -0.00000000000E+00 -0.30931383056E+03  0.30931383056E+03  0.00000000000E+00 0. -1.
        -24    2    1    2    0    0  0.73425311592E+02 -0.23609656813E+03  0.28869211791E+03  0.38875247588E+03  0.81562753107E+02 0.  0.
        254    2    1    2    0    0 -0.73425311592E+02  0.23609656813E+03  0.57356307854E+03  0.10921303817E+04  0.89590250569E+03 0.  0.
         23    2    4    4    0    0  0.26356466516E+03 -0.14781922018E+02 -0.97097861624E+02  0.29540608962E+03  0.90288012034E+02 0.  0.
         23    2    4    4    0    0 -0.33698997675E+03  0.25087849014E+03  0.67066094016E+03  0.79672429207E+03  0.92093646199E+02 0.  0.
          3    1    3    3  502    0  0.58784500245E+01  0.63616869883E+01  0.99380720559E+01  0.13183038808E+02  0.00000000000E+00 0. -1.
         -2    1    3    3    0  502  0.67546861567E+02 -0.24245825511E+03  0.27875404586E+03  0.37556943707E+03  0.00000000000E+00 0.  1.
         11    1    5    5    0    0  0.22386931321E+03 -0.30811046156E+02 -0.10911205238E+03  0.25094268257E+03  0.00000000000E+00 0. -1.
        -11    1    5    5    0    0  0.39695351952E+02  0.16029124138E+02  0.12014190759E+02  0.44463407054E+02  0.00000000000E+00 0.  1.
          3    1    6    6  503    0 -0.13741765611E+03  0.15922974153E+03  0.33893493166E+03  0.39889172804E+03  0.00000000000E+00 0. -1.
         -3    1    6    6    0  503 -0.19957232064E+03  0.91648748615E+02  0.33172600850E+03  0.39783256403E+03  0.00000000000E+00 0.  1.
<mgrwt>
<rscale>  0 0.12039643E+04</rscale>
<asrwt>0</asrwt>
<pdfrwt beam="1">  1        1 0.47586744E-01 0.12039643E+04</pdfrwt>
<pdfrwt beam="2">  1       -2 0.18024139E+00 0.12039643E+04</pdfrwt>
<totfact> 0.13126868E+01</totfact>
</mgrwt>
</event>
<event>
12    4  0.4207946E-008  0.1592610E+04  0.7818608E-02  0.8825101E-01
          1   -1    0    0  501    0  0.00000000000E+00  0.00000000000E+00  0.14948687242E+04  0.14948687242E+04  0.00000000000E+00 0. -1.
         -2   -1    0    0    0  501 -0.00000000000E+00 -0.00000000000E+00 -0.42418567855E+03  0.42418567855E+03  0.00000000000E+00 0.  1.
        -24    2    1    2    0    0  0.45068719985E+03 -0.99288724118E+02  0.68990215577E+03  0.83472573903E+03  0.88458306700E+02 0.  0.
        254    2    1    2    0    0 -0.45068719985E+03  0.99288724118E+02  0.38078088991E+03  0.10843286637E+04  0.90432149264E+03 0.  0.
         23    2    4    4    0    0 -0.48267698996E+02 -0.34372336027E+03 -0.18451780905E+02  0.35910339643E+03  0.90217858266E+02 0.  0.
         23    2    4    4    0    0 -0.40241950085E+03  0.44301208439E+03  0.39923267082E+03  0.72522526731E+03  0.91453820701E+02 0.  0.
          1    1    3    3  502    0  0.29316950611E+03 -0.10001388417E+03  0.49770021558E+03  0.58622234769E+03  0.00000000000E+00 0. -1.
         -2    1    3    3    0  502  0.15751769373E+03  0.72516005462E+00  0.19220194019E+03  0.24850339134E+03  0.00000000000E+00 0.  1.
         11    1    5    5    0    0 -0.64026879392E+02 -0.19297530576E+03  0.15048397635E+02  0.20387585485E+03  0.00000000000E+00 0. -1.
        -11    1    5    5    0    0  0.15759180395E+02 -0.15074805451E+03 -0.33500178540E+02  0.15522754158E+03  0.00000000000E+00 0.  1.
          1    1    6    6  503    0 -0.29062522739E+03  0.28884271114E+03  0.31575757599E+03  0.51729680201E+03  0.00000000000E+00 0. -1.
         -1    1    6    6    0  503 -0.11179427346E+03  0.15416937325E+03  0.83475094824E+02  0.20792846530E+03  0.00000000000E+00 0.  1.
<mgrwt>
<rscale>  0 0.15926103E+04</rscale>
<asrwt>0</asrwt>
<pdfrwt beam="1">  1        1 0.22997980E+00 0.15926103E+04</pdfrwt>
<pdfrwt beam="2">  1       -2 0.65259336E-01 0.15926103E+04</pdfrwt>
<totfact> 0.12027088E+01</totfact>
</mgrwt>
</event>
<event>
12    4  0.4207946E-008  0.2193394E+04  0.7818608E-02  0.8521183E-01
          1   -1    0    0  501    0  0.00000000000E+00  0.00000000000E+00  0.26017308992E+04  0.26017308992E+04  0.00000000000E+00 0. -1.
         -2   -1    0    0    0  501 -0.00000000000E+00 -0.00000000000E+00 -0.46228632501E+03  0.46228632501E+03  0.00000000000E+00 0.  1.
        -24    2    1    2    0    0 -0.66740621588E+03  0.49991164435E+03  0.38839899595E+03  0.92326916287E+03  0.78926914946E+02 0.  0.
        254    2    1    2    0    0  0.66740621588E+03 -0.49991164435E+03  0.17510455782E+04  0.21407480613E+04  0.90625544736E+03 0.  0.
         23    2    4    4    0    0  0.45470906728E+03 -0.72316038929E+03  0.96940995454E+03  0.12954399539E+04  0.93207991017E+02 0.  0.
         23    2    4    4    0    0  0.21269714860E+03  0.22324874493E+03  0.78163562370E+03  0.84530810747E+03  0.92257624002E+02 0.  0.
          3    1    3    3  502    0 -0.10131347820E+03  0.83878529526E+02  0.31343500151E+02  0.13521258662E+03  0.00000000000E+00 0. -1.
         -4    1    3    3    0  502 -0.56609273769E+03  0.41603311483E+03  0.35705549579E+03  0.78805657625E+03  0.00000000000E+00 0.  1.
         11    1    5    5    0    0  0.28534227625E+03 -0.53285772376E+03  0.67272881298E+03  0.90439019466E+03  0.00000000000E+00 0. -1.
        -11    1    5    5    0    0  0.16936679103E+03 -0.19030266553E+03  0.29668114157E+03  0.39104975920E+03  0.00000000000E+00 0.  1.
          1    1    6    6  503    0  0.19140672555E+03  0.18179892515E+03  0.72730768194E+03  0.77373370612E+03  0.00000000000E+00 0. -1.
         -1    1    6    6    0  503  0.21290423048E+02  0.41449819783E+02  0.54327941758E+02  0.71574401355E+02  0.00000000000E+00 0.  1.
<mgrwt>
<rscale>  0 0.21933943E+04</rscale>
<asrwt>0</asrwt>
<pdfrwt beam="1">  1        1 0.40026629E+00 0.21933943E+04</pdfrwt>
<pdfrwt beam="2">  1       -2 0.71120974E-01 0.21933943E+04</pdfrwt>
<totfact> 0.16563191E+00</totfact>
</mgrwt>
</event>
<event>
12    4  0.4207946E-008  0.1612816E+04  0.7818608E-02  0.8812713E-01
         -2   -1    0    0    0  501 -0.00000000000E+00  0.00000000000E+00  0.67648962179E+03  0.67648962179E+03  0.00000000000E+00 0.  1.
          1   -1    0    0  501    0  0.00000000000E+00 -0.00000000000E+00 -0.96127734157E+03  0.96127734157E+03  0.00000000000E+00 0. -1.
        -24    2    1    2    0    0  0.26848269057E+03  0.41169697597E+03 -0.39810429981E+03  0.63762420271E+03  0.80624036137E+02 0.  0.
        254    2    1    2    0    0 -0.26848269057E+03 -0.41169697597E+03  0.11331658002E+03  0.10001427606E+04  0.86363623084E+03 0.  0.
         23    2    4    4    0    0 -0.70565637035E+02 -0.12801013447E+03 -0.36569052483E+03  0.40402969719E+03  0.90245956166E+02 0.  0.
         23    2    4    4    0    0 -0.19791705354E+03 -0.28368684149E+03  0.47900710485E+03  0.59611306346E+03  0.79079667453E+02 0.  0.
          3    1    3    3  502    0  0.10509522505E+03  0.23491086694E+03 -0.20587218737E+03  0.32956255744E+03  0.00000000000E+00 0. -1.
         -4    1    3    3    0  502  0.16338746553E+03  0.17678610903E+03 -0.19223211244E+03  0.30806164527E+03  0.00000000000E+00 0.  1.
         11    1    5    5    0    0 -0.72139548876E+01 -0.65042351366E+01  0.34251874439E+01  0.10299423715E+02  0.00000000000E+00 0.  1.
        -11    1    5    5    0    0 -0.63351682148E+02 -0.12150589934E+03 -0.36911571227E+03  0.39373027348E+03  0.00000000000E+00 0. -1.
          1    1    6    6  503    0 -0.19349936635E+03 -0.28422080792E+03  0.48098414905E+03  0.59124379411E+03  0.00000000000E+00 0. -1.
         -1    1    6    6    0  503 -0.44176871883E+01  0.53396642353E+00 -0.19770441977E+01  0.48692693492E+01  0.00000000000E+00 0.  1.
<mgrwt>
<rscale>  0 0.16128164E+04</rscale>
<asrwt>0</asrwt>
<pdfrwt beam="1">  1        1 0.14788882E+00 0.16128164E+04</pdfrwt>
<pdfrwt beam="2">  1       -2 0.10407533E+00 0.16128164E+04</pdfrwt>
<totfact> 0.10241744E+01</totfact>
</mgrwt>
</event>
<event>
12    4  0.4207946E-008  0.1318220E+04  0.7818608E-02  0.9015240E-01
          1   -1    0    0  501    0  0.00000000000E+00  0.00000000000E+00  0.24780936625E+03  0.24780936625E+03  0.00000000000E+00 0. -1.
         -2   -1    0    0    0  501 -0.00000000000E+00 -0.00000000000E+00 -0.17530659127E+04  0.17530659127E+04  0.00000000000E+00 0.  1.
        -24    2    1    2    0    0  0.21955908875E+03 -0.14381962404E+03 -0.75778862051E+03  0.80592172750E+03  0.79849607228E+02 0.  0.
        254    2    1    2    0    0 -0.21955908875E+03  0.14381962404E+03 -0.74746792594E+03  0.11949535514E+04  0.89460349434E+03 0.  0.
         23    2    4    4    0    0  0.19577372970E+03  0.35756223231E+03 -0.18043432449E+03  0.45455977889E+03  0.88825356257E+02 0.  0.
         23    2    4    4    0    0 -0.41533281845E+03 -0.21374260827E+03 -0.56703360144E+03  0.74039377255E+03  0.92024891151E+02 0.  0.
          3    1    3    3  502    0  0.40717473965E+02  0.55161643082E+01 -0.12677188961E+03  0.13326459677E+03  0.00000000000E+00 0. -1.
         -2    1    3    3    0  502  0.17884161479E+03 -0.14933578835E+03 -0.63101673089E+03  0.67265713073E+03  0.00000000000E+00 0.  1.
         11    1    5    5    0    0  0.40591837516E+02  0.20779161323E+02 -0.11228255019E+02  0.46963225283E+02  0.00000000000E+00 0. -1.
        -11    1    5    5    0    0  0.15518189218E+03  0.33678307099E+03 -0.16920606948E+03  0.40759655361E+03  0.00000000000E+00 0.  1.
          3    1    6    6  503    0 -0.18788442464E+03 -0.46446805430E+02 -0.24106125038E+03  0.30914137411E+03  0.00000000000E+00 0. -1.
         -3    1    6    6    0  503 -0.22744839382E+03 -0.16729580284E+03 -0.32597235107E+03  0.43125239844E+03  0.00000000000E+00 0.  1.
<mgrwt>
<rscale>  0 0.13182202E+04</rscale>
<asrwt>0</asrwt>
<pdfrwt beam="1">  1        1 0.38124518E-01 0.13182202E+04</pdfrwt>
<pdfrwt beam="2">  1       -2 0.26970245E+00 0.13182202E+04</pdfrwt>
<totfact> 0.47017358E+00</totfact>
</mgrwt>
</event>
<event>
12    4  0.4207946E-008  0.2497636E+04  0.7818608E-02  0.8403828E-01
         -2   -1    0    0    0  501 -0.00000000000E+00  0.00000000000E+00  0.82654878517E+03  0.82654878517E+03  0.00000000000E+00 0.  1.
          1   -1    0    0  501    0  0.00000000000E+00 -0.00000000000E+00 -0.18868171535E+04  0.18868171535E+04  0.00000000000E+00 0. -1.
        -24    2    1    2    0    0  0.29156589719E+03 -0.70402987167E+03 -0.12497530245E+04  0.14664817600E+04  0.89539920435E+02 0.  0.
        254    2    1    2    0    0 -0.29156589719E+03  0.70402987167E+03  0.18948465621E+03  0.12468841787E+04  0.96857988186E+03 0.  0.
         23    2    4    4    0    0  0.33357145953E+03  0.36517305891E+03 -0.80271646905E+01  0.50331929435E+03  0.92976314870E+02 0.  0.
         23    2    4    4    0    0 -0.62513735671E+03  0.33885681276E+03  0.19751182090E+03  0.74356488435E+03  0.90868935998E+02 0.  0.
          1    1    3    3  502    0  0.19232908446E+03 -0.50996652180E+03 -0.95960961022E+03  0.11035882086E+04  0.00000000000E+00 0. -1.
         -2    1    3    3    0  502  0.99236812726E+02 -0.19406334987E+03 -0.29014341431E+03  0.36289355137E+03  0.00000000000E+00 0.  1.
         11    1    5    5    0    0  0.28916341650E+03  0.28503087052E+03 -0.35738414325E+02  0.40759699809E+03  0.00000000000E+00 0. -1.
        -11    1    5    5    0    0  0.44408043028E+02  0.80142188390E+02  0.27711249635E+02  0.95722296263E+02  0.00000000000E+00 0.  1.
          4    1    6    6  503    0 -0.26882356150E+03  0.12742673221E+03  0.39372859250E+02  0.30008982212E+03  0.00000000000E+00 0.  1.
         -4    1    6    6    0  503 -0.35631379522E+03  0.21143008055E+03  0.15813896165E+03  0.44347506222E+03  0.00000000000E+00 0. -1.
<mgrwt>
<rscale>  0 0.24976360E+04</rscale>
<asrwt>0</asrwt>
<pdfrwt beam="1">  1        1 0.29027956E+00 0.24976360E+04</pdfrwt>
<pdfrwt beam="2">  1       -2 0.12716135E+00 0.24976360E+04</pdfrwt>
<totfact> 0.12751999E+00</totfact>
</mgrwt>
</event>
<event>
12    4  0.4207946E-008  0.1934353E+04  0.7818608E-02  0.8637943E-01
         -2   -1    0    0    0  501 -0.00000000000E+00  0.00000000000E+00  0.12929528412E+04  0.12929528412E+04  0.00000000000E+00 0.  1.
          1   -1    0    0  501    0  0.00000000000E+00 -0.00000000000E+00 -0.72348388800E+03  0.72348388800E+03  0.00000000000E+00 0. -1.
        -24    2    1    2    0    0  0.14722925648E+03  0.42976820951E+03 -0.40434318455E+03  0.61361705954E+03  0.81580126280E+02 0.  0.
        254    2    1    2    0    0 -0.14722925648E+03 -0.42976820951E+03  0.97381213770E+03  0.14028196696E+04  0.90178477369E+03 0.  0.
         23    2    4    4    0    0 -0.49669665436E+02 -0.44772090487E+03  0.42176867751E+02  0.46149795077E+03  0.90996626728E+02 0.  0.
         23    2    4    4    0    0 -0.97559591039E+02  0.17952695359E+02  0.93163526995E+03  0.94132171884E+03  0.91116019862E+02 0.  0.
          3    1    3    3  502    0  0.75076704217E+02  0.29495360424E+03 -0.22848247169E+03  0.38057637872E+03  0.00000000000E+00 0. -1.
         -4    1    3    3    0  502  0.72152552258E+02  0.13481460527E+03 -0.17586071286E+03  0.23304068082E+03  0.00000000000E+00 0.  1.
         11    1    5    5    0    0 -0.43494505285E+02 -0.14799725483E+03 -0.19340871852E+02  0.15546391463E+03  0.00000000000E+00 0. -1.
        -11    1    5    5    0    0 -0.61751601512E+01 -0.29972365004E+03  0.61517739603E+02  0.30603403614E+03  0.00000000000E+00 0.  1.
          1    1    6    6  503    0 -0.51477672453E+02 -0.32860953814E+02  0.31361410995E+03  0.31950524723E+03  0.00000000000E+00 0. -1.
         -1    1    6    6    0  503 -0.46081918586E+02  0.50813649174E+02  0.61802116000E+03  0.62181647161E+03  0.00000000000E+00 0.  1.
<mgrwt>
<rscale>  0 0.19343532E+04</rscale>
<asrwt>0</asrwt>
<pdfrwt beam="1">  1        1 0.11130521E+00 0.19343532E+04</pdfrwt>
<pdfrwt beam="2">  1       -2 0.19891582E+00 0.19343532E+04</pdfrwt>
<totfact> 0.28597507E+00</totfact>
</mgrwt>
</event>
<event>
12    4  0.4207946E-008  0.1370628E+04  0.7818608E-02  0.8975358E-01
          1   -1    0    0  501    0  0.00000000000E+00  0.00000000000E+00  0.99778786695E+03  0.99778786695E+03  0.00000000000E+00 0. -1.
         -2   -1    0    0    0  501 -0.00000000000E+00 -0.00000000000E+00 -0.47069652110E+03  0.47069652110E+03  0.00000000000E+00 0.  1.
        -24    2    1    2    0    0  0.34679543979E+03 -0.97752801468E+02  0.51297785850E+01  0.36939395477E+03  0.81258180733E+02 0.  0.
        254    2    1    2    0    0 -0.34679543979E+03  0.97752801468E+02  0.52196156726E+03  0.10990904333E+04  0.89762643432E+03 0.  0.
         23    2    4    4    0    0  0.75875147537E+02 -0.31751378944E+03  0.32066739149E+03  0.46651026757E+03  0.90731523077E+02 0.  0.
         23    2    4    4    0    0 -0.42267058732E+03  0.41526659091E+03  0.20129417577E+03  0.63258016572E+03  0.92420527715E+02 0.  0.
          1    1    3    3  502    0  0.11957518096E+03 -0.18520207790E+02 -0.33785661651E+02  0.12562918821E+03  0.00000000000E+00 0. -1.
         -2    1    3    3    0  502  0.22722025883E+03 -0.79232593679E+02  0.38915440236E+02  0.24376476655E+03  0.00000000000E+00 0.  1.
         11    1    5    5    0    0  0.14644619481E+02 -0.22859351998E+03  0.19489096604E+03  0.30075230822E+03  0.00000000000E+00 0.  1.
        -11    1    5    5    0    0  0.61230528055E+02 -0.88920269463E+02  0.12577642545E+03  0.16575795935E+03  0.00000000000E+00 0. -1.
          2    1    6    6  503    0 -0.17471525944E+03  0.23298630206E+03  0.82240963053E+02  0.30260802176E+03  0.00000000000E+00 0. -1.
         -2    1    6    6    0  503 -0.24795532789E+03  0.18228028885E+03  0.11905321271E+03  0.32997214396E+03  0.00000000000E+00 0.  1.
<mgrwt>
<rscale>  0 0.13706280E+04</rscale>
<asrwt>0</asrwt>
<pdfrwt beam="1">  1        1 0.15350583E+00 0.13706280E+04</pdfrwt>
<pdfrwt beam="2">  1       -2 0.72414849E-01 0.13706280E+04</pdfrwt>
<totfact> 0.22460539E+01</totfact>
</mgrwt>
</event>
<event>
12    4  0.4207946E-008  0.2004480E+04  0.7818608E-02  0.8604529E-01
         -4   -1    0    0    0  501 -0.00000000000E+00  0.00000000000E+00  0.50477576516E+03  0.50477576516E+03  0.00000000000E+00 0.  1.
          1   -1    0    0  501    0  0.00000000000E+00 -0.00000000000E+00 -0.19899626291E+04  0.19899626291E+04  0.00000000000E+00 0. -1.
        -24    2    1    2    0    0  0.63218002501E+03  0.71964122391E+02  0.48999262264E+01  0.64147938950E+03  0.81494655884E+02 0.  0.
        254    2    1    2    0    0 -0.63218002501E+03 -0.71964122391E+02 -0.14900867902E+04  0.18532590048E+04  0.89965542159E+03 0.  0.
         23    2    4    4    0    0  0.14127264454E+03 -0.24264095510E+03 -0.31231609831E+03  0.43107665636E+03  0.97227286322E+02 0.  0.
         23    2    4    4    0    0 -0.77345266955E+03  0.17067683271E+03 -0.11777706919E+04  0.14221823484E+04  0.89995645921E+02 0.  0.
          1    1    3    3  502    0  0.52208621089E+02  0.15199985052E+02  0.21570276051E+02  0.58498345879E+02  0.00000000000E+00 0. -1.
         -2    1    3    3    0  502  0.57997140392E+03  0.56764137339E+02 -0.16670349824E+02  0.58298104362E+03  0.00000000000E+00 0.  1.
         11    1    5    5    0    0  0.92299034191E+02 -0.19506915846E+03 -0.17544704512E+03  0.27812363067E+03  0.00000000000E+00 0. -1.
        -11    1    5    5    0    0  0.48973610345E+02 -0.47571796639E+02 -0.13686905319E+03  0.15295302569E+03  0.00000000000E+00 0.  1.
          4    1    6    6  503    0 -0.68166534038E+03  0.13012920032E+03 -0.10658644934E+04  0.12718759229E+04  0.00000000000E+00 0. -1.
         -4    1    6    6    0  503 -0.91787329166E+02  0.40547632392E+02 -0.11190619851E+03  0.15030642552E+03  0.00000000000E+00 0.  1.
<mgrwt>
<rscale>  0 0.20044799E+04</rscale>
<asrwt>0</asrwt>
<pdfrwt beam="1">  1        1 0.30614810E+00 0.20044799E+04</pdfrwt>
<pdfrwt beam="2">  1       -4 0.77657809E-01 0.20044799E+04</pdfrwt>
<totfact> 0.20524014E+00</totfact>
</mgrwt>
</event>
<event>
12    4  0.4207946E-008  0.1867165E+04  0.7818608E-02  0.8671375E-01
         -2   -1    0    0    0  501 -0.00000000000E+00  0.00000000000E+00  0.60945481852E+03  0.60945481852E+03  0.00000000000E+00 0.  1.
          1   -1    0    0  501    0  0.00000000000E+00 -0.00000000000E+00 -0.14300918263E+04  0.14300918263E+04  0.00000000000E+00 0. -1.
        -24    2    1    2    0    0  0.49463935263E+03  0.30439300316E+03  0.13895640471E+03  0.60240505201E+03  0.79118738166E+02 0.  0.
        254    2    1    2    0    0 -0.49463935263E+03 -0.30439300316E+03 -0.95959341246E+03  0.14371415928E+04  0.89846160238E+03 0.  0.
         23    2    4    4    0    0 -0.19015883644E+03  0.20070126704E+03  0.17722585952E+02  0.29157995930E+03  0.90903250484E+02 0.  0.
         23    2    4    4    0    0 -0.30448051620E+03 -0.50509427019E+03 -0.97731599841E+03  0.11455616335E+04  0.96624473305E+02 0.  0.
          3    1    3    3  502    0  0.14743987483E+01 -0.37366482880E+01 -0.12928912103E+01  0.42199478408E+01  0.00000000000E+00 0. -1.
         -4    1    3    3    0  502  0.49316495389E+03  0.30812965144E+03  0.14024929592E+03  0.59818510417E+03  0.00000000000E+00 0.  1.
         11    1    5    5    0    0 -0.15599639779E+03  0.19529313339E+03  0.35888317214E+02  0.25251189157E+03  0.00000000000E+00 0. -1.
        -11    1    5    5    0    0 -0.34162438646E+02  0.54081336455E+01 -0.18165731262E+02  0.39068067729E+02  0.00000000000E+00 0.  1.
          3    1    6    6  503    0 -0.31108609869E+03 -0.48449820485E+03 -0.94755147505E+03  0.11087681765E+04  0.00000000000E+00 0. -1.
         -3    1    6    6    0  503  0.66055824964E+01 -0.20596065338E+02 -0.29764523364E+02  0.36793457009E+02  0.00000000000E+00 0.  1.
<mgrwt>
<rscale>  0 0.18671651E+04</rscale>
<asrwt>0</asrwt>
<pdfrwt beam="1">  1        1 0.22001413E+00 0.18671651E+04</pdfrwt>
<pdfrwt beam="2">  1       -2 0.93762280E-01 0.18671651E+04</pdfrwt>
<totfact> 0.57904038E+00</totfact>
</mgrwt>
</event>
<event>
12    4  0.4207946E-008  0.2434366E+04  0.7818608E-02  0.8426748E-01
          1   -1    0    0  501    0  0.00000000000E+00  0.00000000000E+00  0.24664414102E+04  0.24664414102E+04  0.00000000000E+00 0. -1.
         -2   -1    0    0    0  501 -0.00000000000E+00 -0.00000000000E+00 -0.60067710294E+03  0.60067710294E+03  0.00000000000E+00 0.  1.
        -24    2    1    2    0    0 -0.83111067426E+03  0.46003853313E+03  0.22336878998E+03  0.97902421464E+03  0.78831412975E+02 0.  0.
        254    2    1    2    0    0  0.83111067426E+03 -0.46003853313E+03  0.16423955172E+04  0.20880942985E+04  0.87194859907E+03 0.  0.
         23    2    4    4    0    0  0.35567528869E+03 -0.82320483815E+02  0.47722410450E+02  0.37927521887E+03  0.91053227045E+02 0.  0.
         23    2    4    4    0    0  0.47543538558E+03 -0.37771804931E+03  0.15946731068E+04  0.17088190796E+04  0.91490975691E+02 0.  0.
          1    1    3    3  502    0 -0.37355647205E+03  0.22679758931E+03  0.66621054618E+02  0.44206328647E+03  0.00000000000E+00 0. -1.
         -2    1    3    3    0  502 -0.45755420221E+03  0.23324094382E+03  0.15674773536E+03  0.53696092816E+03  0.00000000000E+00 0.  1.
         11    1    5    5    0    0  0.29373456422E+03 -0.55892095460E+02  0.72239981149E+02  0.30760776230E+03  0.00000000000E+00 0.  1.
        -11    1    5    5    0    0  0.61940724467E+02 -0.26428388355E+02 -0.24517570699E+02  0.71667456572E+02  0.00000000000E+00 0. -1.
          3    1    6    6  503    0  0.22049282874E+03 -0.13766761907E+03  0.58515386034E+03  0.64029251217E+03  0.00000000000E+00 0. -1.
         -3    1    6    6    0  503  0.25494255684E+03 -0.24005043024E+03  0.10095192465E+04  0.10685265674E+04  0.00000000000E+00 0.  1.
<mgrwt>
<rscale>  0 0.24343663E+04</rscale>
<asrwt>0</asrwt>
<pdfrwt beam="1">  1        1 0.37945252E+00 0.24343663E+04</pdfrwt>
<pdfrwt beam="2">  1       -2 0.92411863E-01 0.24343663E+04</pdfrwt>
<totfact> 0.11156301E+00</totfact>
</mgrwt>
</event>
<event>
12    4  0.4207946E-008  0.1395035E+04  0.7818608E-02  0.8957420E-01
         -2   -1    0    0    0  501 -0.00000000000E+00  0.00000000000E+00  0.11648007954E+04  0.11648007954E+04  0.00000000000E+00 0.  1.
          1   -1    0    0  501    0  0.00000000000E+00 -0.00000000000E+00 -0.41769449238E+03  0.41769449238E+03  0.00000000000E+00 0. -1.
        -24    2    1    2    0    0  0.19659082235E+03  0.29883858648E+03  0.42064688107E+03  0.55779147737E+03  0.78962532125E+02 0.  0.
        254    2    1    2    0    0 -0.19659082235E+03 -0.29883858648E+03  0.32645942191E+03  0.10247038104E+04  0.90304467921E+03 0.  0.
         23    2    4    4    0    0 -0.25464359223E+03 -0.31364116117E+03  0.60052060481E+03  0.72971910453E+03  0.93009879416E+02 0.  0.
         23    2    4    4    0    0  0.58052769880E+02  0.14802574687E+02 -0.27406118290E+03  0.29498470585E+03  0.91198708361E+02 0.  0.
          1    1    3    3  502    0  0.16300639945E+03  0.26145017828E+03  0.39621552366E+03  0.50191037365E+03  0.00000000000E+00 0. -1.
         -2    1    3    3    0  502  0.33584422897E+02  0.37388408197E+02  0.24431357404E+02  0.55881103724E+02  0.00000000000E+00 0.  1.
         11    1    5    5    0    0 -0.10854373152E+03 -0.66169991740E+02  0.17832319034E+03  0.21899627776E+03  0.00000000000E+00 0. -1.
        -11    1    5    5    0    0 -0.14609986070E+03 -0.24747116943E+03  0.42219741447E+03  0.51072282676E+03  0.00000000000E+00 0.  1.
          3    1    6    6  503    0  0.80294278823E+02 -0.72867503594E-01 -0.17810691043E+03  0.19536951672E+03  0.00000000000E+00 0. -1.
         -3    1    6    6    0  503 -0.22241508943E+02  0.14875442190E+02 -0.95954272469E+02  0.99615189130E+02  0.00000000000E+00 0.  1.
<mgrwt>
<rscale>  0 0.13950353E+04</rscale>
<asrwt>0</asrwt>
<pdfrwt beam="1">  1        1 0.64260692E-01 0.13950353E+04</pdfrwt>
<pdfrwt beam="2">  1       -2 0.17920012E+00 0.13950353E+04</pdfrwt>
<totfact> 0.88550487E+00</totfact>
</mgrwt>
</event>
<event>
12    4  0.4207946E-008  0.1978065E+04  0.7818608E-02  0.8616945E-01
          1   -1    0    0  501    0  0.00000000000E+00  0.00000000000E+00  0.11160153306E+04  0.11160153306E+04  0.00000000000E+00 0. -1.
         -2   -1    0    0    0  501 -0.00000000000E+00 -0.00000000000E+00 -0.87649788603E+03  0.87649788603E+03  0.00000000000E+00 0.  1.
        -24    2    1    2    0    0  0.14641383151E+03 -0.76181008936E+03  0.15993176293E+03  0.79627175451E+03  0.81724634789E+02 0.  0.
        254    2    1    2    0    0 -0.14641383151E+03  0.76181008936E+03  0.79585681677E+02  0.11962414622E+04  0.90712079281E+03 0.  0.
         23    2    4    4    0    0  0.52359047178E+02  0.43055840374E+03 -0.38387955149E+03  0.58610747667E+03  0.89646278858E+02 0.  0.
         23    2    4    4    0    0 -0.19877287869E+03  0.33125168562E+03  0.46346523316E+03  0.61013398548E+03  0.90692454803E+02 0.  0.
          3    1    3    3  502    0  0.93653979340E+01 -0.97749802516E+01  0.11079174372E+02  0.17493113563E+02  0.00000000000E+00 0. -1.
         -4    1    3    3    0  502  0.13704843358E+03 -0.75203510911E+03  0.14885258856E+03  0.77877864095E+03  0.00000000000E+00 0.  1.
         11    1    5    5    0    0  0.17310384772E+02  0.37383032458E+03 -0.30468310738E+03  0.48257699585E+03  0.00000000000E+00 0.  1.
        -11    1    5    5    0    0  0.35048662406E+02  0.56728079153E+02 -0.79196444103E+02  0.10353048082E+03  0.00000000000E+00 0. -1.
          1    1    6    6  503    0 -0.43208993937E+02  0.24748584373E+02  0.35133566152E+02  0.60941587246E+02  0.00000000000E+00 0. -1.
         -1    1    6    6    0  503 -0.15556388475E+03  0.30650310125E+03  0.42833166701E+03  0.54919239824E+03  0.00000000000E+00 0.  1.
<mgrwt>
<rscale>  0 0.19780648E+04</rscale>
<asrwt>0</asrwt>
<pdfrwt beam="1">  1        1 0.17169467E+00 0.19780648E+04</pdfrwt>
<pdfrwt beam="2">  1       -2 0.13484583E+00 0.19780648E+04</pdfrwt>
<totfact> 0.39768900E+00</totfact>
</mgrwt>
</event>
<event>
12    4  0.4207946E-008  0.1876464E+04  0.7818608E-02  0.8666661E-01
          1   -1    0    0  501    0  0.00000000000E+00  0.00000000000E+00  0.12145012274E+04  0.12145012274E+04  0.00000000000E+00 0. -1.
         -2   -1    0    0    0  501 -0.00000000000E+00 -0.00000000000E+00 -0.72480709033E+03  0.72480709033E+03  0.00000000000E+00 0.  1.
        -24    2    1    2    0    0  0.48191756759E+03 -0.52612126551E+03  0.14120207716E+03  0.73136315843E+03  0.76849950796E+02 0.  0.
        254    2    1    2    0    0 -0.48191756759E+03  0.52612126551E+03  0.34849205991E+03  0.12079451593E+04  0.91029482261E+03 0.  0.
         23    2    4    4    0    0 -0.10910800269E+03  0.11623798692E+03 -0.29885666207E+03  0.35085171098E+03  0.91464707844E+02 0.  0.
         23    2    4    4    0    0 -0.37280956490E+03  0.40988327859E+03  0.64734872198E+03  0.85709344832E+03  0.92506959492E+02 0.  0.
          3    1    3    3  502    0  0.40447908213E+03 -0.45094315201E+03  0.91863661119E+02  0.61269240771E+03  0.00000000000E+00 0. -1.
         -2    1    3    3    0  502  0.77438485461E+02 -0.75178113497E+02  0.49338416037E+02  0.11867075072E+03  0.00000000000E+00 0.  1.
         11    1    5    5    0    0  0.16482227487E+02  0.16400744590E+02 -0.41959270693E+02  0.47971123013E+02  0.00000000000E+00 0. -1.
        -11    1    5    5    0    0 -0.12559023018E+03  0.99837242328E+02 -0.25689739137E+03  0.30288058797E+03  0.00000000000E+00 0.  1.
          2    1    6    6  503    0 -0.56780289075E+02  0.69544021883E+02  0.58621304574E+02  0.10722326966E+03  0.00000000000E+00 0. -1.
         -2    1    6    6    0  503 -0.31602927583E+03  0.34033925671E+03  0.58872741740E+03  0.74987017866E+03  0.00000000000E+00 0.  1.
<mgrwt>
<rscale>  0 0.18764638E+04</rscale>
<asrwt>0</asrwt>
<pdfrwt beam="1">  1        1 0.18684634E+00 0.18764638E+04</pdfrwt>
<pdfrwt beam="2">  1       -2 0.11150878E+00 0.18764638E+04</pdfrwt>
<totfact> 0.54511607E+00</totfact>
</mgrwt>
</event>
<event>
12    4  0.4207946E-008  0.1515425E+04  0.7818608E-02  0.8874260E-01
          1   -1    0    0  501    0  0.00000000000E+00  0.00000000000E+00  0.17524530647E+04  0.17524530647E+04  0.00000000000E+00 0. -1.
         -2   -1    0    0    0  501 -0.00000000000E+00 -0.00000000000E+00 -0.32761386150E+03  0.32761386150E+03  0.00000000000E+00 0.  1.
        -24    2    1    2    0    0 -0.47702887911E+03 -0.75155109503E+02  0.54971903970E+03  0.73615326773E+03  0.80782231907E+02 0.  0.
        254    2    1    2    0    0  0.47702887911E+03  0.75155109503E+02  0.87512016350E+03  0.13439136585E+04  0.89836728507E+03 0.  0.
         23    2    4    4    0    0 -0.12644532970E+03 -0.16464044789E+03  0.58400584353E+03  0.62640368194E+03  0.90685439783E+02 0.  0.
         23    2    4    4    0    0  0.60347420881E+03  0.23979555739E+03  0.29111431997E+03  0.71750997654E+03  0.91596883605E+02 0.  0.
          1    1    3    3  502    0 -0.17272004560E+03 -0.34972368839E+02  0.14506541351E+03  0.22825261210E+03  0.00000000000E+00 0. -1.
         -2    1    3    3    0  502 -0.30430883351E+03 -0.40182740664E+02  0.40465362619E+03  0.50790065563E+03  0.00000000000E+00 0.  1.
         11    1    5    5    0    0 -0.76906890404E+02 -0.54955454276E+02  0.35896169348E+03  0.37119842286E+03  0.00000000000E+00 0.  1.
        -11    1    5    5    0    0 -0.49538439298E+02 -0.10968499361E+03  0.22504415004E+03  0.25520525908E+03  0.00000000000E+00 0. -1.
          1    1    6    6  503    0  0.37139675554E+03  0.18794599785E+03  0.21030669163E+03  0.46635625082E+03  0.00000000000E+00 0. -1.
         -1    1    6    6    0  503  0.23207745328E+03  0.51849559547E+02  0.80807628339E+02  0.25115372572E+03  0.00000000000E+00 0.  1.
<mgrwt>
<rscale>  0 0.15154246E+04</rscale>
<asrwt>0</asrwt>
<pdfrwt beam="1">  1        1 0.26960816E+00 0.15154246E+04</pdfrwt>
<pdfrwt beam="2">  1       -2 0.50402134E-01 0.15154246E+04</pdfrwt>
<totfact> 0.13858328E+01</totfact>
</mgrwt>
</event>
<event>
12    4  0.4207946E-008  0.1777250E+04  0.7818608E-02  0.8718492E-01
         -2   -1    0    0    0  501 -0.00000000000E+00  0.00000000000E+00  0.36187734030E+03  0.36187734030E+03  0.00000000000E+00 0.  1.
          1   -1    0    0  501    0  0.00000000000E+00 -0.00000000000E+00 -0.21821041501E+04  0.21821041501E+04  0.00000000000E+00 0. -1.
        -24    2    1    2    0    0  0.16651163711E+02 -0.34368817732E+03  0.12264793795E+03  0.37388174285E+03  0.79663143765E+02 0.  0.
        254    2    1    2    0    0 -0.16651163711E+02  0.34368817732E+03 -0.19428747478E+04  0.21700997476E+04  0.90342227355E+03 0.  0.
         23    2    4    4    0    0 -0.23592203617E+03  0.54333960611E+03 -0.89506004997E+03  0.10773606040E+04  0.93253649762E+02 0.  0.
         23    2    4    4    0    0  0.21927087246E+03 -0.19965142879E+03 -0.10478146978E+04  0.10927391436E+04  0.90679581515E+02 0.  0.
          1    1    3    3  502    0  0.19585365838E+02 -0.15517414824E+02  0.76326372409E+01  0.26127262946E+02  0.00000000000E+00 0. -1.
         -2    1    3    3    0  502 -0.29342021271E+01 -0.32817076249E+03  0.11501530071E+03  0.34775447991E+03  0.00000000000E+00 0.  1.
         11    1    5    5    0    0 -0.21337037383E+03  0.52249725027E+03 -0.87300996619E+03  0.10395560081E+04  0.00000000000E+00 0. -1.
        -11    1    5    5    0    0 -0.22551662344E+02  0.20842355835E+02 -0.22050083784E+02  0.37804595833E+02  0.00000000000E+00 0.  1.
          2    1    6    6  503    0  0.21923537019E+03 -0.18247863806E+03 -0.90479259130E+03  0.94868974599E+03  0.00000000000E+00 0. -1.
         -2    1    6    6    0  503  0.35502266264E-01 -0.17172790736E+02 -0.14302210649E+03  0.14404939759E+03  0.00000000000E+00 0.  1.
<mgrwt>
<rscale>  0 0.17772496E+04</rscale>
<asrwt>0</asrwt>
<pdfrwt beam="1">  1        1 0.33570833E+00 0.17772496E+04</pdfrwt>
<pdfrwt beam="2">  1       -2 0.55673437E-01 0.17772496E+04</pdfrwt>
<totfact> 0.56409601E+00</totfact>
</mgrwt>
</event>
<event>
12    4  0.4207946E-008  0.1821741E+04  0.7818608E-02  0.8694823E-01
         -2   -1    0    0    0  501 -0.00000000000E+00  0.00000000000E+00  0.39114837316E+03  0.39114837316E+03  0.00000000000E+00 0.  1.
          1   -1    0    0  501    0  0.00000000000E+00 -0.00000000000E+00 -0.21211508866E+04  0.21211508866E+04  0.00000000000E+00 0. -1.
        -24    2    1    2    0    0  0.40636752644E+03 -0.22583794714E+03 -0.13520726574E+04  0.14324210890E+04  0.87134151372E+02 0.  0.
        254    2    1    2    0    0 -0.40636752644E+03  0.22583794714E+03 -0.37792985602E+03  0.10798781708E+04  0.89842559108E+03 0.  0.
         23    2    4    4    0    0 -0.36299354033E+03 -0.29054093317E+03 -0.10128574530E+03  0.48464076696E+03  0.91866896262E+02 0.  0.
         23    2    4    4    0    0 -0.43373986104E+02  0.51637888030E+03 -0.27664411072E+03  0.59523740381E+03  0.96162114164E+02 0.  0.
          1    1    3    3  502    0  0.40525507031E+03 -0.21965517948E+03 -0.13486870158E+04  0.14252847914E+04  0.00000000000E+00 0. -1.
         -2    1    3    3    0  502  0.11124561247E+01 -0.61827676631E+01 -0.33856415968E+01  0.71362976133E+01  0.00000000000E+00 0.  1.
         11    1    5    5    0    0 -0.58894947378E+02 -0.86331738813E+02 -0.46026638591E+02  0.11419385015E+03  0.00000000000E+00 0. -1.
        -11    1    5    5    0    0 -0.30409859295E+03 -0.20420919435E+03 -0.55259106711E+02  0.37044691680E+03  0.00000000000E+00 0.  1.
          4    1    6    6  503    0 -0.73884619113E+02  0.34060111987E+03 -0.18885556811E+03  0.39640192407E+03  0.00000000000E+00 0. -1.
         -4    1    6    6    0  503  0.30510633009E+02  0.17577776043E+03 -0.87788542608E+02  0.19883547974E+03  0.00000000000E+00 0.  1.
<mgrwt>
<rscale>  0 0.18217406E+04</rscale>
<asrwt>0</asrwt>
<pdfrwt beam="1">  1        1 0.32633089E+00 0.18217406E+04</pdfrwt>
<pdfrwt beam="2">  1       -2 0.60176675E-01 0.18217406E+04</pdfrwt>
<totfact> 0.52496627E+00</totfact>
</mgrwt>
</event>
<event>
12    4  0.4207946E-008  0.1988395E+04  0.7818608E-02  0.8612066E-01
          1   -1    0    0  501    0  0.00000000000E+00  0.00000000000E+00  0.14628370172E+04  0.14628370172E+04  0.00000000000E+00 0. -1.
         -2   -1    0    0    0  501 -0.00000000000E+00 -0.00000000000E+00 -0.67569318122E+03  0.67569318122E+03  0.00000000000E+00 0.  1.
        -24    2    1    2    0    0  0.29254474889E+03  0.44873795289E+03 -0.31525746751E+03  0.62689674187E+03  0.81633777770E+02 0.  0.
        254    2    1    2    0    0 -0.29254474889E+03 -0.44873795289E+03  0.11024013035E+04  0.15116334565E+04  0.88475922857E+03 0.  0.
         23    2    4    4    0    0  0.36358850624E+02 -0.46696727436E+03  0.15057464602E+03  0.50034517997E+03  0.91061373535E+02 0.  0.
         23    2    4    4    0    0 -0.32890359951E+03  0.18229321472E+02  0.95182665743E+03  0.10112882765E+04  0.90664803253E+02 0.  0.
          1    1    3    3  502    0  0.13033454821E+02 -0.15876558276E+00 -0.67597206187E+01  0.14682982460E+02  0.00000000000E+00 0. -1.
         -2    1    3    3    0  502  0.27951129407E+03  0.44889671848E+03 -0.30849774689E+03  0.61221375941E+03  0.00000000000E+00 0.  1.
         11    1    5    5    0    0  0.61805277103E+02 -0.40088293433E+03  0.13780260131E+03  0.42838834746E+03  0.00000000000E+00 0. -1.
        -11    1    5    5    0    0 -0.25446426479E+02 -0.66084340036E+02  0.12772044706E+02  0.71956832508E+02  0.00000000000E+00 0.  1.
          2    1    6    6  503    0 -0.25711996905E+03  0.49452846723E+02  0.68992539156E+03  0.73793855330E+03  0.00000000000E+00 0. -1.
         -2    1    6    6    0  503 -0.71783630465E+02 -0.31223525251E+02  0.26190126587E+03  0.27334972324E+03  0.00000000000E+00 0.  1.
<mgrwt>
<rscale>  0 0.19883953E+04</rscale>
<asrwt>0</asrwt>
<pdfrwt beam="1">  1        1 0.22505185E+00 0.19883953E+04</pdfrwt>
<pdfrwt beam="2">  1       -2 0.10395280E+00 0.19883953E+04</pdfrwt>
<totfact> 0.42606137E+00</totfact>
</mgrwt>
</event>
<event>
12    4  0.4207946E-008  0.1804325E+04  0.7818608E-02  0.8704003E-01
         -2   -1    0    0    0  501 -0.00000000000E+00  0.00000000000E+00  0.46485834520E+03  0.46485834520E+03  0.00000000000E+00 0.  1.
          1   -1    0    0  501    0  0.00000000000E+00 -0.00000000000E+00 -0.17508492161E+04  0.17508492161E+04  0.00000000000E+00 0. -1.
        -24    2    1    2    0    0 -0.48044245137E+03  0.30634527819E+02  0.82451218823E+02  0.49483545330E+03  0.79375682590E+02 0.  0.
        254    2    1    2    0    0  0.48044245137E+03 -0.30634527819E+02 -0.13684420897E+04  0.17208721080E+04  0.92574490859E+03 0.  0.
         23    2    4    4    0    0  0.29555653177E+03  0.36071386439E+03 -0.29389222517E+03  0.55897218713E+03  0.92785292674E+02 0.  0.
         23    2    4    4    0    0  0.18488591960E+03 -0.39134839221E+03 -0.10745498645E+04  0.11618999208E+04  0.89541316459E+02 0.  0.
          3    1    3    3  502    0 -0.13386100679E+03  0.20141087599E+02  0.57889201514E+02  0.14722632985E+03  0.00000000000E+00 0. -1.
         -4    1    3    3    0  502 -0.34658144458E+03  0.10493440219E+02  0.24562017309E+02  0.34760912345E+03  0.00000000000E+00 0.  1.
         11    1    5    5    0    0  0.24020264461E+03  0.32483202749E+03 -0.22035905681E+03  0.46018612591E+03  0.00000000000E+00 0. -1.
        -11    1    5    5    0    0  0.55353887162E+02  0.35881836899E+02 -0.73533168356E+02  0.98786061221E+02  0.00000000000E+00 0.  1.
          1    1    6    6  503    0  0.64323598064E+02 -0.68070131350E+02 -0.29233971407E+03  0.30697487922E+03  0.00000000000E+00 0. -1.
         -1    1    6    6    0  503  0.12056232153E+03 -0.32327826086E+03 -0.78221015043E+03  0.85492504160E+03  0.00000000000E+00 0.  1.
<mgrwt>
<rscale>  0 0.18043247E+04</rscale>
<asrwt>0</asrwt>
<pdfrwt beam="1">  1        1 0.26936142E+00 0.18043247E+04</pdfrwt>
<pdfrwt beam="2">  1       -2 0.71516668E-01 0.18043247E+04</pdfrwt>
<totfact> 0.64622229E+00</totfact>
</mgrwt>
</event>
<event>
12    4  0.4207946E-008  0.4511298E+04  0.7818608E-02  0.7908662E-01
         -2   -1    0    0    0  501 -0.00000000000E+00  0.00000000000E+00  0.45892555761E+04  0.45892555761E+04  0.00000000000E+00 0.  1.
          1   -1    0    0  501    0  0.00000000000E+00 -0.00000000000E+00 -0.11086663304E+04  0.11086663304E+04  0.00000000000E+00 0. -1.
        -24    2    1    2    0    0 -0.16048240913E+04 -0.12665691385E+04  0.25683910494E+04  0.32836813448E+04  0.79201292055E+02 0.  0.
        254    2    1    2    0    0  0.16048240913E+04  0.12665691385E+04  0.91219819625E+03  0.24142405616E+04  0.90376666983E+03 0.  0.
         23    2    4    4    0    0  0.17012402874E+04  0.12111056369E+04  0.86830524753E+03  0.22637505629E+04  0.98067471037E+02 0.  0.
         23    2    4    4    0    0 -0.96416196071E+02  0.55463501593E+02  0.43892948717E+02  0.15048999875E+03  0.91369392586E+02 0.  0.
          3    1    3    3  502    0 -0.64285444543E+03 -0.49430138350E+03  0.10790441115E+04  0.13497895726E+04  0.00000000000E+00 0. -1.
         -4    1    3    3    0  502 -0.96196964590E+03 -0.77226775498E+03  0.14893469379E+04  0.19338917722E+04  0.00000000000E+00 0.  1.
         11    1    5    5    0    0  0.15942706537E+03  0.14276052076E+03  0.10839570732E+03  0.23988994315E+03  0.00000000000E+00 0. -1.
        -11    1    5    5    0    0  0.15418132220E+04  0.10683451161E+04  0.75990954021E+03  0.20238606197E+04  0.00000000000E+00 0.  1.
          2    1    6    6  503    0 -0.96499489294E+02  0.65369619674E+02  0.60371199546E+02  0.13126317208E+03  0.00000000000E+00 0. -1.
         -2    1    6    6    0  503  0.83293223141E-01 -0.99061180807E+01 -0.16478250829E+02  0.19226826664E+02  0.00000000000E+00 0.  1.
<mgrwt>
<rscale>  0 0.45112983E+04</rscale>
<asrwt>0</asrwt>
<pdfrwt beam="1">  1        1 0.17056405E+00 0.45112983E+04</pdfrwt>
<pdfrwt beam="2">  1       -2 0.70603931E+00 0.45112983E+04</pdfrwt>
<totfact> 0.17865620E-03</totfact>
</mgrwt>
</event>
<event>
12    4  0.4207946E-008  0.1413692E+04  0.7818608E-02  0.8943967E-01
         -2   -1    0    0    0  501 -0.00000000000E+00  0.00000000000E+00  0.27283688606E+03  0.27283688606E+03  0.00000000000E+00 0.  1.
          1   -1    0    0  501    0  0.00000000000E+00 -0.00000000000E+00 -0.18312446438E+04  0.18312446438E+04  0.00000000000E+00 0. -1.
        -24    2    1    2    0    0 -0.43851407259E+02 -0.27823935933E+03 -0.49464790273E+02  0.29643198778E+03  0.78006864472E+02 0.  0.
        254    2    1    2    0    0  0.43851407259E+02  0.27823935933E+03 -0.15089429675E+04  0.18076495421E+04  0.95464543205E+03 0.  0.
         23    2    4    4    0    0  0.10129514528E+03  0.56137954671E+02 -0.15502818494E+04  0.15572822284E+04  0.91334276199E+02 0.  0.
         23    2    4    4    0    0 -0.57443738024E+02  0.22210140466E+03  0.41338881889E+02  0.25036731369E+03  0.91356836749E+02 0.  0.
          3    1    3    3  502    0  0.15225237736E+02 -0.67320286812E+02 -0.33756512022E+02  0.76833137282E+02  0.00000000000E+00 0. -1.
         -4    1    3    3    0  502 -0.59076644995E+02 -0.21091907252E+03 -0.15708278251E+02  0.21959885050E+03  0.00000000000E+00 0.  1.
         11    1    5    5    0    0  0.72547747805E+02 -0.73407019385E+01 -0.99035673166E+03  0.99303752072E+03  0.00000000000E+00 0.  1.
        -11    1    5    5    0    0  0.28747397478E+02  0.63478656609E+02 -0.55992511769E+03  0.56424470767E+03  0.00000000000E+00 0. -1.
          4    1    6    6  503    0 -0.44297912668E+02  0.13855472059E+03  0.69517994124E+02  0.16122179497E+03  0.00000000000E+00 0. -1.
         -4    1    6    6    0  503 -0.13145825356E+02  0.83546684065E+02 -0.28179112235E+02  0.89145518726E+02  0.00000000000E+00 0.  1.
<mgrwt>
<rscale>  0 0.14136917E+04</rscale>
<asrwt>0</asrwt>
<pdfrwt beam="1">  1        1 0.28172994E+00 0.14136917E+04</pdfrwt>
<pdfrwt beam="2">  1       -2 0.41974906E-01 0.14136917E+04</pdfrwt>
<totfact> 0.17848194E+01</totfact>
</mgrwt>
</event>
<event>
12    4  0.4207946E-008  0.2321099E+04  0.7818608E-02  0.8469648E-01
          1   -1    0    0  501    0  0.00000000000E+00  0.00000000000E+00  0.13507656578E+04  0.13507656578E+04  0.00000000000E+00 0. -1.
         -2   -1    0    0    0  501 -0.00000000000E+00 -0.00000000000E+00 -0.99712009392E+03  0.99712009392E+03  0.00000000000E+00 0.  1.
        -24    2    1    2    0    0  0.13486834613E+03  0.81717736429E+03  0.69372731856E+03  0.10833662794E+04  0.80352892817E+02 0.  0.
        254    2    1    2    0    0 -0.13486834613E+03 -0.81717736429E+03 -0.34008175472E+03  0.12645194723E+04  0.89296448995E+03 0.  0.
         23    2    4    4    0    0 -0.44038545129E+03 -0.14695691691E+03 -0.96980116270E+02  0.48362501800E+03  0.94616774135E+02 0.  0.
         23    2    4    4    0    0  0.30551710516E+03 -0.67022044738E+03 -0.24310163845E+03  0.78089445425E+03  0.90341532133E+02 0.  0.
          3    1    3    3  502    0  0.51337299186E+02  0.42893639250E+03  0.40724591061E+03  0.59369283203E+03  0.00000000000E+00 0. -1.
         -4    1    3    3    0  502  0.83531046948E+02  0.38824097180E+03  0.28648140795E+03  0.48967344740E+03  0.00000000000E+00 0.  1.
         11    1    5    5    0    0 -0.49124412157E+02  0.13333494577E+02 -0.77120181295E+01  0.51482668648E+02  0.00000000000E+00 0. -1.
        -11    1    5    5    0    0 -0.39126103914E+03 -0.16029041149E+03 -0.89268098140E+02  0.43214234936E+03  0.00000000000E+00 0.  1.
          3    1    6    6  503    0  0.91884715963E+02 -0.12863712232E+03 -0.29878627258E+02  0.16088207679E+03  0.00000000000E+00 0. -1.
         -3    1    6    6    0  503  0.21363238920E+03 -0.54158332506E+03 -0.21322301119E+03  0.62001237745E+03  0.00000000000E+00 0.  1.
<mgrwt>
<rscale>  0 0.23210994E+04</rscale>
<asrwt>0</asrwt>
<pdfrwt beam="1">  1        1 0.20781010E+00 0.23210994E+04</pdfrwt>
<pdfrwt beam="2">  1       -2 0.15340309E+00 0.23210994E+04</pdfrwt>
<totfact> 0.18602842E+00</totfact>
</mgrwt>
</event>
<event>
12    4  0.4207946E-008  0.2074493E+04  0.7818608E-02  0.8572563E-01
         -2   -1    0    0    0  501 -0.00000000000E+00  0.00000000000E+00  0.59531802420E+03  0.59531802420E+03  0.00000000000E+00 0.  1.
          1   -1    0    0  501    0  0.00000000000E+00 -0.00000000000E+00 -0.18072362594E+04  0.18072362594E+04  0.00000000000E+00 0. -1.
        -24    2    1    2    0    0 -0.99335946186E+02 -0.83899490762E+03 -0.37203806867E+03  0.92661746712E+03  0.80171819282E+02 0.  0.
        254    2    1    2    0    0  0.99335946186E+02  0.83899490762E+03 -0.83988016650E+03  0.14759368165E+04  0.87132698046E+03 0.  0.
         23    2    4    4    0    0  0.29824265177E+03  0.69422509947E+03 -0.92728206647E+03  0.11995909885E+04  0.90935915699E+02 0.  0.
         23    2    4    4    0    0 -0.19890670559E+03  0.14476980815E+03  0.87401899970E+02  0.27634582798E+03  0.90585592920E+02 0.  0.
          1    1    3    3  502    0 -0.66810904989E+02 -0.69516359938E+03 -0.33508233020E+03  0.77459427763E+03  0.00000000000E+00 0. -1.
         -2    1    3    3    0  502 -0.32525041197E+02 -0.14383130824E+03 -0.36955738472E+02  0.15202318949E+03  0.00000000000E+00 0.  1.
         11    1    5    5    0    0  0.18876548831E+03  0.34765052600E+03 -0.52640207320E+03  0.65847736519E+03  0.00000000000E+00 0. -1.
        -11    1    5    5    0    0  0.10947716347E+03  0.34657457347E+03 -0.40087999327E+03  0.54111362328E+03  0.00000000000E+00 0.  1.
          1    1    6    6  503    0 -0.17283284272E+03  0.15369499798E+03  0.91016863111E+02  0.24855062522E+03  0.00000000000E+00 0. -1.
         -1    1    6    6    0  503 -0.26073862865E+02 -0.89251898241E+01 -0.36149631415E+01  0.27795202763E+02  0.00000000000E+00 0.  1.
<mgrwt>
<rscale>  0 0.20744930E+04</rscale>
<asrwt>0</asrwt>
<pdfrwt beam="1">  1        1 0.27803634E+00 0.20744930E+04</pdfrwt>
<pdfrwt beam="2">  1       -2 0.91587389E-01 0.20744930E+04</pdfrwt>
<totfact> 0.33087824E+00</totfact>
</mgrwt>
</event>
<event>
12    4  0.4207946E-008  0.1096345E+04  0.7818608E-02  0.9208762E-01
          1   -1    0    0  501    0  0.00000000000E+00  0.00000000000E+00  0.24750271169E+03  0.24750271169E+03  0.00000000000E+00 0. -1.
         -2   -1    0    0    0  501 -0.00000000000E+00 -0.00000000000E+00 -0.12140995772E+04  0.12140995772E+04  0.00000000000E+00 0.  1.
        -24    2    1    2    0    0 -0.14706604873E+03  0.70911906555E+02 -0.20848013933E+03  0.27691212836E+03  0.80990352258E+02 0.  0.
        254    2    1    2    0    0  0.14706604873E+03 -0.70911906555E+02 -0.75811672615E+03  0.11846901605E+04  0.89559638494E+03 0.  0.
         23    2    4    4    0    0  0.19244396328E+03 -0.46012893868E+03 -0.39322615496E+03  0.64150562198E+03  0.90273666587E+02 0.  0.
         23    2    4    4    0    0 -0.45377914552E+02  0.38921703212E+03 -0.36489057119E+03  0.54318453851E+03  0.91407115187E+02 0.  0.
          3    1    3    3  502    0 -0.15141791925E+02  0.38931664591E+02 -0.25020897493E+02  0.48692850419E+02  0.00000000000E+00 0. -1.
         -4    1    3    3    0  502 -0.13192425681E+03  0.31980241963E+02 -0.18345924184E+03  0.22821927795E+03  0.00000000000E+00 0.  1.
         11    1    5    5    0    0  0.17652616058E+03 -0.45194954447E+03 -0.39163893250E+03  0.62353903611E+03  0.00000000000E+00 0.  1.
        -11    1    5    5    0    0  0.15917802707E+02 -0.81793942108E+01 -0.15872224654E+01  0.17966585870E+02  0.00000000000E+00 0. -1.
          3    1    6    6  503    0  0.92565119720E+01  0.16046134952E+03 -0.19684306248E+03  0.25412736757E+03  0.00000000000E+00 0. -1.
         -3    1    6    6    0  503 -0.54634426524E+02  0.22875568261E+03 -0.16804750872E+03  0.28905717094E+03  0.00000000000E+00 0.  1.
<mgrwt>
<rscale>  0 0.10963447E+04</rscale>
<asrwt>0</asrwt>
<pdfrwt beam="1">  1        1 0.38077340E-01 0.10963447E+04</pdfrwt>
<pdfrwt beam="2">  1       -2 0.18678455E+00 0.10963447E+04</pdfrwt>
<totfact> 0.15945944E+01</totfact>
</mgrwt>
</event>
<event>
12    4  0.4207946E-008  0.2025300E+04  0.7818608E-02  0.8594883E-01
         -2   -1    0    0    0  501 -0.00000000000E+00  0.00000000000E+00  0.44015103761E+03  0.44015103761E+03  0.00000000000E+00 0.  1.
          1   -1    0    0  501    0  0.00000000000E+00 -0.00000000000E+00 -0.23297910207E+04  0.23297910207E+04  0.00000000000E+00 0. -1.
        -24    2    1    2    0    0  0.67303516500E+02 -0.29525151407E+02  0.34322562984E+03  0.36159373252E+03  0.86860212517E+02 0.  0.
        254    2    1    2    0    0 -0.67303516500E+02  0.29525151407E+02 -0.22328656130E+04  0.24083483258E+04  0.89947279837E+03 0.  0.
         23    2    4    4    0    0 -0.28025515077E+03  0.35426112635E+03 -0.82795664903E+03  0.94772947011E+03  0.92924919518E+02 0.  0.
         23    2    4    4    0    0  0.21295163427E+03 -0.32473597494E+03 -0.14049089639E+04  0.14606188557E+04  0.94002089018E+02 0.  0.
          1    1    3    3  502    0  0.33960865019E+02  0.29921735354E+02  0.12310638473E+03  0.13116338117E+03  0.00000000000E+00 0. -1.
         -2    1    3    3    0  502  0.33342651482E+02 -0.59446886761E+02  0.22011924511E+03  0.23043035135E+03  0.00000000000E+00 0.  1.
         11    1    5    5    0    0 -0.32910110175E+02  0.10489111293E+03 -0.19924613899E+03  0.22756151877E+03  0.00000000000E+00 0. -1.
        -11    1    5    5    0    0 -0.24734504060E+03  0.24937001342E+03 -0.62871051004E+03  0.72016795134E+03  0.00000000000E+00 0.  1.
          3    1    6    6  503    0  0.30387174928E+01 -0.45845289609E+02 -0.24712681100E+03  0.25136166195E+03  0.00000000000E+00 0. -1.
         -3    1    6    6    0  503  0.20991291678E+03 -0.27889068533E+03 -0.11577821529E+04  0.12092571938E+04  0.00000000000E+00 0.  1.
<mgrwt>
<rscale>  0 0.20252999E+04</rscale>
<asrwt>0</asrwt>
<pdfrwt beam="1">  1        1 0.35842939E+00 0.20252999E+04</pdfrwt>
<pdfrwt beam="2">  1       -2 0.67715544E-01 0.20252999E+04</pdfrwt>
<totfact> 0.28855988E+00</totfact>
</mgrwt>
</event>
<event>
12    4  0.4207946E-008  0.1819949E+04  0.7818608E-02  0.8695762E-01
          1   -1    0    0  501    0  0.00000000000E+00  0.00000000000E+00  0.80520025332E+03  0.80520025332E+03  0.00000000000E+00 0. -1.
         -2   -1    0    0    0  501 -0.00000000000E+00 -0.00000000000E+00 -0.10283826018E+04  0.10283826018E+04  0.00000000000E+00 0.  1.
        -24    2    1    2    0    0 -0.26552830869E+03 -0.54260374206E+03  0.23737855551E+03  0.65409338982E+03  0.81027651952E+02 0.  0.
        254    2    1    2    0    0  0.26552830869E+03  0.54260374206E+03 -0.46056090398E+03  0.11794894653E+04  0.90230535232E+03 0.  0.
         23    2    4    4    0    0  0.11983360995E+03 -0.72962170109E+02  0.20060922623E+03  0.26014961195E+03  0.88035144172E+02 0.  0.
         23    2    4    4    0    0  0.14569469875E+03  0.61556591217E+03 -0.66117013020E+03  0.91933985333E+03  0.88834044029E+02 0.  0.
          3    1    3    3  502    0 -0.26498912986E+03 -0.53651490962E+03  0.22321056526E+03  0.63866301257E+03  0.00000000000E+00 0. -1.
         -4    1    3    3    0  502 -0.53917883575E+00 -0.60888324388E+01  0.14167990252E+02  0.15430377249E+02  0.00000000000E+00 0.  1.
         11    1    5    5    0    0  0.10999746069E+03 -0.27659945352E+02  0.10814807431E+03  0.15671796295E+03  0.00000000000E+00 0.  1.
        -11    1    5    5    0    0  0.98361492587E+01 -0.45302224756E+02  0.92461151922E+02  0.10343164900E+03  0.00000000000E+00 0. -1.
          2    1    6    6  503    0  0.99381714199E+02  0.23148856669E+03 -0.26023232734E+03  0.36219407203E+03  0.00000000000E+00 0. -1.
         -2    1    6    6    0  503  0.46312984550E+02  0.38407734548E+03 -0.40093780287E+03  0.55714578129E+03  0.00000000000E+00 0.  1.
<mgrwt>
<rscale>  0 0.18199494E+04</rscale>
<asrwt>0</asrwt>
<pdfrwt beam="1">  1        1 0.12387696E+00 0.18199494E+04</pdfrwt>
<pdfrwt beam="2">  1       -2 0.15821271E+00 0.18199494E+04</pdfrwt>
<totfact> 0.46875031E+00</totfact>
</mgrwt>
</event>
<event>
12    4  0.4207946E-008  0.1369111E+04  0.7818608E-02  0.8976486E-01
         -2   -1    0    0    0  501 -0.00000000000E+00  0.00000000000E+00  0.14684766505E+03  0.14684766505E+03  0.00000000000E+00 0.  1.
          1   -1    0    0  501    0  0.00000000000E+00 -0.00000000000E+00 -0.31911748271E+04  0.31911748271E+04  0.00000000000E+00 0. -1.
        -24    2    1    2    0    0  0.22991569955E+03  0.29175963572E+03 -0.10668480634E+04  0.11334246875E+04  0.92205303482E+02 0.  0.
        254    2    1    2    0    0 -0.22991569955E+03 -0.29175963572E+03 -0.19774790987E+04  0.22045978046E+04  0.90102329636E+03 0.  0.
         23    2    4    4    0    0 -0.50789521421E+03  0.25517909831E+00 -0.14200382516E+04  0.15108287359E+04  0.90206537920E+02 0.  0.
         23    2    4    4    0    0  0.27797951466E+03 -0.29201481482E+03 -0.55744084706E+03  0.69376906872E+03  0.89610044658E+02 0.  0.
          3    1    3    3  502    0  0.17832723736E+03  0.25058683305E+03 -0.95766595733E+03  0.10058421597E+04  0.00000000000E+00 0. -1.
         -2    1    3    3    0  502  0.51588462193E+02  0.41172802673E+02 -0.10918210604E+03  0.12758252777E+03  0.00000000000E+00 0.  1.
         11    1    5    5    0    0 -0.32001765472E+03 -0.19084021869E+02 -0.77449004645E+03  0.83821854624E+03  0.00000000000E+00 0.  1.
        -11    1    5    5    0    0 -0.18787755949E+03  0.19339200967E+02 -0.64554820515E+03  0.67261018965E+03  0.00000000000E+00 0. -1.
          4    1    6    6  503    0  0.24922222302E+03 -0.27859018242E+03 -0.46856917702E+03  0.59940076730E+03  0.00000000000E+00 0.  1.
         -4    1    6    6    0  503  0.28757291635E+02 -0.13424632396E+02 -0.88871670042E+02  0.94368301422E+02  0.00000000000E+00 0. -1.
<mgrwt>
<rscale>  0 0.13691115E+04</rscale>
<asrwt>0</asrwt>
<pdfrwt beam="1">  1        1 0.49094999E+00 0.13691115E+04</pdfrwt>
<pdfrwt beam="2">  1       -2 0.22591948E-01 0.13691115E+04</pdfrwt>
<totfact> 0.64483255E+00</totfact>
</mgrwt>
</event>
<event>
12    4  0.4207946E-008  0.1406518E+04  0.7818608E-02  0.8949114E-01
         -2   -1    0    0    0  501 -0.00000000000E+00  0.00000000000E+00  0.39431268925E+03  0.39431268925E+03  0.00000000000E+00 0.  1.
          1   -1    0    0  501    0  0.00000000000E+00 -0.00000000000E+00 -0.12542669961E+04  0.12542669961E+04  0.00000000000E+00 0. -1.
        -24    2    1    2    0    0  0.23446030694E+03 -0.30649548565E+03 -0.10351980499E+03  0.40762813832E+03  0.80828403866E+02 0.  0.
        254    2    1    2    0    0 -0.23446030694E+03  0.30649548565E+03 -0.75643450184E+03  0.12409515470E+04  0.90490688373E+03 0.  0.
         23    2    4    4    0    0 -0.96162257490E+02 -0.12903731073E+03  0.13899596357E+03  0.23152447063E+03  0.91574534050E+02 0.  0.
         23    2    4    4    0    0 -0.13829804945E+03  0.43553279639E+03 -0.89543046541E+03  0.10094270764E+04  0.91280539827E+02 0.  0.
          3    1    3    3  502    0  0.41487827990E+02 -0.14051468244E+02 -0.14223147043E+02  0.46054115375E+02  0.00000000000E+00 0. -1.
         -4    1    3    3    0  502  0.19297247895E+03 -0.29244401741E+03 -0.89296657951E+02  0.36157402295E+03  0.00000000000E+00 0.  1.
         11    1    5    5    0    0 -0.94599628857E+02 -0.58060612458E+02  0.63434614996E+02  0.12784394737E+03  0.00000000000E+00 0.  1.
        -11    1    5    5    0    0 -0.15626286334E+01 -0.70976698277E+02  0.75561348572E+02  0.10368052327E+03  0.00000000000E+00 0. -1.
          1    1    6    6  503    0  0.57271280251E+01  0.31757563485E+02 -0.32082591449E+02  0.45504236154E+02  0.00000000000E+00 0. -1.
         -1    1    6    6    0  503 -0.14402517747E+03  0.40377523290E+03 -0.86334787396E+03  0.96392284023E+03  0.00000000000E+00 0.  1.
<mgrwt>
<rscale>  0 0.14065182E+04</rscale>
<asrwt>0</asrwt>
<pdfrwt beam="1">  1        1 0.19296416E+00 0.14065182E+04</pdfrwt>
<pdfrwt beam="2">  1       -2 0.60663490E-01 0.14065182E+04</pdfrwt>
<totfact> 0.21103766E+01</totfact>
</mgrwt>
</event>
<event>
12    4  0.4207946E-008  0.1586177E+04  0.7818608E-02  0.8829085E-01
         -2   -1    0    0    0  501 -0.00000000000E+00  0.00000000000E+00  0.62743357921E+03  0.62743357921E+03  0.00000000000E+00 0.  1.
          1   -1    0    0  501    0  0.00000000000E+00 -0.00000000000E+00 -0.10024792785E+04  0.10024792785E+04  0.00000000000E+00 0. -1.
        -24    2    1    2    0    0  0.18983923604E+03  0.50340250548E+03 -0.17248786223E+03  0.57036231004E+03  0.78154232338E+02 0.  0.
        254    2    1    2    0    0 -0.18983923604E+03 -0.50340250548E+03 -0.20255783702E+03  0.10595505476E+04  0.89003632935E+03 0.  0.
         23    2    4    4    0    0 -0.42966510258E+03 -0.40861159035E+01  0.51358776798E+02  0.44278655013E+03  0.93773174735E+02 0.  0.
         23    2    4    4    0    0  0.23982586654E+03 -0.49931638958E+03 -0.25391661381E+03  0.61676399749E+03  0.95346099367E+02 0.  0.
          3    1    3    3  502    0  0.19218613282E+03  0.44053376076E+03 -0.14878339301E+03  0.50313219143E+03  0.00000000000E+00 0. -1.
         -2    1    3    3    0  502 -0.23468967802E+01  0.62868744720E+02 -0.23704469217E+02  0.67230118607E+02  0.00000000000E+00 0.  1.
         11    1    5    5    0    0 -0.41038271655E+03  0.15100701639E+02  0.37810568645E+02  0.41239743493E+03  0.00000000000E+00 0. -1.
        -11    1    5    5    0    0 -0.19282386029E+02 -0.19186817542E+02  0.13548208153E+02  0.30389115198E+02  0.00000000000E+00 0.  1.
          1    1    6    6  503    0  0.24050254353E+03 -0.42985350443E+03 -0.21994867593E+03  0.53943760414E+03  0.00000000000E+00 0. -1.
         -1    1    6    6    0  503 -0.67667698467E+00 -0.69462885148E+02 -0.33967937882E+02  0.77326393352E+02  0.00000000000E+00 0.  1.
<mgrwt>
<rscale>  0 0.15861767E+04</rscale>
<asrwt>0</asrwt>
<pdfrwt beam="1">  1        1 0.15422758E+00 0.15861767E+04</pdfrwt>
<pdfrwt beam="2">  1       -2 0.96528243E-01 0.15861767E+04</pdfrwt>
<totfact> 0.11389237E+01</totfact>
</mgrwt>
</event>
<event>
12    4  0.4207946E-008  0.1683341E+04  0.7818608E-02  0.8770923E-01
         -2   -1    0    0    0  501 -0.00000000000E+00  0.00000000000E+00  0.48348417470E+03  0.48348417470E+03  0.00000000000E+00 0.  1.
          1   -1    0    0  501    0  0.00000000000E+00 -0.00000000000E+00 -0.14652164038E+04  0.14652164038E+04  0.00000000000E+00 0. -1.
        -24    2    1    2    0    0  0.38716072879E+03  0.19909396717E+03  0.10684582529E+03  0.45517934927E+03  0.78996024848E+02 0.  0.
        254    2    1    2    0    0 -0.38716072879E+03 -0.19909396717E+03 -0.10885780544E+04  0.14935212292E+04  0.92524139765E+03 0.  0.
         23    2    4    4    0    0  0.43737775983E+02  0.24443550606E+03 -0.32663635977E+02  0.26614829087E+03  0.90034937369E+02 0.  0.
         23    2    4    4    0    0 -0.43089850478E+03 -0.44352947322E+03 -0.10559144184E+04  0.12273729383E+04  0.95379010997E+02 0.  0.
          3    1    3    3  502    0  0.16676946020E+03  0.49409003068E+02  0.64019446904E+02  0.18534236434E+03  0.00000000000E+00 0. -1.
         -4    1    3    3    0  502  0.22039126860E+03  0.14968496410E+03  0.42826378385E+02  0.26983698493E+03  0.00000000000E+00 0.  1.
         11    1    5    5    0    0  0.32738766753E+02  0.61739819903E+02 -0.44318335809E+02  0.82751115395E+02  0.00000000000E+00 0. -1.
        -11    1    5    5    0    0  0.10999009230E+02  0.18269568615E+03  0.11654699832E+02  0.18339717547E+03  0.00000000000E+00 0.  1.
          1    1    6    6  503    0 -0.19014235336E+03 -0.19644943102E+03 -0.37533177814E+03  0.46434947741E+03  0.00000000000E+00 0. -1.
         -1    1    6    6    0  503 -0.24075615142E+03 -0.24708004220E+03 -0.68058264026E+03  0.76302346093E+03  0.00000000000E+00 0.  1.
<mgrwt>
<rscale>  0 0.16833407E+04</rscale>
<asrwt>0</asrwt>
<pdfrwt beam="1">  1        1 0.22541791E+00 0.16833407E+04</pdfrwt>
<pdfrwt beam="2">  1       -2 0.74382182E-01 0.16833407E+04</pdfrwt>
<totfact> 0.94056449E+00</totfact>
</mgrwt>
</event>
<event>
12    4  0.4207946E-008  0.1901600E+04  0.7818608E-02  0.8654060E-01
          1   -1    0    0  501    0  0.00000000000E+00  0.00000000000E+00  0.32428289692E+04  0.32428289692E+04  0.00000000000E+00 0. -1.
         -2   -1    0    0    0  501 -0.00000000000E+00 -0.00000000000E+00 -0.27877544157E+03  0.27877544157E+03  0.00000000000E+00 0.  1.
        -24    2    1    2    0    0  0.44547159272E+03  0.78259817988E+02  0.22152052584E+04  0.22624035049E+04  0.82254136584E+02 0.  0.
        254    2    1    2    0    0 -0.44547159272E+03 -0.78259817988E+02  0.74884826920E+03  0.12592009059E+04  0.90567303814E+03 0.  0.
         23    2    4    4    0    0 -0.65270815443E+03 -0.18076492946E+03  0.74312850703E+03  0.10099454167E+04  0.95109790000E+02 0.  0.
         23    2    4    4    0    0  0.20723656171E+03  0.10250511147E+03  0.57197621681E+01  0.24925548917E+03  0.92958554294E+02 0.  0.
          3    1    3    3  502    0  0.11768076702E+03 -0.18550661032E+01  0.72330483686E+03  0.73281791136E+03  0.00000000000E+00 0. -1.
         -4    1    3    3    0  502  0.32779082570E+03  0.80114884091E+02  0.14919004215E+04  0.15295855935E+04  0.00000000000E+00 0.  1.
         11    1    5    5    0    0 -0.26273594816E+03 -0.25009913507E+02  0.29398342020E+03  0.39507205112E+03  0.00000000000E+00 0. -1.
        -11    1    5    5    0    0 -0.38997220627E+03 -0.15575501595E+03  0.44914508683E+03  0.61487336557E+03  0.00000000000E+00 0.  1.
          3    1    6    6  503    0  0.17093368913E+03  0.65117877959E+02  0.39524986165E+02  0.18713868825E+03  0.00000000000E+00 0. -1.
         -3    1    6    6    0  503  0.36302872585E+02  0.37387233512E+02 -0.33805223997E+02  0.62116800925E+02  0.00000000000E+00 0.  1.
<mgrwt>
<rscale>  0 0.19016005E+04</rscale>
<asrwt>0</asrwt>
<pdfrwt beam="1">  1        1 0.49889674E+00 0.19016005E+04</pdfrwt>
<pdfrwt beam="2">  1       -2 0.42888532E-01 0.19016005E+04</pdfrwt>
<totfact> 0.16778441E+00</totfact>
</mgrwt>
</event>
<event>
12    4  0.4207946E-008  0.1689398E+04  0.7818608E-02  0.8767434E-01
         -4   -1    0    0    0  501 -0.00000000000E+00  0.00000000000E+00  0.62242641712E+03  0.62242641712E+03  0.00000000000E+00 0.  1.
          3   -1    0    0  501    0  0.00000000000E+00 -0.00000000000E+00 -0.11463468180E+04  0.11463468180E+04  0.00000000000E+00 0. -1.
        -24    2    1    2    0    0  0.39235968219E+03 -0.36820885470E+03 -0.46870262765E+03  0.71816976864E+03  0.81004830405E+02 0.  0.
        254    2    1    2    0    0 -0.39235968219E+03  0.36820885470E+03 -0.55217773192E+02  0.10506034664E+04  0.90066351116E+03 0.  0.
         23    2    4    4    0    0 -0.25490938994E+02  0.28000216379E+03  0.37058955839E+03  0.47435682605E+03  0.92880449730E+02 0.  0.
         23    2    4    4    0    0 -0.36686874319E+03  0.88206690909E+02 -0.42580733158E+03  0.57624664039E+03  0.91516183711E+02 0.  0.
          3    1    3    3  502    0  0.25859922160E+03 -0.28858231151E+03 -0.31458643105E+03  0.49911715111E+03  0.00000000000E+00 0. -1.
         -4    1    3    3    0  502  0.13376046059E+03 -0.79626543185E+02 -0.15411619660E+03  0.21905261754E+03  0.00000000000E+00 0.  1.
         11    1    5    5    0    0 -0.22030804264E+02  0.21569128105E+03  0.33953965926E+03  0.40285886520E+03  0.00000000000E+00 0. -1.
        -11    1    5    5    0    0 -0.34601347305E+01  0.64310882739E+02  0.31049899127E+02  0.71497960858E+02  0.00000000000E+00 0.  1.
          1    1    6    6  503    0 -0.24872028221E+03  0.97465571193E+02 -0.26299919730E+03  0.37487317072E+03  0.00000000000E+00 0. -1.
         -1    1    6    6    0  503 -0.11814846099E+03 -0.92588802832E+01 -0.16280813428E+03  0.20137346966E+03  0.00000000000E+00 0.  1.
<mgrwt>
<rscale>  0 0.16893982E+04</rscale>
<asrwt>0</asrwt>
<pdfrwt beam="1">  1        3 0.17636105E+00 0.16893982E+04</pdfrwt>
<pdfrwt beam="2">  1       -4 0.95757911E-01 0.16893982E+04</pdfrwt>
<totfact> 0.41951288E-01</totfact>
</mgrwt>
</event>
<event>
12    4  0.4207946E-008  0.1107236E+04  0.7818608E-02  0.9198168E-01
         -2   -1    0    0    0  501 -0.00000000000E+00  0.00000000000E+00  0.10947578116E+04  0.10947578116E+04  0.00000000000E+00 0.  1.
          1   -1    0    0  501    0  0.00000000000E+00 -0.00000000000E+00 -0.27996406121E+03  0.27996406121E+03  0.00000000000E+00 0. -1.
        -24    2    1    2    0    0  0.18414706268E+02  0.80014457602E+01 -0.66145645686E+02  0.10357054559E+03  0.77126434701E+02 0.  0.
        254    2    1    2    0    0 -0.18414706268E+02 -0.80014457602E+01  0.88093939605E+03  0.12711513272E+04  0.91617048227E+03 0.  0.
         23    2    4    4    0    0 -0.17671579678E+03 -0.69472040729E+02  0.10143681310E+04  0.10359510150E+04  0.90537080263E+02 0.  0.
         23    2    4    4    0    0  0.15830109051E+03  0.61470594969E+02 -0.13342873495E+03  0.23520031225E+03  0.93156268004E+02 0.  0.
          3    1    3    3  502    0  0.24427449625E+02  0.78313687687E+01 -0.82367405251E+02  0.86269462034E+02  0.00000000000E+00 0. -1.
         -4    1    3    3    0  502 -0.60127433573E+01  0.17007699151E+00  0.16221759565E+02  0.17301083557E+02  0.00000000000E+00 0.  1.
         11    1    5    5    0    0 -0.81012962563E+02 -0.80116559597E+02  0.56788368061E+03  0.57920086148E+03  0.00000000000E+00 0. -1.
        -11    1    5    5    0    0 -0.95702834213E+02  0.10644518868E+02  0.44648445039E+03  0.45675015348E+03  0.00000000000E+00 0.  1.
          1    1    6    6  503    0  0.68607982916E+02  0.76441734321E+02 -0.68348054161E+02  0.12337686401E+03  0.00000000000E+00 0. -1.
         -1    1    6    6    0  503  0.89693107593E+02 -0.14971139352E+02 -0.65080680792E+02  0.11182344824E+03  0.00000000000E+00 0.  1.
<mgrwt>
<rscale>  0 0.11072359E+04</rscale>
<asrwt>0</asrwt>
<pdfrwt beam="1">  1        1 0.43071395E-01 0.11072359E+04</pdfrwt>
<pdfrwt beam="2">  1       -2 0.16842428E+00 0.11072359E+04</pdfrwt>
<totfact> 0.18216761E+01</totfact>
</mgrwt>
</event>
<event>
12    4  0.4207946E-008  0.2487771E+04  0.7818608E-02  0.8407355E-01
          1   -1    0    0  501    0  0.00000000000E+00  0.00000000000E+00  0.17656559532E+04  0.17656559532E+04  0.00000000000E+00 0. -1.
         -2   -1    0    0    0  501 -0.00000000000E+00 -0.00000000000E+00 -0.87630390265E+03  0.87630390265E+03  0.00000000000E+00 0.  1.
        -24    2    1    2    0    0 -0.25698526543E+02  0.25798993600E+03  0.14987181539E+04  0.15232198001E+04  0.82602864396E+02 0.  0.
        254    2    1    2    0    0  0.25698526543E+02 -0.25798993600E+03 -0.60936610330E+03  0.11187400558E+04  0.90168344960E+03 0.  0.
         23    2    4    4    0    0  0.39032160374E+03 -0.21816031310E+03 -0.58241133549E+03  0.74009237762E+03  0.92676249105E+02 0.  0.
         23    2    4    4    0    0 -0.36462307720E+03 -0.39829622910E+02 -0.26954767807E+02  0.37864767819E+03  0.90061742173E+02 0.  0.
          3    1    3    3  502    0 -0.28217950123E+02  0.26375879038E+03  0.14462610429E+04  0.14703863289E+04  0.00000000000E+00 0. -1.
         -4    1    3    3    0  502  0.25194235799E+01 -0.57688543744E+01  0.52457111020E+02  0.52833471138E+02  0.00000000000E+00 0.  1.
         11    1    5    5    0    0  0.36881354524E+03 -0.20884209032E+03 -0.50541935944E+03  0.65961138463E+03  0.00000000000E+00 0.  1.
        -11    1    5    5    0    0  0.21508058504E+02 -0.93182227728E+01 -0.76991976048E+02  0.80480992986E+02  0.00000000000E+00 0. -1.
          2    1    6    6  503    0 -0.21402877958E+03  0.52163094033E+01  0.18855909245E+02  0.21492108712E+03  0.00000000000E+00 0. -1.
         -2    1    6    6    0  503 -0.15059429761E+03 -0.45045932313E+02 -0.45810677053E+02  0.16372659107E+03  0.00000000000E+00 0.  1.
<mgrwt>
<rscale>  0 0.24877711E+04</rscale>
<asrwt>0</asrwt>
<pdfrwt beam="1">  1        1 0.27163938E+00 0.24877711E+04</pdfrwt>
<pdfrwt beam="2">  1       -2 0.13481599E+00 0.24877711E+04</pdfrwt>
<totfact> 0.13297892E+00</totfact>
</mgrwt>
</event>
<event>
12    4  0.4207946E-008  0.1191852E+04  0.7818608E-02  0.9120019E-01
         -2   -1    0    0    0  501 -0.00000000000E+00  0.00000000000E+00  0.34652052325E+03  0.34652052325E+03  0.00000000000E+00 0.  1.
          1   -1    0    0  501    0  0.00000000000E+00 -0.00000000000E+00 -0.10248386657E+04  0.10248386657E+04  0.00000000000E+00 0. -1.
        -24    2    1    2    0    0 -0.13501886927E+03  0.94355638831E+02 -0.35906760403E+03  0.40238577924E+03  0.76496336039E+02 0.  0.
        254    2    1    2    0    0  0.13501886927E+03 -0.94355638831E+02 -0.31925053843E+03  0.96897340973E+03  0.89991970800E+03 0.  0.
         23    2    4    4    0    0 -0.45951161033E+02 -0.43727492044E+03  0.15752187969E+02  0.44898236406E+03  0.89533047341E+02 0.  0.
         23    2    4    4    0    0  0.18097003031E+03  0.34291928161E+03 -0.33500272640E+03  0.51999104567E+03  0.88431189753E+02 0.  0.
          1    1    3    3  502    0  0.65818568651E+01 -0.46136019686E+01 -0.93925103391E+01  0.12362257617E+02  0.00000000000E+00 0. -1.
         -2    1    3    3    0  502 -0.14160072614E+03  0.98969240800E+02 -0.34967509369E+03  0.39002352162E+03  0.00000000000E+00 0.  1.
         11    1    5    5    0    0  0.20676452739E+02 -0.48539790775E+02 -0.10155993229E+02  0.53728681212E+02  0.00000000000E+00 0. -1.
        -11    1    5    5    0    0 -0.66627613772E+02 -0.38873512966E+03  0.25908181198E+02  0.39525368285E+03  0.00000000000E+00 0.  1.
          3    1    6    6  503    0  0.69713174141E+01  0.43681229593E+01 -0.33234292867E+02  0.34237377047E+02  0.00000000000E+00 0. -1.
         -3    1    6    6    0  503  0.17399871289E+03  0.33855115865E+03 -0.30176843353E+03  0.48575366863E+03  0.00000000000E+00 0.  1.
<mgrwt>
<rscale>  0 0.11918517E+04</rscale>
<asrwt>0</asrwt>
<pdfrwt beam="1">  1        1 0.15766749E+00 0.11918517E+04</pdfrwt>
<pdfrwt beam="2">  1       -2 0.53310849E-01 0.11918517E+04</pdfrwt>
<totfact> 0.41672964E+01</totfact>
</mgrwt>
</event>
<event>
12    4  0.4207946E-008  0.1373326E+04  0.7818608E-02  0.8973356E-01
          1   -1    0    0  501    0  0.00000000000E+00  0.00000000000E+00  0.19745434815E+04  0.19745434815E+04  0.00000000000E+00 0. -1.
         -2   -1    0    0    0  501 -0.00000000000E+00 -0.00000000000E+00 -0.23879250321E+03  0.23879250321E+03  0.00000000000E+00 0.  1.
        -24    2    1    2    0    0  0.22428387888E+03 -0.12670229793E+03  0.96188900227E+03  0.99912877792E+03  0.81676995321E+02 0.  0.
        254    2    1    2    0    0 -0.22428387888E+03  0.12670229793E+03  0.77386197604E+03  0.12142072068E+04  0.89948877284E+03 0.  0.
         23    2    4    4    0    0 -0.33378176259E+03 -0.21895256312E+03  0.67940078276E+02  0.41525460038E+03  0.92032814614E+02 0.  0.
         23    2    4    4    0    0  0.10949788371E+03  0.34565486105E+03  0.70592189776E+03  0.79895260642E+03  0.92371381193E+02 0.  0.
          1    1    3    3  502    0  0.19693825704E+03 -0.13380085814E+03  0.79577429699E+03  0.83062872481E+03  0.00000000000E+00 0. -1.
         -2    1    3    3    0  502  0.27345621835E+02  0.70985602044E+01  0.16611470528E+03  0.16850005311E+03  0.00000000000E+00 0.  1.
         11    1    5    5    0    0 -0.22126792922E+03 -0.19144924540E+03  0.34041303900E+02  0.29456938136E+03  0.00000000000E+00 0.  1.
        -11    1    5    5    0    0 -0.11251383337E+03 -0.27503317723E+02  0.33898774377E+02  0.12068521902E+03  0.00000000000E+00 0. -1.
          3    1    6    6  503    0 -0.13660606542E+02  0.20918191673E+02  0.30144196645E+02  0.39151698627E+02  0.00000000000E+00 0. -1.
         -3    1    6    6    0  503  0.12315849025E+03  0.32473666938E+03  0.67577770112E+03  0.75980090780E+03  0.00000000000E+00 0.  1.
<mgrwt>
<rscale>  0 0.13733262E+04</rscale>
<asrwt>0</asrwt>
<pdfrwt beam="1">  1        1 0.30377591E+00 0.13733262E+04</pdfrwt>
<pdfrwt beam="2">  1       -2 0.36737310E-01 0.13733262E+04</pdfrwt>
<totfact> 0.18580137E+01</totfact>
</mgrwt>
</event>
<event>
12    4  0.4207946E-008  0.2184756E+04  0.7818608E-02  0.8524800E-01
          1   -1    0    0  501    0  0.00000000000E+00  0.00000000000E+00  0.12099457475E+04  0.12099457475E+04  0.00000000000E+00 0. -1.
         -2   -1    0    0    0  501 -0.00000000000E+00 -0.00000000000E+00 -0.98623362469E+03  0.98623362469E+03  0.00000000000E+00 0.  1.
        -24    2    1    2    0    0 -0.34139609497E+03  0.27454905735E+03  0.89113906963E+03  0.99618433175E+03  0.79535544687E+02 0.  0.
        254    2    1    2    0    0  0.34139609497E+03 -0.27454905735E+03 -0.66742694685E+03  0.11999950404E+04  0.89587995238E+03 0.  0.
         23    2    4    4    0    0  0.38042756422E+03  0.33392608397E+02 -0.76523116646E+03  0.86145182132E+03  0.10334555834E+03 0.  0.
         23    2    4    4    0    0 -0.39031469242E+02 -0.30794166574E+03  0.97804219611E+02  0.33854321908E+03  0.93243341440E+02 0.  0.
          3    1    3    3  502    0 -0.23662662725E+03  0.18398538875E+03  0.68658249297E+03  0.74915839691E+03  0.00000000000E+00 0. -1.
         -4    1    3    3    0  502 -0.10476946772E+03  0.90563668596E+02  0.20455657665E+03  0.24702593485E+03  0.00000000000E+00 0.  1.
         11    1    5    5    0    0  0.91851413631E+02  0.53574111823E+02 -0.20271821304E+03  0.22891382995E+03  0.00000000000E+00 0. -1.
        -11    1    5    5    0    0  0.28857615059E+03 -0.20181503425E+02 -0.56251295341E+03  0.63253799137E+03  0.00000000000E+00 0.  1.
          2    1    6    6  503    0 -0.30168506499E+02 -0.30280507700E+03  0.10912194395E+03  0.32327797959E+03  0.00000000000E+00 0. -1.
         -2    1    6    6    0  503 -0.88629627430E+01 -0.51365887471E+01 -0.11317724338E+02  0.15265239491E+02  0.00000000000E+00 0.  1.
<mgrwt>
<rscale>  0 0.21847555E+04</rscale>
<asrwt>0</asrwt>
<pdfrwt beam="1">  1        1 0.18614550E+00 0.21847555E+04</pdfrwt>
<pdfrwt beam="2">  1       -2 0.15172825E+00 0.21847555E+04</pdfrwt>
<totfact> 0.24460116E+00</totfact>
</mgrwt>
</event>
<event>
12    4  0.4207946E-008  0.3138842E+04  0.7818608E-02  0.8205158E-01
          1   -1    0    0  501    0  0.00000000000E+00  0.00000000000E+00  0.25031683230E+04  0.25031683230E+04  0.00000000000E+00 0. -1.
         -2   -1    0    0    0  501 -0.00000000000E+00 -0.00000000000E+00 -0.98398584201E+03  0.98398584201E+03  0.00000000000E+00 0.  1.
        -24    2    1    2    0    0 -0.80816239324E+03  0.90362383065E+03 -0.16232144685E+03  0.12257004623E+04  0.79566889703E+02 0.  0.
        254    2    1    2    0    0  0.80816239324E+03 -0.90362383065E+03  0.16815039279E+04  0.22614537028E+04  0.90391089668E+03 0.  0.
         23    2    4    4    0    0  0.96064115789E+03 -0.53650989166E+03  0.12505742205E+04  0.16681368613E+04  0.89835455452E+02 0.  0.
         23    2    4    4    0    0 -0.15247876465E+03 -0.36711393899E+03  0.43092970741E+03  0.59331684147E+03  0.91115551754E+02 0.  0.
          3    1    3    3  502    0 -0.16956671471E+02  0.26927204755E+02 -0.16361284168E+02  0.35781205722E+02  0.00000000000E+00 0. -1.
         -4    1    3    3    0  502 -0.79120572177E+03  0.87669662589E+03 -0.14596016268E+03  0.11899192565E+04  0.00000000000E+00 0.  1.
         11    1    5    5    0    0  0.56798437738E+03 -0.26636530307E+03  0.70616389623E+03  0.94457618854E+03  0.00000000000E+00 0.  1.
        -11    1    5    5    0    0  0.39265678051E+03 -0.27014458859E+03  0.54441032423E+03  0.72356067275E+03  0.00000000000E+00 0. -1.
          3    1    6    6  503    0 -0.11239963698E+03 -0.18037717381E+03  0.18377996109E+03  0.28097095459E+03  0.00000000000E+00 0. -1.
         -3    1    6    6    0  503 -0.40079127672E+02 -0.18673676518E+03  0.24714974632E+03  0.31234588688E+03  0.00000000000E+00 0.  1.
<mgrwt>
<rscale>  0 0.31388419E+04</rscale>
<asrwt>0</asrwt>
<pdfrwt beam="1">  1        1 0.38510282E+00 0.31388419E+04</pdfrwt>
<pdfrwt beam="2">  1       -2 0.15138244E+00 0.31388419E+04</pdfrwt>
<totfact> 0.29156126E-01</totfact>
</mgrwt>
</event>
<event>
12    4  0.4207946E-008  0.1459321E+04  0.7818608E-02  0.8911964E-01
         -2   -1    0    0    0  501 -0.00000000000E+00  0.00000000000E+00  0.62757371999E+03  0.62757371999E+03  0.00000000000E+00 0.  1.
          1   -1    0    0  501    0  0.00000000000E+00 -0.00000000000E+00 -0.84835380456E+03  0.84835380456E+03  0.00000000000E+00 0. -1.
        -24    2    1    2    0    0  0.48649818703E+02  0.24445867488E+02 -0.51731324904E+03  0.52631141821E+03  0.80164243961E+02 0.  0.
        254    2    1    2    0    0 -0.48649818703E+02 -0.24445867488E+02  0.29653316447E+03  0.94961610634E+03  0.90048566146E+03 0.  0.
         23    2    4    4    0    0  0.12920676585E+03  0.24246097104E+03 -0.19934218238E+03  0.35093247027E+03  0.89076271784E+02 0.  0.
         23    2    4    4    0    0 -0.17785658456E+03 -0.26690683853E+03  0.49587534685E+03  0.59868363608E+03  0.98272637959E+02 0.  0.
          1    1    3    3  502    0  0.62574803331E+02  0.41173977541E+02 -0.38486158906E+03  0.39208333958E+03  0.00000000000E+00 0. -1.
         -2    1    3    3    0  502 -0.13924984628E+02 -0.16728110053E+02 -0.13245165997E+03  0.13422807863E+03  0.00000000000E+00 0.  1.
         11    1    5    5    0    0  0.11214534096E+02  0.28018927749E+02  0.67914531191E+01  0.30934607200E+02  0.00000000000E+00 0. -1.
        -11    1    5    5    0    0  0.11799223176E+03  0.21444204329E+03 -0.20613363550E+03  0.31999786307E+03  0.00000000000E+00 0.  1.
          1    1    6    6  503    0 -0.79738209475E+02 -0.14322791930E+03  0.33675153299E+03  0.37453172615E+03  0.00000000000E+00 0.  1.
         -1    1    6    6    0  503 -0.98118375082E+02 -0.12367891922E+03  0.15912381386E+03  0.22415190993E+03  0.00000000000E+00 0. -1.
<mgrwt>
<rscale>  0 0.14593211E+04</rscale>
<asrwt>0</asrwt>
<pdfrwt beam="1">  1        1 0.13051597E+00 0.14593211E+04</pdfrwt>
<pdfrwt beam="2">  1       -2 0.96549803E-01 0.14593211E+04</pdfrwt>
<totfact> 0.15332245E+01</totfact>
</mgrwt>
</event>
<event>
12    4  0.4207946E-008  0.1719977E+04  0.7818608E-02  0.8750052E-01
         -2   -1    0    0    0  501 -0.00000000000E+00  0.00000000000E+00  0.54149572623E+03  0.54149572623E+03  0.00000000000E+00 0.  1.
          1   -1    0    0  501    0  0.00000000000E+00 -0.00000000000E+00 -0.13658101404E+04  0.13658101404E+04  0.00000000000E+00 0. -1.
        -24    2    1    2    0    0  0.21654103124E+03 -0.44565320082E+02  0.35602509662E+03  0.42671248008E+03  0.80334209865E+02 0.  0.
        254    2    1    2    0    0 -0.21654103124E+03  0.44565320082E+02 -0.11803395108E+04  0.14805933865E+04  0.86607120353E+03 0.  0.
         23    2    4    4    0    0 -0.24049191153E+03 -0.23677869670E+03 -0.10500032206E+03  0.36541730227E+03  0.92758969599E+02 0.  0.
         23    2    4    4    0    0  0.23950880297E+02  0.28134401678E+03 -0.10753391887E+04  0.11151760843E+04  0.86805689151E+02 0.  0.
          1    1    3    3  502    0  0.47850965655E+02 -0.19494736964E+02  0.32646987708E+02  0.61119436269E+02  0.00000000000E+00 0. -1.
         -2    1    3    3    0  502  0.16869006558E+03 -0.25070583117E+02  0.32337810891E+03  0.36559304381E+03  0.00000000000E+00 0.  1.
         11    1    5    5    0    0 -0.54314044438E+02 -0.10757091293E+02 -0.30700089453E+02  0.63310551480E+02  0.00000000000E+00 0. -1.
        -11    1    5    5    0    0 -0.18617786710E+03 -0.22602160541E+03 -0.74300232602E+02  0.30210675079E+03  0.00000000000E+00 0.  1.
          1    1    6    6  503    0 -0.24271509426E+02  0.10858585399E+03 -0.31855826088E+03  0.33743052533E+03  0.00000000000E+00 0. -1.
         -1    1    6    6    0  503  0.48222389722E+02  0.17275816280E+03 -0.75678092786E+03  0.77774555894E+03  0.00000000000E+00 0.  1.
<mgrwt>
<rscale>  0 0.17199772E+04</rscale>
<asrwt>0</asrwt>
<pdfrwt beam="1">  1        1 0.21012464E+00 0.17199772E+04</pdfrwt>
<pdfrwt beam="2">  1       -2 0.83307035E-01 0.17199772E+04</pdfrwt>
<totfact> 0.85382542E+00</totfact>
</mgrwt>
</event>
<event>
12    4  0.4207946E-008  0.1989909E+04  0.7818608E-02  0.8611353E-01
          1   -1    0    0  501    0  0.00000000000E+00  0.00000000000E+00  0.10832236108E+04  0.10832236108E+04  0.00000000000E+00 0. -1.
         -2   -1    0    0    0  501 -0.00000000000E+00 -0.00000000000E+00 -0.91387861723E+03  0.91387861723E+03  0.00000000000E+00 0.  1.
        -24    2    1    2    0    0  0.50276628641E+03 -0.35732170042E+02  0.68200412203E+03  0.85166131791E+03  0.78400581765E+02 0.  0.
        254    2    1    2    0    0 -0.50276628641E+03  0.35732170042E+02 -0.51265912841E+03  0.11454409102E+04  0.89172011865E+03 0.  0.
         23    2    4    4    0    0 -0.61698620935E+03  0.32304605926E+03 -0.35652693330E+03  0.78765023886E+03  0.90833395151E+02 0.  0.
         23    2    4    4    0    0  0.11421992294E+03 -0.28731388922E+03 -0.15613219511E+03  0.35779067131E+03  0.89674078720E+02 0.  0.
          1    1    3    3  502    0  0.37327918840E+03 -0.36286286438E+02  0.44836218002E+03  0.58453630474E+03  0.00000000000E+00 0. -1.
         -2    1    3    3    0  502  0.12948709800E+03  0.55411639582E+00  0.23364194201E+03  0.26712501317E+03  0.00000000000E+00 0.  1.
         11    1    5    5    0    0 -0.29287566791E+03  0.13090334363E+03 -0.11853734167E+03  0.34199845555E+03  0.00000000000E+00 0. -1.
        -11    1    5    5    0    0 -0.32411054143E+03  0.19214271563E+03 -0.23798959164E+03  0.44565178331E+03  0.00000000000E+00 0.  1.
          3    1    6    6  503    0  0.72739110929E+02 -0.15864094984E+03 -0.13567944967E+03  0.22105845898E+03  0.00000000000E+00 0. -1.
         -3    1    6    6    0  503  0.41480812010E+02 -0.12867293937E+03 -0.20452745444E+02  0.13673221233E+03  0.00000000000E+00 0.  1.
<mgrwt>
<rscale>  0 0.19899094E+04</rscale>
<asrwt>0</asrwt>
<pdfrwt beam="1">  1        1 0.16664979E+00 0.19899094E+04</pdfrwt>
<pdfrwt beam="2">  1       -2 0.14059671E+00 0.19899094E+04</pdfrwt>
<totfact> 0.37751528E+00</totfact>
</mgrwt>
</event>
<event>
12    4  0.4207946E-008  0.1430804E+04  0.7818608E-02  0.8931818E-01
         -4   -1    0    0    0  501 -0.00000000000E+00  0.00000000000E+00  0.74426960297E+03  0.74426960297E+03  0.00000000000E+00 0.  1.
          3   -1    0    0  501    0  0.00000000000E+00 -0.00000000000E+00 -0.68765444885E+03  0.68765444885E+03  0.00000000000E+00 0. -1.
        -24    2    1    2    0    0  0.20556494382E+03  0.34499264260E+03 -0.13040387090E+03  0.42991278417E+03  0.80888583080E+02 0.  0.
        254    2    1    2    0    0 -0.20556494382E+03 -0.34499264260E+03  0.18701902502E+03  0.10020112676E+04  0.89876225732E+03 0.  0.
         23    2    4    4    0    0  0.27123862568E+03  0.17101122014E+02 -0.13345406418E+03  0.31688474640E+03  0.93504624594E+02 0.  0.
         23    2    4    4    0    0 -0.47680356950E+03 -0.36209376461E+03  0.32047308919E+03  0.68512652125E+03  0.90784420241E+02 0.  0.
          1    1    3    3  502    0  0.18646621707E+03  0.32386592009E+03 -0.97151070068E+02  0.38613095540E+03  0.00000000000E+00 0. -1.
         -2    1    3    3    0  502  0.19098726753E+02  0.21126722516E+02 -0.33252800831E+02  0.43781828775E+02  0.00000000000E+00 0.  1.
         11    1    5    5    0    0  0.23030060937E+02  0.12725408265E+01  0.14736128793E+02  0.27370724483E+02  0.00000000000E+00 0. -1.
        -11    1    5    5    0    0  0.24820856474E+03  0.15828581188E+02 -0.14819019297E+03  0.28951402191E+03  0.00000000000E+00 0.  1.
          1    1    6    6  503    0 -0.13736825004E+03 -0.55693833601E+02  0.74562133888E+02  0.16592573951E+03  0.00000000000E+00 0. -1.
         -1    1    6    6    0  503 -0.33943531946E+03 -0.30639993101E+03  0.24591095531E+03  0.51920078174E+03  0.00000000000E+00 0.  1.
<mgrwt>
<rscale>  0 0.14308044E+04</rscale>
<asrwt>0</asrwt>
<pdfrwt beam="1">  1        3 0.10579299E+00 0.14308044E+04</pdfrwt>
<pdfrwt beam="2">  1       -4 0.11450301E+00 0.14308044E+04</pdfrwt>
<totfact> 0.10125778E+00</totfact>
</mgrwt>
</event>
<event>
12    4  0.4207946E-008  0.4595950E+04  0.7818608E-02  0.7894051E-01
          1   -1    0    0  501    0  0.00000000000E+00  0.00000000000E+00  0.33125686384E+04  0.33125686384E+04  0.00000000000E+00 0. -1.
         -4   -1    0    0    0  501 -0.00000000000E+00 -0.00000000000E+00 -0.15941373634E+04  0.15941373634E+04  0.00000000000E+00 0.  1.
        -24    2    1    2    0    0 -0.68189332511E+03  0.90525870395E+03 -0.11971918970E+04  0.16507576964E+04  0.85209777636E+02 0.  0.
        254    2    1    2    0    0  0.68189332511E+03 -0.90525870395E+03  0.29156231720E+04  0.32559483053E+04  0.90325470249E+03 0.  0.
         23    2    4    4    0    0  0.47807904146E+03 -0.10320522887E+04  0.26554963678E+04  0.28902380241E+04  0.90129797270E+02 0.  0.
         23    2    4    4    0    0  0.20381428364E+03  0.12679358473E+03  0.26012680426E+03  0.36571028118E+03  0.91984673282E+02 0.  0.
          1    1    3    3  502    0 -0.13002146403E+02  0.37066308112E+02 -0.28245155772E+02  0.48381358318E+02  0.00000000000E+00 0. -1.
         -2    1    3    3    0  502 -0.66889117870E+03  0.86819239584E+03 -0.11689467412E+04  0.16023763381E+04  0.00000000000E+00 0.  1.
         11    1    5    5    0    0  0.41974842488E+03 -0.92481840871E+03  0.24326873287E+04  0.26361800903E+04  0.00000000000E+00 0. -1.
        -11    1    5    5    0    0  0.58330616585E+02 -0.10723387998E+03  0.22280903911E+03  0.25405793385E+03  0.00000000000E+00 0.  1.
          3    1    6    6  503    0  0.20258251373E+03  0.11826395684E+03  0.20998382120E+03  0.31483208782E+03  0.00000000000E+00 0. -1.
         -3    1    6    6    0  503  0.12317699165E+01  0.85296278926E+01  0.50142983066E+02  0.50878193362E+02  0.00000000000E+00 0.  1.
<mgrwt>
<rscale>  0 0.45959501E+04</rscale>
<asrwt>0</asrwt>
<pdfrwt beam="1">  1        1 0.50962595E+00 0.45959501E+04</pdfrwt>
<pdfrwt beam="2">  1       -4 0.24525190E+00 0.45959501E+04</pdfrwt>
<totfact> 0.85797272E-03</totfact>
</mgrwt>
</event>
<event>
12    4  0.4207946E-008  0.2042246E+04  0.7818608E-02  0.8587120E-01
          1   -1    0    0  501    0  0.00000000000E+00  0.00000000000E+00  0.29293474760E+04  0.29293474760E+04  0.00000000000E+00 0. -1.
         -2   -1    0    0    0  501 -0.00000000000E+00 -0.00000000000E+00 -0.35594684749E+03  0.35594684749E+03  0.00000000000E+00 0.  1.
        -24    2    1    2    0    0 -0.27836763219E+03 -0.34490809634E+03  0.21491759080E+04  0.21958152999E+04  0.78724926270E+02 0.  0.
        254    2    1    2    0    0  0.27836763219E+03  0.34490809634E+03  0.42422472050E+03  0.10894790236E+04  0.90030427960E+03 0.  0.
         23    2    4    4    0    0  0.46112201656E+03 -0.98739292002E+02  0.35520549707E+03  0.59622373530E+03  0.83239626660E+02 0.  0.
         23    2    4    4    0    0 -0.18275438437E+03  0.44364738834E+03  0.69019223434E+02  0.49325528832E+03  0.91186380955E+02 0.  0.
          1    1    3    3  502    0 -0.20619891623E+03 -0.30154498274E+03  0.16980297889E+04  0.17368801149E+04  0.00000000000E+00 0. -1.
         -2    1    3    3    0  502 -0.72168715964E+02 -0.43363113592E+02  0.45114611913E+03  0.45893518496E+03  0.00000000000E+00 0.  1.
         11    1    5    5    0    0  0.81001599212E+02 -0.47626111631E+02  0.88377995615E+02  0.12899680497E+03  0.00000000000E+00 0. -1.
        -11    1    5    5    0    0  0.38012041735E+03 -0.51113180371E+02  0.26682750145E+03  0.46722693033E+03  0.00000000000E+00 0.  1.
          3    1    6    6  503    0  0.17513426434E+01  0.67400664399E+02  0.24955874361E+02  0.71893757918E+02  0.00000000000E+00 0. -1.
         -3    1    6    6    0  503 -0.18450572701E+03  0.37624672394E+03  0.44063349073E+02  0.42136153041E+03  0.00000000000E+00 0.  1.
<mgrwt>
<rscale>  0 0.20422458E+04</rscale>
<asrwt>0</asrwt>
<pdfrwt beam="1">  1        1 0.45066883E+00 0.20422458E+04</pdfrwt>
<pdfrwt beam="2">  1       -2 0.54761055E-01 0.20422458E+04</pdfrwt>
<totfact> 0.17165918E+00</totfact>
</mgrwt>
</event>
<event>
12    4  0.4207946E-008  0.2475442E+04  0.7818608E-02  0.8411787E-01
          1   -1    0    0  501    0  0.00000000000E+00  0.00000000000E+00  0.39712017440E+04  0.39712017440E+04  0.00000000000E+00 0. -1.
         -2   -1    0    0    0  501 -0.00000000000E+00 -0.00000000000E+00 -0.38576570227E+03  0.38576570227E+03  0.00000000000E+00 0.  1.
        -24    2    1    2    0    0  0.10357651946E+04 -0.12395493080E+03  0.11443984490E+04  0.15500332286E+04  0.69143593446E+02 0.  0.
        254    2    1    2    0    0 -0.10357651946E+04  0.12395493080E+03  0.24410375927E+04  0.28069342176E+04  0.91216271007E+03 0.  0.
         23    2    4    4    0    0 -0.10168883578E+04  0.15267018297E+03  0.12920673173E+04  0.16538291837E+04  0.91339472479E+02 0.  0.
         23    2    4    4    0    0 -0.18876836852E+02 -0.28715252166E+02  0.11489702754E+04  0.11531050339E+04  0.91310596017E+02 0.  0.
          1    1    3    3  502    0  0.19088153816E+03 -0.32746361652E+02  0.25090711493E+03  0.31695814571E+03  0.00000000000E+00 0. -1.
         -4    1    3    3    0  502  0.84488365647E+03 -0.91208569149E+02  0.89349133405E+03  0.12330750829E+04  0.00000000000E+00 0.  1.
         11    1    5    5    0    0 -0.15575559781E+03  0.55335344058E+02  0.22472517557E+03  0.27896811841E+03  0.00000000000E+00 0. -1.
        -11    1    5    5    0    0 -0.86113275997E+03  0.97334838909E+02  0.10673421418E+04  0.13748610653E+04  0.00000000000E+00 0.  1.
          3    1    6    6  503    0  0.35212295887E+02  0.21101208469E+01  0.40164360544E+03  0.40318971240E+03  0.00000000000E+00 0. -1.
         -3    1    6    6    0  503 -0.54089132739E+02 -0.30825373013E+02  0.74732666993E+03  0.74991532155E+03  0.00000000000E+00 0.  1.
<mgrwt>
<rscale>  0 0.24754421E+04</rscale>
<asrwt>0</asrwt>
<pdfrwt beam="1">  1        1 0.61095409E+00 0.24754421E+04</pdfrwt>
<pdfrwt beam="2">  1       -2 0.59348572E-01 0.24754421E+04</pdfrwt>
<totfact> 0.21157100E-01</totfact>
</mgrwt>
</event>
<event>
12    4  0.4207946E-008  0.1198801E+04  0.7818608E-02  0.9113907E-01
          1   -1    0    0  501    0  0.00000000000E+00  0.00000000000E+00  0.28550826591E+03  0.28550826591E+03  0.00000000000E+00 0. -1.
         -2   -1    0    0    0  501 -0.00000000000E+00 -0.00000000000E+00 -0.12583902482E+04  0.12583902482E+04  0.00000000000E+00 0.  1.
        -24    2    1    2    0    0  0.15038642615E+03 -0.16250704678E+03 -0.37138820413E+03  0.43888565034E+03  0.75278140796E+02 0.  0.
        254    2    1    2    0    0 -0.15038642615E+03  0.16250704678E+03 -0.60149377819E+03  0.11050128638E+04  0.90013001647E+03 0.  0.
         23    2    4    4    0    0  0.14515522602E+03 -0.27549021945E+03 -0.43693228687E+03  0.54413804320E+03  0.90617250556E+02 0.  0.
         23    2    4    4    0    0 -0.29554165217E+03  0.43799726623E+03 -0.16456149132E+03  0.56087482060E+03  0.91178980890E+02 0.  0.
          3    1    3    3  502    0  0.51018920850E+02 -0.62416078069E+02 -0.72621316717E+02  0.10850139505E+03  0.00000000000E+00 0. -1.
         -4    1    3    3    0  502  0.99367505302E+02 -0.10009096871E+03 -0.29876688741E+03  0.33038425529E+03  0.00000000000E+00 0.  1.
         11    1    5    5    0    0  0.27662008164E+02 -0.33355437595E+01 -0.38930325742E+02  0.47873612880E+02  0.00000000000E+00 0. -1.
        -11    1    5    5    0    0  0.11749321786E+03 -0.27215467569E+03 -0.39800196113E+03  0.49626443032E+03  0.00000000000E+00 0.  1.
          3    1    6    6  503    0 -0.30983567195E+02  0.43379036130E+02  0.10908248045E+02  0.54412425852E+02  0.00000000000E+00 0. -1.
         -3    1    6    6    0  503 -0.26455808498E+03  0.39461823010E+03 -0.17546973936E+03  0.50646239474E+03  0.00000000000E+00 0.  1.
<mgrwt>
<rscale>  0 0.11988008E+04</rscale>
<asrwt>0</asrwt>
<pdfrwt beam="1">  1        1 0.43924347E-01 0.11988008E+04</pdfrwt>
<pdfrwt beam="2">  1       -2 0.19359851E+00 0.11988008E+04</pdfrwt>
<totfact> 0.11836405E+01</totfact>
</mgrwt>
</event>
<event>
12    4  0.5015266E-008  0.1672160E+04  0.7818608E-02  0.8777404E-01
          1   -1    0    0  501    0  0.00000000000E+00  0.00000000000E+00  0.22458068712E+04  0.22458068712E+04  0.00000000000E+00 0. -1.
         -2   -1    0    0    0  501 -0.00000000000E+00 -0.00000000000E+00 -0.31125992116E+03  0.31125992116E+03  0.00000000000E+00 0.  1.
        -24    2    1    2    0    0 -0.46696204258E+03 -0.72028166946E+02  0.12344459235E+04  0.13242899260E+04  0.81519715984E+02 0.  0.
        254    2    1    2    0    0  0.46696204258E+03  0.72028166946E+02  0.70010102653E+03  0.12327768663E+04  0.89797313365E+03 0.  0.
         23    2    4    4    0    0  0.13628926774E+03 -0.73390284928E+02  0.82095100842E+03  0.84070811053E+03  0.94173618729E+02 0.  0.
         23    2    4    4    0    0  0.33067277484E+03  0.14541845187E+03 -0.12084998190E+03  0.39206875579E+03  0.92855699775E+02 0.  0.
          1    1    3    3  502    0 -0.46142859663E+03 -0.67755801290E+02  0.12312207918E+04  0.13165909906E+04  0.00000000000E+00 0. -1.
         -2    1    3    3    0  502 -0.55334459506E+01 -0.42723656557E+01  0.32251317346E+01  0.76989354517E+01  0.00000000000E+00 0.  1.
         11    1    5    5    0    0  0.13714637638E+03 -0.85618920018E+02  0.80202551542E+03  0.81815930931E+03  0.00000000000E+00 0.  1.
        -11    1    5    5    0    0 -0.85710864538E+00  0.12228635090E+02  0.18925493002E+02  0.22548801227E+02  0.00000000000E+00 0. -1.
          4    1    6    6  503    0  0.31518610185E+03  0.12415587573E+03 -0.13190895687E+03  0.36353395052E+03  0.00000000000E+00 0.  1.
         -4    1    6    6    0  503  0.15486672988E+02  0.21262576140E+02  0.11058974977E+02  0.28534805272E+02  0.00000000000E+00 0. -1.
<mgrwt>
<rscale>  0 0.16721599E+04</rscale>
<asrwt>0</asrwt>
<pdfrwt beam="1">  1        1 0.34550874E+00 0.16721599E+04</pdfrwt>
<pdfrwt beam="2">  1       -2 0.47886143E-01 0.16721599E+04</pdfrwt>
<totfact> 0.70210994E+00</totfact>
</mgrwt>
</event>
<event>
12    4  0.4207946E-008  0.1921789E+04  0.7818608E-02  0.8644086E-01
          1   -1    0    0  501    0  0.00000000000E+00  0.00000000000E+00  0.61864761508E+03  0.61864761508E+03  0.00000000000E+00 0. -1.
         -2   -1    0    0    0  501 -0.00000000000E+00 -0.00000000000E+00 -0.14924785294E+04  0.14924785294E+04  0.00000000000E+00 0.  1.
        -24    2    1    2    0    0 -0.50324672751E+03 -0.27130335646E+03  0.18884901134E+03  0.60728310621E+03  0.79158335184E+02 0.  0.
        254    2    1    2    0    0  0.50324672751E+03  0.27130335646E+03 -0.10626799257E+04  0.15038430383E+04  0.89743661580E+03 0.  0.
         23    2    4    4    0    0  0.61983923687E+03  0.42678510088E+03 -0.51822595532E+03  0.91828386612E+03  0.91328616030E+02 0.  0.
         23    2    4    4    0    0 -0.11659250936E+03 -0.15548174443E+03 -0.54445397033E+03  0.58555917215E+03  0.93172056904E+02 0.  0.
          3    1    3    3  502    0 -0.48277096510E+03 -0.27053396408E+03  0.19352439523E+03  0.58626625522E+03  0.00000000000E+00 0. -1.
         -4    1    3    3    0  502 -0.20475762409E+02 -0.76939237734E+00 -0.46753838889E+01  0.21016850986E+02  0.00000000000E+00 0.  1.
         11    1    5    5    0    0  0.57515424323E+03  0.41686775744E+03 -0.50158866280E+03  0.86958169101E+03  0.00000000000E+00 0. -1.
        -11    1    5    5    0    0  0.44684993635E+02  0.99173434432E+01 -0.16637292522E+02  0.48702175101E+02  0.00000000000E+00 0.  1.
          1    1    6    6  503    0 -0.12749743727E+03 -0.11569460044E+03 -0.40356808959E+03  0.43875738172E+03  0.00000000000E+00 0. -1.
         -1    1    6    6    0  503  0.10904927911E+02 -0.39787143982E+02 -0.14088588075E+03  0.14680179043E+03  0.00000000000E+00 0.  1.
<mgrwt>
<rscale>  0 0.19217890E+04</rscale>
<asrwt>0</asrwt>
<pdfrwt beam="1">  1        1 0.95176557E-01 0.19217890E+04</pdfrwt>
<pdfrwt beam="2">  1       -2 0.22961208E+00 0.19217890E+04</pdfrwt>
<totfact> 0.23019539E+00</totfact>
</mgrwt>
</event>
<event>
12    4  0.4207946E-008  0.1852714E+04  0.7818608E-02  0.8678758E-01
         -2   -1    0    0    0  501 -0.00000000000E+00  0.00000000000E+00  0.50354991546E+03  0.50354991546E+03  0.00000000000E+00 0.  1.
          1   -1    0    0  501    0  0.00000000000E+00 -0.00000000000E+00 -0.17041749023E+04  0.17041749023E+04  0.00000000000E+00 0. -1.
        -24    2    1    2    0    0  0.38227952909E+03 -0.62679156121E+03 -0.39858394381E+03  0.83887965358E+03  0.76450071087E+02 0.  0.
        254    2    1    2    0    0 -0.38227952909E+03  0.62679156121E+03 -0.80204104302E+03  0.13688451642E+04  0.83154191067E+03 0.  0.
         23    2    4    4    0    0 -0.39876689396E+03 -0.61083763853E+02 -0.26987216888E+03  0.49392226195E+03  0.91552997711E+02 0.  0.
         23    2    4    4    0    0  0.16487364869E+02  0.68787532506E+03 -0.53216887414E+03  0.87492290221E+03  0.94032325209E+02 0.  0.
          1    1    3    3  502    0  0.32606493182E+03 -0.55686253339E+03 -0.32331635062E+03  0.72176705621E+03  0.00000000000E+00 0. -1.
         -2    1    3    3    0  502  0.56214597278E+02 -0.69929027817E+02 -0.75267593194E+02  0.11711259737E+03  0.00000000000E+00 0.  1.
         11    1    5    5    0    0 -0.23211338299E+03 -0.58247555535E+02 -0.11153146864E+03  0.26402399283E+03  0.00000000000E+00 0. -1.
        -11    1    5    5    0    0 -0.16665351097E+03 -0.28362083186E+01 -0.15834070024E+03  0.22989826913E+03  0.00000000000E+00 0.  1.
          4    1    6    6  503    0 -0.34166721503E+02  0.27951493096E+03 -0.18930715297E+03  0.33931277555E+03  0.00000000000E+00 0. -1.
         -4    1    6    6    0  503  0.50654086372E+02  0.40836039410E+03 -0.34286172117E+03  0.53561012666E+03  0.00000000000E+00 0.  1.
<mgrwt>
<rscale>  0 0.18527138E+04</rscale>
<asrwt>0</asrwt>
<pdfrwt beam="1">  1        1 0.26218075E+00 0.18527138E+04</pdfrwt>
<pdfrwt beam="2">  1       -2 0.77469218E-01 0.18527138E+04</pdfrwt>
<totfact> 0.58004995E+00</totfact>
</mgrwt>
</event>
<event>
12    4  0.4207946E-008  0.1386107E+04  0.7818608E-02  0.8963937E-01
         -2   -1    0    0    0  501 -0.00000000000E+00  0.00000000000E+00  0.22384887792E+03  0.22384887792E+03  0.00000000000E+00 0.  1.
          1   -1    0    0  501    0  0.00000000000E+00 -0.00000000000E+00 -0.21457459678E+04  0.21457459678E+04  0.00000000000E+00 0. -1.
        -24    2    1    2    0    0  0.15161330534E+03  0.24399679367E+02 -0.10473897667E+04  0.10615046599E+04  0.78644013779E+02 0.  0.
        254    2    1    2    0    0 -0.15161330534E+03 -0.24399679367E+02 -0.87450732313E+03  0.13080901858E+04  0.96060134143E+03 0.  0.
         23    2    4    4    0    0  0.19434076819E+03  0.31291920861E+03 -0.68166971308E+03  0.78010297420E+03  0.90555437891E+02 0.  0.
         23    2    4    4    0    0 -0.34595407352E+03 -0.33731888798E+03 -0.19283761004E+03  0.52798721155E+03  0.90088281925E+02 0.  0.
          1    1    3    3  502    0  0.10101482883E+03  0.29377281666E+01 -0.86856199808E+03  0.87442127741E+03  0.00000000000E+00 0. -1.
         -2    1    3    3    0  502  0.50598476504E+02  0.21461951200E+02 -0.17882776865E+03  0.18708338252E+03  0.00000000000E+00 0.  1.
         11    1    5    5    0    0  0.36612645009E+01  0.28498791614E+02 -0.11030985929E+03  0.11399057434E+03  0.00000000000E+00 0.  1.
        -11    1    5    5    0    0  0.19067950368E+03  0.28442041700E+03 -0.57135985379E+03  0.66611239987E+03  0.00000000000E+00 0. -1.
          3    1    6    6  503    0 -0.31012081573E+03 -0.26638699549E+03 -0.18299483312E+03  0.44791077311E+03  0.00000000000E+00 0. -1.
         -3    1    6    6    0  503 -0.35833257786E+02 -0.70931892493E+02 -0.98427769214E+01  0.80076438443E+02  0.00000000000E+00 0.  1.
<mgrwt>
<rscale>  0 0.13861065E+04</rscale>
<asrwt>0</asrwt>
<pdfrwt beam="1">  1        1 0.33011476E+00 0.13861065E+04</pdfrwt>
<pdfrwt beam="2">  1       -2 0.34438289E-01 0.13861065E+04</pdfrwt>
<totfact> 0.16088196E+01</totfact>
</mgrwt>
</event>
<event>
12    4  0.4207946E-008  0.1345125E+04  0.7818608E-02  0.8994527E-01
          3   -1    0    0  501    0  0.00000000000E+00  0.00000000000E+00  0.62508155750E+03  0.62508155750E+03  0.00000000000E+00 0. -1.
         -4   -1    0    0    0  501 -0.00000000000E+00 -0.00000000000E+00 -0.72364989265E+03  0.72364989265E+03  0.00000000000E+00 0.  1.
        -24    2    1    2    0    0  0.24196839388E+03 -0.16201365135E+02 -0.30298401481E+03  0.39660573008E+03  0.81765543052E+02 0.  0.
        254    2    1    2    0    0 -0.24196839388E+03  0.16201365135E+02  0.20441567966E+03  0.95212572007E+03  0.89774519150E+03 0.  0.
         23    2    4    4    0    0 -0.46235051105E+03 -0.27729270231E+03  0.16926478131E+03  0.57258956744E+03  0.92460849684E+02 0.  0.
         23    2    4    4    0    0  0.22038211718E+03  0.29349406745E+03  0.35150898355E+02  0.37953615263E+03  0.90028108397E+02 0.  0.
          1    1    3    3  502    0  0.63378210020E+02  0.25708462714E+02 -0.11601118149E+03  0.13467114313E+03  0.00000000000E+00 0. -1.
         -2    1    3    3    0  502  0.17859018386E+03 -0.41909827849E+02 -0.18697283333E+03  0.26193458695E+03  0.00000000000E+00 0.  1.
         11    1    5    5    0    0 -0.11617625541E+03 -0.11865466430E+03  0.45305228677E+02  0.17212906619E+03  0.00000000000E+00 0.  1.
        -11    1    5    5    0    0 -0.34617425564E+03 -0.15863803801E+03  0.12395955263E+03  0.40046050125E+03  0.00000000000E+00 0. -1.
          3    1    6    6  503    0  0.15055571508E+03  0.20705130099E+03  0.65686192701E+02  0.26429517683E+03  0.00000000000E+00 0. -1.
         -3    1    6    6    0  503  0.69826402096E+02  0.86442766457E+02 -0.30535294347E+02  0.11524097580E+03  0.00000000000E+00 0.  1.
<mgrwt>
<rscale>  0 0.13451248E+04</rscale>
<asrwt>0</asrwt>
<pdfrwt beam="1">  1        3 0.96166394E-01 0.13451248E+04</pdfrwt>
<pdfrwt beam="2">  1       -4 0.11133075E+00 0.13451248E+04</pdfrwt>
<totfact> 0.13644076E+00</totfact>
</mgrwt>
</event>
<event>
12    4  0.4207946E-008  0.1740893E+04  0.7818608E-02  0.8738379E-01
         -2   -1    0    0    0  501 -0.00000000000E+00  0.00000000000E+00  0.10192394231E+04  0.10192394231E+04  0.00000000000E+00 0.  1.
          1   -1    0    0  501    0  0.00000000000E+00 -0.00000000000E+00 -0.74337522781E+03  0.74337522781E+03  0.00000000000E+00 0. -1.
        -24    2    1    2    0    0 -0.24661921512E+03 -0.23838424960E+03 -0.43560919325E+03  0.56408968936E+03  0.10389283267E+03 0.  0.
        254    2    1    2    0    0  0.24661921512E+03  0.23838424960E+03  0.71147338850E+03  0.11985249615E+04  0.90145416583E+03 0.  0.
         23    2    4    4    0    0  0.44244746890E+03  0.43658382840E+03  0.63897120886E+03  0.89602370412E+03  0.90603921763E+02 0.  0.
         23    2    4    4    0    0 -0.19582825378E+03 -0.19819957880E+03  0.72502179645E+02  0.30250125739E+03  0.92836774280E+02 0.  0.
          1    1    3    3  502    0 -0.18509215866E+03 -0.23099062649E+03 -0.34954713767E+03  0.45803818419E+03  0.00000000000E+00 0. -1.
         -2    1    3    3    0  502 -0.61527056460E+02 -0.73936231117E+01 -0.86062055577E+02  0.10605150517E+03  0.00000000000E+00 0.  1.
         11    1    5    5    0    0  0.43722331740E+03  0.42556929115E+03  0.60215686352E+03  0.85724345383E+03  0.00000000000E+00 0.  1.
        -11    1    5    5    0    0  0.52241514959E+01  0.11014537245E+02  0.36814345340E+02  0.38780250288E+02  0.00000000000E+00 0. -1.
          4    1    6    6  503    0 -0.48743919099E+02 -0.83995841695E+02  0.63571395517E+02  0.11607150124E+03  0.00000000000E+00 0. -1.
         -4    1    6    6    0  503 -0.14708433468E+03 -0.11420373710E+03  0.89307841287E+01  0.18642975616E+03  0.00000000000E+00 0.  1.
<mgrwt>
<rscale>  0 0.17408933E+04</rscale>
<asrwt>0</asrwt>
<pdfrwt beam="1">  1        1 0.11436542E+00 0.17408933E+04</pdfrwt>
<pdfrwt beam="2">  1       -2 0.15680607E+00 0.17408933E+04</pdfrwt>
<totfact> 0.54853967E+00</totfact>
</mgrwt>
</event>
<event>
12    4  0.4207946E-008  0.1365133E+04  0.7818608E-02  0.8979451E-01
          1   -1    0    0  501    0  0.00000000000E+00  0.00000000000E+00  0.15222011982E+04  0.15222011982E+04  0.00000000000E+00 0. -1.
         -2   -1    0    0    0  501 -0.00000000000E+00 -0.00000000000E+00 -0.30606787942E+03  0.30606787942E+03  0.00000000000E+00 0.  1.
        -24    2    1    2    0    0 -0.11523299563E+03  0.33823493038E+03  0.54108356331E+03  0.65240143130E+03  0.71935343628E+02 0.  0.
        254    2    1    2    0    0  0.11523299563E+03 -0.33823493038E+03  0.67504975548E+03  0.11758676463E+04  0.89403078130E+03 0.  0.
         23    2    4    4    0    0 -0.66082227680E+02  0.94536243403E+02 -0.15748892035E+03  0.21590601016E+03  0.92242523035E+02 0.  0.
         23    2    4    4    0    0  0.18131522331E+03 -0.43277117378E+03  0.83253867583E+03  0.95996163617E+03  0.90772226529E+02 0.  0.
          3    1    3    3  502    0 -0.89301046521E+02  0.31564887992E+03  0.46670892351E+03  0.57046131472E+03  0.00000000000E+00 0. -1.
         -4    1    3    3    0  502 -0.25931949106E+02  0.22586050463E+02  0.74374639799E+02  0.81940116580E+02  0.00000000000E+00 0.  1.
         11    1    5    5    0    0 -0.20478775063E+02  0.18113902155E+02 -0.11328565389E+03  0.11653811847E+03  0.00000000000E+00 0. -1.
        -11    1    5    5    0    0 -0.45603452618E+02  0.76422341248E+02 -0.44203266466E+02  0.99367891689E+02  0.00000000000E+00 0.  1.
          1    1    6    6  503    0  0.52963887673E+02 -0.46564283751E+02  0.13774849608E+03  0.15475158833E+03  0.00000000000E+00 0. -1.
         -1    1    6    6    0  503  0.12835133563E+03 -0.38620689003E+03  0.69479017975E+03  0.80521004785E+03  0.00000000000E+00 0.  1.
<mgrwt>
<rscale>  0 0.13651328E+04</rscale>
<asrwt>0</asrwt>
<pdfrwt beam="1">  1        1 0.23418480E+00 0.13651328E+04</pdfrwt>
<pdfrwt beam="2">  1       -2 0.47087367E-01 0.13651328E+04</pdfrwt>
<totfact> 0.23156039E+01</totfact>
</mgrwt>
</event>
<event>
12    4  0.4207946E-008  0.2435786E+04  0.7818608E-02  0.8426226E-01
         -2   -1    0    0    0  501 -0.00000000000E+00  0.00000000000E+00  0.74884983231E+03  0.74884983231E+03  0.00000000000E+00 0.  1.
          1   -1    0    0  501    0  0.00000000000E+00 -0.00000000000E+00 -0.19807217898E+04  0.19807217898E+04  0.00000000000E+00 0. -1.
        -24    2    1    2    0    0 -0.48906306345E+03 -0.24034704156E+03 -0.15414069079E+04  0.16368065413E+04  0.79063375840E+02 0.  0.
        254    2    1    2    0    0  0.48906306345E+03  0.24034704156E+03  0.30953495039E+03  0.10927650809E+04  0.89519509383E+03 0.  0.
         23    2    4    4    0    0  0.58747315059E+03 -0.12404664121E+03  0.18613115038E+02  0.60745576766E+03  0.90242948489E+02 0.  0.
         23    2    4    4    0    0 -0.98410087144E+02  0.36439368278E+03  0.29092183535E+03  0.48530931320E+03  0.91773165421E+02 0.  0.
          1    1    3    3  502    0 -0.45822386661E+03 -0.23722201813E+03 -0.14004683454E+04  0.14924995760E+04  0.00000000000E+00 0. -1.
         -2    1    3    3    0  502 -0.30839196834E+02 -0.31250234346E+01 -0.14093856246E+03  0.14430696526E+03  0.00000000000E+00 0.  1.
         11    1    5    5    0    0  0.52755196077E+03 -0.94732436816E+02  0.39797310709E+02  0.53746547037E+03  0.00000000000E+00 0.  1.
        -11    1    5    5    0    0  0.59921189820E+02 -0.29314204399E+02 -0.21184195671E+02  0.69990297293E+02  0.00000000000E+00 0. -1.
          4    1    6    6  503    0 -0.66115096903E+00 -0.11673183789E+01  0.19696281334E+02  0.19741916098E+02  0.00000000000E+00 0. -1.
         -4    1    6    6    0  503 -0.97748936175E+02  0.36556100116E+03  0.27122555402E+03  0.46556739710E+03  0.00000000000E+00 0.  1.
<mgrwt>
<rscale>  0 0.24357859E+04</rscale>
<asrwt>0</asrwt>
<pdfrwt beam="1">  1        1 0.30472643E+00 0.24357859E+04</pdfrwt>
<pdfrwt beam="2">  1       -2 0.11520767E+00 0.24357859E+04</pdfrwt>
<totfact> 0.14151799E+00</totfact>
</mgrwt>
</event>
<event>
12    4  0.4207946E-008  0.1192982E+04  0.7818608E-02  0.9119021E-01
          1   -1    0    0  501    0  0.00000000000E+00  0.00000000000E+00  0.96647997740E+03  0.96647997740E+03  0.00000000000E+00 0. -1.
         -2   -1    0    0    0  501 -0.00000000000E+00 -0.00000000000E+00 -0.36814181557E+03  0.36814181557E+03  0.00000000000E+00 0.  1.
        -24    2    1    2    0    0  0.20558643219E+03  0.70646623672E+02  0.23975270903E+03  0.33582212460E+03  0.89657187927E+02 0.  0.
        254    2    1    2    0    0 -0.20558643219E+03 -0.70646623672E+02  0.35858545280E+03  0.99879966837E+03  0.90651007939E+03 0.  0.
         23    2    4    4    0    0 -0.10772065819E+03  0.40553084151E+03  0.99262156970E+02  0.44066724118E+03  0.90970533823E+02 0.  0.
         23    2    4    4    0    0 -0.97865773992E+02 -0.47617746518E+03  0.25932329583E+03  0.55813242719E+03  0.89109743907E+02 0.  0.
          1    1    3    3  502    0  0.20631389018E+03  0.72059884918E+02  0.20062506009E+03  0.29666220358E+03  0.00000000000E+00 0. -1.
         -2    1    3    3    0  502 -0.72745799887E+00 -0.14132612464E+01  0.39127648938E+02  0.39159921015E+02  0.00000000000E+00 0.  1.
         11    1    5    5    0    0 -0.33033067659E+02  0.19494661165E+03  0.89443321908E+02  0.21701491375E+03  0.00000000000E+00 0.  1.
        -11    1    5    5    0    0 -0.74687590534E+02  0.21058422985E+03  0.98188350620E+01  0.22365232743E+03  0.00000000000E+00 0. -1.
          3    1    6    6  503    0 -0.15329975125E+02 -0.22828381355E+03  0.15726411853E+03  0.27763377071E+03  0.00000000000E+00 0. -1.
         -3    1    6    6    0  503 -0.82535798867E+02 -0.24789365163E+03  0.10205917731E+03  0.28049865648E+03  0.00000000000E+00 0.  1.
<mgrwt>
<rscale>  0 0.11929823E+04</rscale>
<asrwt>0</asrwt>
<pdfrwt beam="1">  1        1 0.14868923E+00 0.11929823E+04</pdfrwt>
<pdfrwt beam="2">  1       -2 0.56637203E-01 0.11929823E+04</pdfrwt>
<totfact> 0.40819136E+01</totfact>
</mgrwt>
</event>
<event>
12    4  0.4207946E-008  0.1611391E+04  0.7818608E-02  0.8813581E-01
         -2   -1    0    0    0  501 -0.00000000000E+00  0.00000000000E+00  0.17130105865E+04  0.17130105865E+04  0.00000000000E+00 0.  1.
          1   -1    0    0  501    0  0.00000000000E+00 -0.00000000000E+00 -0.37894991731E+03  0.37894991731E+03  0.00000000000E+00 0. -1.
        -24    2    1    2    0    0  0.29434232730E+03  0.46840769497E+03  0.46578912418E+03  0.72723628623E+03  0.76615490962E+02 0.  0.
        254    2    1    2    0    0 -0.29434232730E+03 -0.46840769497E+03  0.86827154499E+03  0.13647242176E+04  0.89584236325E+03 0.  0.
         23    2    4    4    0    0 -0.22991234916E+03 -0.59901674652E+03  0.20480815752E+03  0.67897046828E+03  0.85870626546E+02 0.  0.
         23    2    4    4    0    0 -0.64429978135E+02  0.13060905155E+03  0.66346338747E+03  0.68575374928E+03  0.94151960708E+02 0.  0.
          3    1    3    3  502    0  0.23697032233E+03  0.39448958356E+03  0.34886303593E+03  0.57747933560E+03  0.00000000000E+00 0. -1.
         -4    1    3    3    0  502  0.57372004962E+02  0.73918111408E+02  0.11692608825E+03  0.14975695063E+03  0.00000000000E+00 0.  1.
         11    1    5    5    0    0 -0.92040543119E+02 -0.25805628314E+03  0.13171970462E+03  0.30399767669E+03  0.00000000000E+00 0. -1.
        -11    1    5    5    0    0 -0.13787180604E+03 -0.34096046338E+03  0.73088452904E+02  0.37497279159E+03  0.00000000000E+00 0.  1.
          1    1    6    6  503    0  0.71183676698E+01  0.86659497298E+02  0.27935210394E+03  0.29257159399E+03  0.00000000000E+00 0. -1.
         -1    1    6    6    0  503 -0.71548345804E+02  0.43949554251E+02  0.38411128353E+03  0.39318215529E+03  0.00000000000E+00 0.  1.
<mgrwt>
<rscale>  0 0.16113910E+04</rscale>
<asrwt>0</asrwt>
<pdfrwt beam="1">  1        1 0.58299989E-01 0.16113910E+04</pdfrwt>
<pdfrwt beam="2">  1       -2 0.26354008E+00 0.16113910E+04</pdfrwt>
<totfact> 0.28701505E+00</totfact>
</mgrwt>
</event>
<event>
12    4  0.4207946E-008  0.1537217E+04  0.7818608E-02  0.8860074E-01
          1   -1    0    0  501    0  0.00000000000E+00  0.00000000000E+00  0.12002349195E+04  0.12002349195E+04  0.00000000000E+00 0. -1.
         -2   -1    0    0    0  501 -0.00000000000E+00 -0.00000000000E+00 -0.49220308680E+03  0.49220308680E+03  0.00000000000E+00 0.  1.
        -24    2    1    2    0    0 -0.36091906947E+03  0.28905681161E+03  0.18613568964E+02  0.46967227831E+03  0.80182099132E+02 0.  0.
        254    2    1    2    0    0  0.36091906947E+03 -0.28905681161E+03  0.68941826371E+03  0.12227657280E+04  0.89779845627E+03 0.  0.
         23    2    4    4    0    0 -0.21199308469E+03  0.14085283622E+03  0.29474565979E+03  0.39992298177E+03  0.91009878357E+02 0.  0.
         23    2    4    4    0    0  0.57291215416E+03 -0.42990964782E+03  0.39467260392E+03  0.82284274618E+03  0.90846458288E+02 0.  0.
          1    1    3    3  502    0 -0.35637611451E+03  0.26524868681E+03  0.23783842510E+02  0.44488928062E+03  0.00000000000E+00 0. -1.
         -2    1    3    3    0  502 -0.45429549662E+01  0.23808124798E+02 -0.51702735454E+01  0.24782997695E+02  0.00000000000E+00 0.  1.
         11    1    5    5    0    0 -0.26761302123E+02  0.54032755236E+02  0.36552198880E+02  0.70510773451E+02  0.00000000000E+00 0.  1.
        -11    1    5    5    0    0 -0.18523178257E+03  0.86820080979E+02  0.25819346091E+03  0.32941220832E+03  0.00000000000E+00 0. -1.
          3    1    6    6  503    0  0.35026010785E+03 -0.24420824206E+03  0.18662818689E+03  0.46599344286E+03  0.00000000000E+00 0. -1.
         -3    1    6    6    0  503  0.22265204631E+03 -0.18570140577E+03  0.20804441703E+03  0.35684930333E+03  0.00000000000E+00 0.  1.
<mgrwt>
<rscale>  0 0.15372174E+04</rscale>
<asrwt>0</asrwt>
<pdfrwt beam="1">  1        1 0.18465153E+00 0.15372174E+04</pdfrwt>
<pdfrwt beam="2">  1       -2 0.75723552E-01 0.15372174E+04</pdfrwt>
<totfact> 0.14123113E+01</totfact>
</mgrwt>
</event>
<event>
12    4  0.4207946E-008  0.2559837E+04  0.7818608E-02  0.8381973E-01
          1   -1    0    0  501    0  0.00000000000E+00  0.00000000000E+00  0.10079763690E+04  0.10079763690E+04  0.00000000000E+00 0. -1.
         -2   -1    0    0    0  501 -0.00000000000E+00 -0.00000000000E+00 -0.16252285809E+04  0.16252285809E+04  0.00000000000E+00 0.  1.
        -24    2    1    2    0    0 -0.72643581383E+03  0.84884302855E+03 -0.32357593065E+03  0.11659700939E+04  0.80878911266E+02 0.  0.
        254    2    1    2    0    0  0.72643581383E+03 -0.84884302855E+03 -0.29367628129E+03  0.14672348559E+04  0.90459321553E+03 0.  0.
         23    2    4    4    0    0  0.57148188809E+03 -0.91761244228E+03  0.35943709565E+02  0.10852382771E+04  0.88577792033E+02 0.  0.
         23    2    4    4    0    0  0.15495392574E+03  0.68769413726E+02 -0.32961999085E+03  0.38199657882E+03  0.92369348248E+02 0.  0.
          3    1    3    3  502    0 -0.18951186789E+03  0.25045546282E+03 -0.12352466248E+03  0.33749226535E+03  0.00000000000E+00 0. -1.
         -4    1    3    3    0  502 -0.53692394594E+03  0.59838756573E+03 -0.20005126817E+03  0.82847782857E+03  0.00000000000E+00 0.  1.
         11    1    5    5    0    0  0.39687740840E+03 -0.70511097952E+03  0.12798946016E+02  0.80923234226E+03  0.00000000000E+00 0. -1.
        -11    1    5    5    0    0  0.17460447968E+03 -0.21250146276E+03  0.23144763549E+02  0.27600593486E+03  0.00000000000E+00 0.  1.
          2    1    6    6  503    0  0.68164092111E+02  0.79247087204E+02 -0.19970413064E+03  0.22540670815E+03  0.00000000000E+00 0. -1.
         -2    1    6    6    0  503  0.86789833629E+02 -0.10477673478E+02 -0.12991586021E+03  0.15658987067E+03  0.00000000000E+00 0.  1.
<mgrwt>
<rscale>  0 0.25598375E+04</rscale>
<asrwt>0</asrwt>
<pdfrwt beam="1">  1        1 0.15507329E+00 0.25598375E+04</pdfrwt>
<pdfrwt beam="2">  1       -2 0.25003517E+00 0.25598375E+04</pdfrwt>
<totfact> 0.74262650E-01</totfact>
</mgrwt>
</event>
<event>
12    4  0.4207946E-008  0.1186588E+04  0.7818608E-02  0.9124678E-01
          1   -1    0    0  501    0  0.00000000000E+00  0.00000000000E+00  0.65649758141E+03  0.65649758141E+03  0.00000000000E+00 0. -1.
         -2   -1    0    0    0  501 -0.00000000000E+00 -0.00000000000E+00 -0.53617492760E+03  0.53617492760E+03  0.00000000000E+00 0.  1.
        -24    2    1    2    0    0 -0.18359567719E+03  0.10297653181E+03  0.16186225634E+03  0.27731471963E+03  0.79953267063E+02 0.  0.
        254    2    1    2    0    0  0.18359567719E+03 -0.10297653181E+03 -0.41539602525E+02  0.91535778938E+03  0.88985549682E+03 0.  0.
         23    2    4    4    0    0  0.11420749587E+03 -0.19856936328E+03  0.38859469250E+03  0.46034571658E+03  0.91865116274E+02 0.  0.
         23    2    4    4    0    0  0.69388181314E+02  0.95592831473E+02 -0.43013429502E+03  0.45501207280E+03  0.89820740969E+02 0.  0.
          1    1    3    3  502    0 -0.13134469210E+03  0.83283914430E+02  0.15743715255E+03  0.22130091628E+03  0.00000000000E+00 0. -1.
         -2    1    3    3    0  502 -0.52250985089E+02  0.19692617379E+02  0.44251037840E+01  0.56013803348E+02  0.00000000000E+00 0.  1.
         11    1    5    5    0    0  0.40058992970E+02 -0.34050211612E+02  0.16408448686E+03  0.17230165019E+03  0.00000000000E+00 0.  1.
        -11    1    5    5    0    0  0.74148502903E+02 -0.16451915167E+03  0.22451020563E+03  0.28804406639E+03  0.00000000000E+00 0. -1.
          1    1    6    6  503    0  0.36086306733E+02  0.89799493275E+02 -0.39324218362E+03  0.40497603077E+03  0.00000000000E+00 0. -1.
         -1    1    6    6    0  503  0.33301874581E+02  0.57933381971E+01 -0.36892111406E+02  0.50036042030E+02  0.00000000000E+00 0.  1.
<mgrwt>
<rscale>  0 0.11865876E+04</rscale>
<asrwt>0</asrwt>
<pdfrwt beam="1">  1        1 0.10099963E+00 0.11865876E+04</pdfrwt>
<pdfrwt beam="2">  1       -2 0.82488450E-01 0.11865876E+04</pdfrwt>
<totfact> 0.33582806E+01</totfact>
</mgrwt>
</event>
<event>
12    4  0.4207946E-008  0.1481968E+04  0.7818608E-02  0.8896534E-01
          1   -1    0    0  501    0  0.00000000000E+00  0.00000000000E+00  0.83240076148E+03  0.83240076148E+03  0.00000000000E+00 0. -1.
         -2   -1    0    0    0  501 -0.00000000000E+00 -0.00000000000E+00 -0.65960646533E+03  0.65960646533E+03  0.00000000000E+00 0.  1.
        -24    2    1    2    0    0  0.84342602989E+02  0.21779924782E+03  0.45985817357E+03  0.52221652315E+03  0.81794683336E+02 0.  0.
        254    2    1    2    0    0 -0.84342602989E+02 -0.21779924782E+03 -0.28706387743E+03  0.96979070366E+03  0.89640289611E+03 0.  0.
         23    2    4    4    0    0  0.20186790890E+03 -0.85242463376E+02 -0.51702485749E+03  0.56882100667E+03  0.90695667799E+02 0.  0.
         23    2    4    4    0    0 -0.28621051189E+03 -0.13255678445E+03  0.22996098007E+03  0.40096969699E+03  0.91689079650E+02 0.  0.
          3    1    3    3  502    0 -0.14351665943E+01  0.91797796535E+02  0.21512034067E+03  0.23389240288E+03  0.00000000000E+00 0. -1.
         -4    1    3    3    0  502  0.85777769584E+02  0.12600145129E+03  0.24473783289E+03  0.28832412027E+03  0.00000000000E+00 0.  1.
         11    1    5    5    0    0  0.12165732607E+03 -0.57279783942E+02 -0.41401523278E+03  0.43530459636E+03  0.00000000000E+00 0. -1.
        -11    1    5    5    0    0  0.80210582837E+02 -0.27962679434E+02 -0.10300962471E+03  0.13351641032E+03  0.00000000000E+00 0.  1.
          4    1    6    6  503    0  0.68830647933E+01 -0.29615036350E+00  0.56234402241E+01  0.88931077774E+01  0.00000000000E+00 0. -1.
         -4    1    6    6    0  503 -0.29309357669E+03 -0.13226063409E+03  0.22433753984E+03  0.39207658921E+03  0.00000000000E+00 0.  1.
<mgrwt>
<rscale>  0 0.14819675E+04</rscale>
<asrwt>0</asrwt>
<pdfrwt beam="1">  1        1 0.12806166E+00 0.14819675E+04</pdfrwt>
<pdfrwt beam="2">  1       -2 0.10147792E+00 0.14819675E+04</pdfrwt>
<totfact> 0.14034746E+01</totfact>
</mgrwt>
</event>
<event>
12    4  0.4207946E-008  0.1793482E+04  0.7818608E-02  0.8709773E-01
          1   -1    0    0  501    0  0.00000000000E+00  0.00000000000E+00  0.19842093876E+04  0.19842093876E+04  0.00000000000E+00 0. -1.
         -2   -1    0    0    0  501 -0.00000000000E+00 -0.00000000000E+00 -0.40527198718E+03  0.40527198718E+03  0.00000000000E+00 0.  1.
        -24    2    1    2    0    0 -0.27898451337E+03  0.18317344683E+03 -0.12838161241E+03  0.36637002116E+03  0.79751386650E+02 0.  0.
        254    2    1    2    0    0  0.27898451337E+03 -0.18317344683E+03  0.17073190128E+04  0.20231113536E+04  0.10327906212E+04 0.  0.
         23    2    4    4    0    0  0.16083747824E+03  0.32668579960E+03  0.19980839152E+03  0.42455836471E+03  0.87943764184E+02 0.  0.
         23    2    4    4    0    0  0.11814703513E+03 -0.50985924644E+03  0.15075106213E+04  0.15985529889E+04  0.94171183898E+02 0.  0.
          3    1    3    3  502    0 -0.18510759955E+02 -0.19944487568E+01  0.61743587190E+01  0.19615013779E+02  0.00000000000E+00 0. -1.
         -4    1    3    3    0  502 -0.26047375342E+03  0.18516789559E+03 -0.13455597113E+03  0.34675500738E+03  0.00000000000E+00 0.  1.
         11    1    5    5    0    0  0.16011769143E+03  0.24374526129E+03  0.15349318878E+03  0.32955968581E+03  0.00000000000E+00 0. -1.
        -11    1    5    5    0    0  0.71978681163E+00  0.82940538312E+02  0.46315202737E+02  0.94998678902E+02  0.00000000000E+00 0.  1.
          4    1    6    6  503    0  0.58570529187E+02 -0.14613664602E+03  0.56548030099E+03  0.58698756120E+03  0.00000000000E+00 0.  1.
         -4    1    6    6    0  503  0.59576505942E+02 -0.36372260041E+03  0.94203032034E+03  0.10115654277E+04  0.00000000000E+00 0. -1.
<mgrwt>
<rscale>  0 0.17934821E+04</rscale>
<asrwt>0</asrwt>
<pdfrwt beam="1">  1        1 0.30526298E+00 0.17934821E+04</pdfrwt>
<pdfrwt beam="2">  1       -2 0.62349538E-01 0.17934821E+04</pdfrwt>
<totfact> 0.60446201E+00</totfact>
</mgrwt>
</event>
<event>
12    4  0.4207946E-008  0.1256904E+04  0.7818608E-02  0.9064456E-01
          1   -1    0    0  501    0  0.00000000000E+00  0.00000000000E+00  0.54664935770E+03  0.54664935770E+03  0.00000000000E+00 0. -1.
         -2   -1    0    0    0  501 -0.00000000000E+00 -0.00000000000E+00 -0.72249635252E+03  0.72249635252E+03  0.00000000000E+00 0.  1.
        -24    2    1    2    0    0  0.24118902264E+03  0.13123478074E+03  0.68695132533E+02  0.29441197857E+03  0.81022710229E+02 0.  0.
        254    2    1    2    0    0 -0.24118902264E+03 -0.13123478074E+03 -0.24454212735E+03  0.97473373165E+03  0.90272381339E+03 0.  0.
         23    2    4    4    0    0 -0.37826926377E+03  0.92940094411E+02 -0.46934301469E+03  0.61663180663E+03  0.90699627579E+02 0.  0.
         23    2    4    4    0    0  0.13708024113E+03 -0.22417487515E+03  0.22480088735E+03  0.35810192503E+03  0.93038608105E+02 0.  0.
          3    1    3    3  502    0  0.24230630688E+03  0.13500790682E+03  0.74673004346E+02  0.28725518069E+03  0.00000000000E+00 0. -1.
         -4    1    3    3    0  502 -0.11172842376E+01 -0.37731260755E+01 -0.59778718132E+01  0.71567978779E+01  0.00000000000E+00 0.  1.
         11    1    5    5    0    0 -0.14631790475E+03  0.50899916106E+02 -0.12364743204E+03  0.19821306254E+03  0.00000000000E+00 0.  1.
        -11    1    5    5    0    0 -0.23195135902E+03  0.42040178306E+02 -0.34569558265E+03  0.41841874409E+03  0.00000000000E+00 0. -1.
          2    1    6    6  503    0  0.14100280666E+03 -0.20906226620E+03  0.17772520338E+03  0.30850457136E+03  0.00000000000E+00 0. -1.
         -2    1    6    6    0  503 -0.39225655328E+01 -0.15112608957E+02  0.47075683966E+02  0.49597353666E+02  0.00000000000E+00 0.  1.
<mgrwt>
<rscale>  0 0.12569044E+04</rscale>
<asrwt>0</asrwt>
<pdfrwt beam="1">  1        1 0.84099902E-01 0.12569044E+04</pdfrwt>
<pdfrwt beam="2">  1       -2 0.11115328E+00 0.12569044E+04</pdfrwt>
<totfact> 0.21610385E+01</totfact>
</mgrwt>
</event>
<event>
12    4  0.4207946E-008  0.1266655E+04  0.7818608E-02  0.9056434E-01
          1   -1    0    0  501    0  0.00000000000E+00  0.00000000000E+00  0.17718913930E+04  0.17718913930E+04  0.00000000000E+00 0. -1.
         -2   -1    0    0    0  501 -0.00000000000E+00 -0.00000000000E+00 -0.22637049284E+03  0.22637049284E+03  0.00000000000E+00 0.  1.
        -24    2    1    2    0    0 -0.10215074228E+03 -0.21923836243E+03  0.90921141466E+02  0.27041200795E+03  0.79723060469E+02 0.  0.
        254    2    1    2    0    0  0.10215074228E+03  0.21923836243E+03  0.14545997587E+04  0.17278498779E+04  0.90061340696E+03 0.  0.
         23    2    4    4    0    0  0.27398969379E+03  0.39775525316E+03  0.37809756577E+03  0.61960411276E+03  0.87589346315E+02 0.  0.
         23    2    4    4    0    0 -0.17183895151E+03 -0.17851689073E+03  0.10765021929E+04  0.11082457651E+04  0.89189679865E+02 0.  0.
          1    1    3    3  502    0 -0.83841380025E+01 -0.10876321690E+03  0.48854884884E+02  0.11952627702E+03  0.00000000000E+00 0. -1.
         -2    1    3    3    0  502 -0.93766604276E+02 -0.11047514553E+03  0.42066256582E+02  0.15088573094E+03  0.00000000000E+00 0.  1.
         11    1    5    5    0    0 -0.54631064243E+01  0.10715152716E+02  0.17951348799E+02  0.21608122390E+02  0.00000000000E+00 0. -1.
        -11    1    5    5    0    0  0.27945280022E+03  0.38704010045E+03  0.36014621697E+03  0.59799599037E+03  0.00000000000E+00 0.  1.
          1    1    6    6  503    0 -0.15780969670E+03 -0.14161193489E+03  0.99914856236E+03  0.10213988888E+04  0.00000000000E+00 0. -1.
         -1    1    6    6    0  503 -0.14029254816E+02 -0.36904955840E+02  0.77353630582E+02  0.86846876285E+02  0.00000000000E+00 0.  1.
<mgrwt>
<rscale>  0 0.12666553E+04</rscale>
<asrwt>0</asrwt>
<pdfrwt beam="1">  1        1 0.27259867E+00 0.12666553E+04</pdfrwt>
<pdfrwt beam="2">  1       -2 0.34826231E-01 0.12666553E+04</pdfrwt>
<totfact> 0.28480000E+01</totfact>
</mgrwt>
</event>
<event>
12    4  0.4207946E-008  0.2626781E+04  0.7818608E-02  0.8359161E-01
         -2   -1    0    0    0  501 -0.00000000000E+00  0.00000000000E+00  0.26044560224E+04  0.26044560224E+04  0.00000000000E+00 0.  1.
          1   -1    0    0  501    0  0.00000000000E+00 -0.00000000000E+00 -0.66232432102E+03  0.66232432102E+03  0.00000000000E+00 0. -1.
        -24    2    1    2    0    0 -0.19280669403E+03 -0.31892215785E+03 -0.50464732721E+03  0.63239554323E+03  0.79808735147E+02 0.  0.
        254    2    1    2    0    0  0.19280669403E+03  0.31892215785E+03  0.24467790286E+04  0.26343848002E+04  0.90242445483E+03 0.  0.
         23    2    4    4    0    0  0.85547225231E+02 -0.21846169761E+03  0.16126250259E+04  0.16321264606E+04  0.90738461179E+02 0.  0.
         23    2    4    4    0    0  0.10725946880E+03  0.53738385546E+03  0.83415400275E+03  0.10022583396E+04  0.91776234520E+02 0.  0.
          1    1    3    3  502    0 -0.13243577756E+03 -0.27873927252E+03 -0.40921644746E+03  0.51253577251E+03  0.00000000000E+00 0. -1.
         -2    1    3    3    0  502 -0.60370916469E+02 -0.40182885330E+02 -0.95430879744E+02  0.11985977072E+03  0.00000000000E+00 0.  1.
         11    1    5    5    0    0 -0.91881847856E+01 -0.87069065287E+02  0.66806719847E+03  0.67377980568E+03  0.00000000000E+00 0. -1.
        -11    1    5    5    0    0  0.94735410017E+02 -0.13139263232E+03  0.94455782739E+03  0.95834665494E+03  0.00000000000E+00 0.  1.
          3    1    6    6  503    0  0.12353607593E+03  0.49135901511E+03  0.75413095632E+03  0.90851986388E+03  0.00000000000E+00 0. -1.
         -3    1    6    6    0  503 -0.16276607129E+02  0.46024840350E+02  0.80023046428E+02  0.93738475711E+02  0.00000000000E+00 0.  1.
<mgrwt>
<rscale>  0 0.26267810E+04</rscale>
<asrwt>0</asrwt>
<pdfrwt beam="1">  1        1 0.10189605E+00 0.26267810E+04</pdfrwt>
<pdfrwt beam="2">  1       -2 0.40068554E+00 0.26267810E+04</pdfrwt>
<totfact> 0.16758124E-01</totfact>
</mgrwt>
</event>
<event>
12    4  0.4207946E-008  0.2354815E+04  0.7818608E-02  0.8456617E-01
          1   -1    0    0  501    0  0.00000000000E+00  0.00000000000E+00  0.15988313127E+04  0.15988313127E+04  0.00000000000E+00 0. -1.
         -2   -1    0    0    0  501 -0.00000000000E+00 -0.00000000000E+00 -0.86706354188E+03  0.86706354188E+03  0.00000000000E+00 0.  1.
        -24    2    1    2    0    0 -0.18610828691E+03  0.40174679624E+03 -0.62719147595E+03  0.77175169591E+03  0.78706733413E+02 0.  0.
        254    2    1    2    0    0  0.18610828691E+03 -0.40174679624E+03  0.13589592468E+04  0.16941431587E+04  0.90956804303E+03 0.  0.
         23    2    4    4    0    0  0.45047738877E+03 -0.52225010671E+03  0.10548115723E+04  0.12635318663E+04  0.90610552567E+02 0.  0.
         23    2    4    4    0    0 -0.26436910185E+03  0.12050331047E+03  0.30414767443E+03  0.43061129237E+03  0.92239944757E+02 0.  0.
          1    1    3    3  502    0 -0.39920694939E+02  0.74869968454E+02 -0.17893832976E+03  0.19803560265E+03  0.00000000000E+00 0. -1.
         -4    1    3    3    0  502 -0.14618759197E+03  0.32687682779E+03 -0.44825314619E+03  0.57371609326E+03  0.00000000000E+00 0.  1.
         11    1    5    5    0    0  0.16253195713E+03 -0.17555291775E+03  0.44530415329E+03  0.50550099204E+03  0.00000000000E+00 0. -1.
        -11    1    5    5    0    0  0.28794543163E+03 -0.34669718896E+03  0.60950741905E+03  0.75803087424E+03  0.00000000000E+00 0.  1.
          4    1    6    6  503    0 -0.25219490436E+03  0.11114583265E+03  0.24256200369E+03  0.36714028864E+03  0.00000000000E+00 0. -1.
         -4    1    6    6    0  503 -0.12174197489E+02  0.93574778171E+01  0.61585670731E+02  0.63471003734E+02  0.00000000000E+00 0.  1.
<mgrwt>
<rscale>  0 0.23548149E+04</rscale>
<asrwt>0</asrwt>
<pdfrwt beam="1">  1        1 0.24597405E+00 0.23548149E+04</pdfrwt>
<pdfrwt beam="2">  1       -2 0.13339439E+00 0.23548149E+04</pdfrwt>
<totfact> 0.17964849E+00</totfact>
</mgrwt>
</event>
<event>
12    4  0.4207946E-008  0.4132457E+04  0.7818608E-02  0.7978346E-01
          3   -1    0    0  501    0  0.00000000000E+00  0.00000000000E+00  0.29703816001E+04  0.29703816001E+04  0.00000000000E+00 0. -1.
         -4   -1    0    0    0  501 -0.00000000000E+00 -0.00000000000E+00 -0.14372901910E+04  0.14372901910E+04  0.00000000000E+00 0.  1.
        -24    2    1    2    0    0  0.11124157607E+04 -0.11421185367E+04 -0.49790888884E+03  0.16722570806E+04  0.81405807238E+02 0.  0.
        254    2    1    2    0    0 -0.11124157607E+04  0.11421185367E+04  0.20310002979E+04  0.27354147105E+04  0.90312117230E+03 0.  0.
         23    2    4    4    0    0 -0.80371571845E+03  0.10489360271E+04  0.10240928125E+04  0.16742309918E+04  0.89764025396E+02 0.  0.
         23    2    4    4    0    0 -0.30870004225E+03  0.93182509585E+02  0.10069074854E+04  0.10611837187E+04  0.90936815922E+02 0.  0.
          3    1    3    3  502    0  0.30331639727E+03 -0.33179468166E+03 -0.17597037139E+03  0.48275679099E+03  0.00000000000E+00 0. -1.
         -4    1    3    3    0  502  0.80909936343E+03 -0.81032385501E+03 -0.32193851745E+03  0.11895002896E+04  0.00000000000E+00 0.  1.
         11    1    5    5    0    0 -0.88039920598E+01  0.27835405254E+02  0.34369222899E+02  0.45095050112E+02  0.00000000000E+00 0. -1.
        -11    1    5    5    0    0 -0.79491172639E+03  0.10211006218E+04  0.98972358957E+03  0.16291359417E+04  0.00000000000E+00 0.  1.
          4    1    6    6  503    0 -0.17325569289E+03  0.53096024790E+02  0.41827606434E+03  0.45584162706E+03  0.00000000000E+00 0. -1.
         -4    1    6    6    0  503 -0.13544434936E+03  0.40086484795E+02  0.58863142109E+03  0.60534209166E+03  0.00000000000E+00 0.  1.
<mgrwt>
<rscale>  0 0.41324571E+04</rscale>
<asrwt>0</asrwt>
<pdfrwt beam="1">  1        3 0.45698178E+00 0.41324571E+04</pdfrwt>
<pdfrwt beam="2">  1       -4 0.22112157E+00 0.41324571E+04</pdfrwt>
<totfact> 0.95082858E-04</totfact>
</mgrwt>
</event>
<event>
12    4  0.4207946E-008  0.1797848E+04  0.7818608E-02  0.8707445E-01
         -2   -1    0    0    0  501 -0.00000000000E+00  0.00000000000E+00  0.79561210185E+03  0.79561210185E+03  0.00000000000E+00 0.  1.
          1   -1    0    0  501    0  0.00000000000E+00 -0.00000000000E+00 -0.10156511215E+04  0.10156511215E+04  0.00000000000E+00 0. -1.
        -24    2    1    2    0    0 -0.78887637422E+01 -0.57140980548E+03 -0.43732716999E+03  0.72414314021E+03  0.80974289210E+02 0.  0.
        254    2    1    2    0    0  0.78887637422E+01  0.57140980548E+03  0.21728815036E+03  0.10871200831E+04  0.89891297491E+03 0.  0.
         23    2    4    4    0    0 -0.42233282313E+02  0.72449946879E+03 -0.80922260124E+02  0.73594951289E+03  0.91597723384E+02 0.  0.
         23    2    4    4    0    0  0.50122046055E+02 -0.15308966331E+03  0.29821041048E+03  0.35117057024E+03  0.91883926598E+02 0.  0.
          1    1    3    3  502    0 -0.42580427450E+01 -0.50911681875E+03 -0.41822627752E+03  0.65888639785E+03  0.00000000000E+00 0. -1.
         -2    1    3    3    0  502 -0.36307209971E+01 -0.62292986733E+02 -0.19100892471E+02  0.65256742366E+02  0.00000000000E+00 0.  1.
         11    1    5    5    0    0 -0.52434760658E+02  0.67639994293E+03 -0.94402248053E+02  0.68496574466E+03  0.00000000000E+00 0.  1.
        -11    1    5    5    0    0  0.10201478345E+02  0.48099525855E+02  0.13479987929E+02  0.50983768226E+02  0.00000000000E+00 0. -1.
          4    1    6    6  503    0  0.18131375287E+02 -0.13591216317E+02  0.26914403676E+01  0.22819110018E+02  0.00000000000E+00 0. -1.
         -4    1    6    6    0  503  0.31990670768E+02 -0.13949844699E+03  0.29551897012E+03  0.32835146022E+03  0.00000000000E+00 0.  1.
<mgrwt>
<rscale>  0 0.17978480E+04</rscale>
<asrwt>0</asrwt>
<pdfrwt beam="1">  1        1 0.15625402E+00 0.17978480E+04</pdfrwt>
<pdfrwt beam="2">  1       -2 0.12240186E+00 0.17978480E+04</pdfrwt>
<totfact> 0.61515207E+00</totfact>
</mgrwt>
</event>
<event>
12    4  0.4207946E-008  0.2093573E+04  0.7818608E-02  0.8564080E-01
          1   -1    0    0  501    0  0.00000000000E+00  0.00000000000E+00  0.15365152599E+04  0.15365152599E+04  0.00000000000E+00 0. -1.
         -4   -1    0    0    0  501 -0.00000000000E+00 -0.00000000000E+00 -0.71314754561E+03  0.71314754561E+03  0.00000000000E+00 0.  1.
        -24    2    1    2    0    0  0.66358176090E+02 -0.48673675940E+03 -0.40977888963E+03  0.64475813890E+03  0.80487507121E+02 0.  0.
        254    2    1    2    0    0 -0.66358176090E+02  0.48673675940E+03  0.12331466039E+04  0.16049046666E+04  0.90208223665E+03 0.  0.
         23    2    4    4    0    0  0.37070005790E+03  0.31054189570E+03  0.36352515673E+03  0.61157640975E+03  0.89556482056E+02 0.  0.
         23    2    4    4    0    0 -0.43705823399E+03  0.17619486370E+03  0.86962144720E+03  0.99332825688E+03  0.91624421316E+02 0.  0.
          1    1    3    3  502    0  0.56778322833E+01  0.68097849855E+00 -0.96945010490E+01  0.11255436986E+02  0.00000000000E+00 0. -1.
         -2    1    3    3    0  502  0.60680343807E+02 -0.48741773790E+03 -0.40008438858E+03  0.63350270191E+03  0.00000000000E+00 0.  1.
         11    1    5    5    0    0  0.31883267232E+02  0.16963836273E+02  0.60494401567E+02  0.70454858537E+02  0.00000000000E+00 0.  1.
        -11    1    5    5    0    0  0.33881679066E+03  0.29357805943E+03  0.30303075516E+03  0.54112155121E+03  0.00000000000E+00 0. -1.
          2    1    6    6  503    0 -0.18578514625E+03  0.10940054919E+03  0.46222592051E+03  0.51003666763E+03  0.00000000000E+00 0. -1.
         -2    1    6    6    0  503 -0.25127308773E+03  0.66794314511E+02  0.40739552669E+03  0.48329158925E+03  0.00000000000E+00 0.  1.
<mgrwt>
<rscale>  0 0.20935731E+04</rscale>
<asrwt>0</asrwt>
<pdfrwt beam="1">  1        1 0.23638696E+00 0.20935731E+04</pdfrwt>
<pdfrwt beam="2">  1       -4 0.10971501E+00 0.20935731E+04</pdfrwt>
<totfact> 0.18337923E+00</totfact>
</mgrwt>
</event>
<event>
12    4  0.4207946E-008  0.2925224E+04  0.7818608E-02  0.8265412E-01
         -2   -1    0    0    0  501 -0.00000000000E+00  0.00000000000E+00  0.10470814776E+04  0.10470814776E+04  0.00000000000E+00 0.  1.
          1   -1    0    0  501    0  0.00000000000E+00 -0.00000000000E+00 -0.20430449266E+04  0.20430449266E+04  0.00000000000E+00 0. -1.
        -24    2    1    2    0    0  0.80188274141E+03 -0.47656211253E+03  0.53949497895E+03  0.10802793687E+04  0.76297471182E+02 0.  0.
        254    2    1    2    0    0 -0.80188274141E+03  0.47656211253E+03 -0.15354584279E+04  0.20098470354E+04  0.90095790342E+03 0.  0.
         23    2    4    4    0    0 -0.98339816268E+03  0.45468540718E+03 -0.13380199129E+04  0.17240382150E+04  0.90552270046E+02 0.  0.
         23    2    4    4    0    0  0.18151542127E+03  0.21876705348E+02 -0.19743851502E+03  0.28580882039E+03  0.96323809115E+02 0.  0.
          3    1    3    3  502    0  0.15675020403E+02 -0.18815423136E+02  0.25544739916E+02  0.35387287969E+02  0.00000000000E+00 0. -1.
         -2    1    3    3    0  502  0.78620772101E+03 -0.45774668939E+03  0.51395023904E+03  0.10448920808E+04  0.00000000000E+00 0.  1.
         11    1    5    5    0    0 -0.62259131908E+03  0.24249819311E+03 -0.79765742327E+03  0.10405203934E+04  0.00000000000E+00 0.  1.
        -11    1    5    5    0    0 -0.36080684360E+03  0.21218721406E+03 -0.54036248966E+03  0.68351782159E+03  0.00000000000E+00 0. -1.
          4    1    6    6  503    0 -0.12337152979E+01 -0.18932069138E+02 -0.23839146243E+02  0.30467198573E+02  0.00000000000E+00 0. -1.
         -4    1    6    6    0  503  0.18274913657E+03  0.40808774486E+02 -0.17359936877E+03  0.25534162181E+03  0.00000000000E+00 0.  1.
<mgrwt>
<rscale>  0 0.29252244E+04</rscale>
<asrwt>0</asrwt>
<pdfrwt beam="1">  1        1 0.31431460E+00 0.29252244E+04</pdfrwt>
<pdfrwt beam="2">  1       -2 0.16108946E+00 0.29252244E+04</pdfrwt>
<totfact> 0.51874232E-01</totfact>
</mgrwt>
</event>
<event>
12    4  0.4207946E-008  0.2062874E+04  0.7818608E-02  0.8577776E-01
         -2   -1    0    0    0  501 -0.00000000000E+00  0.00000000000E+00  0.25678304618E+04  0.25678304618E+04  0.00000000000E+00 0.  1.
          1   -1    0    0  501    0  0.00000000000E+00 -0.00000000000E+00 -0.41430387577E+03  0.41430387577E+03  0.00000000000E+00 0. -1.
        -24    2    1    2    0    0  0.75876770863E+03  0.30127992522E+03  0.64373397892E+03  0.10426538501E+04  0.78965729820E+02 0.  0.
        254    2    1    2    0    0 -0.75876770863E+03 -0.30127992522E+03  0.15097926071E+04  0.19394804874E+04  0.90311284776E+03 0.  0.
         23    2    4    4    0    0  0.19807587911E+03 -0.63604071755E+02  0.28254666411E+03  0.36268224090E+03  0.91794654739E+02 0.  0.
         23    2    4    4    0    0 -0.95684358773E+03 -0.23767585347E+03  0.12272459430E+04  0.15767982465E+04  0.90114610661E+02 0.  0.
          3    1    3    3  502    0  0.68649170335E+03  0.27950460454E+03  0.61012851726E+03  0.96002629667E+03  0.00000000000E+00 0. -1.
         -4    1    3    3    0  502  0.72276005277E+02  0.21775320686E+02  0.33605461653E+02  0.82627553411E+02  0.00000000000E+00 0.  1.
         11    1    5    5    0    0  0.32123108826E+02  0.22593754525E+02  0.63558385760E+02  0.74713052839E+02  0.00000000000E+00 0.  1.
        -11    1    5    5    0    0  0.16595277028E+03 -0.86197826279E+02  0.21898827835E+03  0.28796918807E+03  0.00000000000E+00 0. -1.
          3    1    6    6  503    0 -0.85259321954E+03 -0.23955687472E+03  0.11063741206E+04  0.14171684406E+04  0.00000000000E+00 0. -1.
         -3    1    6    6    0  503 -0.10425036820E+03  0.18810212519E+01  0.12087182232E+03  0.15962980593E+03  0.00000000000E+00 0.  1.
<mgrwt>
<rscale>  0 0.20628738E+04</rscale>
<asrwt>0</asrwt>
<pdfrwt beam="1">  1        1 0.63739059E-01 0.20628738E+04</pdfrwt>
<pdfrwt beam="2">  1       -2 0.39505083E+00 0.20628738E+04</pdfrwt>
<totfact> 0.37049111E-01</totfact>
</mgrwt>
</event>
<event>
12    4  0.4207946E-008  0.1092980E+04  0.7818608E-02  0.9212061E-01
         -2   -1    0    0    0  501 -0.00000000000E+00  0.00000000000E+00  0.11604159464E+03  0.11604159464E+03  0.00000000000E+00 0.  1.
          1   -1    0    0  501    0  0.00000000000E+00 -0.00000000000E+00 -0.25736565398E+04  0.25736565398E+04  0.00000000000E+00 0. -1.
        -24    2    1    2    0    0 -0.78818502188E+02 -0.12150343198E+03 -0.21627550781E+03  0.27209633400E+03  0.79283538212E+02 0.  0.
        254    2    1    2    0    0  0.78818502188E+02  0.12150343198E+03 -0.22413394373E+04  0.24176018004E+04  0.89455047466E+03 0.  0.
         23    2    4    4    0    0 -0.28396665164E+03  0.15264829819E+03 -0.18318672492E+04  0.18623021503E+04  0.92158114786E+02 0.  0.
         23    2    4    4    0    0  0.36278515383E+03 -0.31144866210E+02 -0.40947218816E+03  0.55529965014E+03  0.90039758098E+02 0.  0.
          3    1    3    3  502    0  0.47023063446E+01 -0.36184816175E+02 -0.95653512629E+02  0.10237698513E+03  0.00000000000E+00 0. -1.
         -4    1    3    3    0  502 -0.83520808533E+02 -0.85318615803E+02 -0.12062199518E+03  0.16971934887E+03  0.00000000000E+00 0.  1.
         11    1    5    5    0    0 -0.12675245144E+03  0.63530282372E+02 -0.10668348416E+04  0.10762150621E+04  0.00000000000E+00 0.  1.
        -11    1    5    5    0    0 -0.15721420020E+03  0.89118015817E+02 -0.76503240760E+03  0.78608708816E+03  0.00000000000E+00 0. -1.
          4    1    6    6  503    0  0.36525284476E+03 -0.22626529102E+02 -0.40270416759E+03  0.54414359044E+03  0.00000000000E+00 0. -1.
         -4    1    6    6    0  503 -0.24676909283E+01 -0.85183371077E+01 -0.67680205754E+01  0.11156059703E+02  0.00000000000E+00 0.  1.
<mgrwt>
<rscale>  0 0.10929798E+04</rscale>
<asrwt>0</asrwt>
<pdfrwt beam="1">  1        1 0.39594709E+00 0.10929798E+04</pdfrwt>
<pdfrwt beam="2">  1       -2 0.17852556E-01 0.10929798E+04</pdfrwt>
<totfact> 0.27740519E+01</totfact>
</mgrwt>
</event>
<event>
12    4  0.4207946E-008  0.1340695E+04  0.7818608E-02  0.8997902E-01
         -2   -1    0    0    0  501 -0.00000000000E+00  0.00000000000E+00  0.27209812133E+03  0.27209812133E+03  0.00000000000E+00 0.  1.
          1   -1    0    0  501    0  0.00000000000E+00 -0.00000000000E+00 -0.16514854687E+04  0.16514854687E+04  0.00000000000E+00 0. -1.
        -24    2    1    2    0    0  0.32399521980E+03  0.13566082511E+03 -0.52096847145E+03  0.63342390798E+03  0.80255448569E+02 0.  0.
        254    2    1    2    0    0 -0.32399521980E+03 -0.13566082511E+03 -0.85841887592E+03  0.12901596820E+04  0.89680113555E+03 0.  0.
         23    2    4    4    0    0  0.17641754563E+03 -0.32530855794E+03 -0.18062889249E+03  0.42200544064E+03  0.92265848771E+02 0.  0.
         23    2    4    4    0    0 -0.50041276544E+03  0.18964773283E+03 -0.67778998343E+03  0.86815424141E+03  0.88956882060E+02 0.  0.
          3    1    3    3  502    0  0.18770521788E+03  0.84573176720E+02 -0.23415483677E+03  0.31179217216E+03  0.00000000000E+00 0. -1.
         -4    1    3    3    0  502  0.13629000192E+03  0.51087648390E+02 -0.28681363468E+03  0.32163173581E+03  0.00000000000E+00 0.  1.
         11    1    5    5    0    0  0.53035142694E+02 -0.34261269065E+02 -0.14057563618E+02  0.64685207067E+02  0.00000000000E+00 0. -1.
        -11    1    5    5    0    0  0.12338240294E+03 -0.29104728887E+03 -0.16657132887E+03  0.35732023357E+03  0.00000000000E+00 0.  1.
          4    1    6    6  503    0 -0.12531324212E+03  0.27260795443E+02 -0.21822827361E+03  0.25312079927E+03  0.00000000000E+00 0. -1.
         -4    1    6    6    0  503 -0.37509952331E+03  0.16238693739E+03 -0.45956170982E+03  0.61503344214E+03  0.00000000000E+00 0.  1.
<mgrwt>
<rscale>  0 0.13406955E+04</rscale>
<asrwt>0</asrwt>
<pdfrwt beam="1">  1        1 0.25407469E+00 0.13406955E+04</pdfrwt>
<pdfrwt beam="2">  1       -2 0.41861250E-01 0.13406955E+04</pdfrwt>
<totfact> 0.23917392E+01</totfact>
</mgrwt>
</event>
<event>
12    4  0.4207946E-008  0.1506136E+04  0.7818608E-02  0.8880383E-01
          1   -1    0    0  501    0  0.00000000000E+00  0.00000000000E+00  0.60229727089E+03  0.60229727089E+03  0.00000000000E+00 0. -1.
         -2   -1    0    0    0  501 -0.00000000000E+00 -0.00000000000E+00 -0.94158036218E+03  0.94158036218E+03  0.00000000000E+00 0.  1.
        -24    2    1    2    0    0  0.13869633274E+03 -0.42718273211E+03 -0.29242996740E+03  0.54173811583E+03  0.79013549334E+02 0.  0.
        254    2    1    2    0    0 -0.13869633274E+03  0.42718273211E+03 -0.46853123890E+02  0.10021395172E+04  0.89463212411E+03 0.  0.
         23    2    4    4    0    0  0.31223487349E+03  0.17503771650E+03 -0.24313233943E+03  0.44207853836E+03  0.90505696982E+02 0.  0.
         23    2    4    4    0    0 -0.45093120623E+03  0.25214501561E+03  0.19627921554E+03  0.56006097889E+03  0.90701201599E+02 0.  0.
          3    1    3    3  502    0  0.12170586240E+03 -0.37810006895E+03 -0.22460798086E+03  0.45631209073E+03  0.00000000000E+00 0. -1.
         -4    1    3    3    0  502  0.16990470345E+02 -0.49082663160E+02 -0.67821986542E+02  0.85426025097E+02  0.00000000000E+00 0.  1.
         11    1    5    5    0    0  0.16896118899E+03  0.43113707896E+02 -0.11023766503E+03  0.20629837126E+03  0.00000000000E+00 0.  1.
        -11    1    5    5    0    0  0.14327368450E+03  0.13192400860E+03 -0.13289467439E+03  0.23578016710E+03  0.00000000000E+00 0. -1.
          4    1    6    6  503    0 -0.39844238808E+03  0.19212779194E+03  0.18525193403E+03  0.47957033281E+03  0.00000000000E+00 0. -1.
         -4    1    6    6    0  503 -0.52488818151E+02  0.60017223670E+02  0.11027281511E+02  0.80490646075E+02  0.00000000000E+00 0.  1.
<mgrwt>
<rscale>  0 0.15061358E+04</rscale>
<asrwt>0</asrwt>
<pdfrwt beam="1">  1        1 0.92661120E-01 0.15061358E+04</pdfrwt>
<pdfrwt beam="2">  1       -2 0.14485852E+00 0.15061358E+04</pdfrwt>
<totfact> 0.94616485E+00</totfact>
</mgrwt>
</event>
<event>
12    4  0.4207946E-008  0.1871810E+04  0.7818608E-02  0.8669017E-01
         -2   -1    0    0    0  501 -0.00000000000E+00  0.00000000000E+00  0.27288769030E+03  0.27288769030E+03  0.00000000000E+00 0.  1.
          1   -1    0    0  501    0  0.00000000000E+00 -0.00000000000E+00 -0.32098119639E+04  0.32098119639E+04  0.00000000000E+00 0. -1.
        -24    2    1    2    0    0 -0.27593148261E+03  0.60794168267E+03 -0.65484272461E+03  0.93858900677E+03  0.79994106278E+02 0.  0.
        254    2    1    2    0    0  0.27593148261E+03 -0.60794168267E+03 -0.22820815490E+04  0.25441106474E+04  0.90491519904E+03 0.  0.
         23    2    4    4    0    0  0.42318540576E+02 -0.65697276438E+03 -0.79941443110E+03  0.10396135671E+04  0.91262611326E+02 0.  0.
         23    2    4    4    0    0  0.23361294204E+03  0.49031081712E+02 -0.14826671179E+04  0.15044970803E+04  0.90722811683E+02 0.  0.
          3    1    3    3  502    0 -0.26106742242E+02  0.49231992126E+02 -0.89400203002E+02  0.10534584632E+03  0.00000000000E+00 0. -1.
         -4    1    3    3    0  502 -0.24982474037E+03  0.55870969055E+03 -0.56544252160E+03  0.83324316046E+03  0.00000000000E+00 0.  1.
         11    1    5    5    0    0 -0.23250599210E+02 -0.33089958059E+03 -0.38319652917E+03  0.50682808008E+03  0.00000000000E+00 0.  1.
        -11    1    5    5    0    0  0.65569139786E+02 -0.32607318380E+03 -0.41621790193E+03  0.53278548701E+03  0.00000000000E+00 0. -1.
          1    1    6    6  503    0  0.47632167036E+02  0.33792314801E+02 -0.56764196263E+03  0.57063836325E+03  0.00000000000E+00 0. -1.
         -1    1    6    6    0  503  0.18598077500E+03  0.15238766912E+02 -0.91502515526E+03  0.93385871707E+03  0.00000000000E+00 0.  1.
<mgrwt>
<rscale>  0 0.18718100E+04</rscale>
<asrwt>0</asrwt>
<pdfrwt beam="1">  1        1 0.49381718E+00 0.18718100E+04</pdfrwt>
<pdfrwt beam="2">  1       -2 0.41982726E-01 0.18718100E+04</pdfrwt>
<totfact> 0.18582600E+00</totfact>
</mgrwt>
</event>
<event>
12    4  0.4301897E-008  0.2859099E+04  0.7818608E-02  0.8285152E-01
          1   -1    0    0  501    0  0.00000000000E+00  0.00000000000E+00  0.23848103968E+04  0.23848103968E+04  0.00000000000E+00 0. -1.
         -2   -1    0    0    0  501 -0.00000000000E+00 -0.00000000000E+00 -0.85692868728E+03  0.85692868728E+03  0.00000000000E+00 0.  1.
        -24    2    1    2    0    0 -0.61010103885E+03 -0.79598362407E+03 -0.21230047876E+03  0.10283764114E+04  0.81690530508E+02 0.  0.
        254    2    1    2    0    0  0.61010103885E+03  0.79598362407E+03  0.17401821882E+04  0.22133626727E+04  0.93001455100E+03 0.  0.
         23    2    4    4    0    0  0.80927023687E+03  0.53715880873E+03  0.98967924481E+03  0.13899582807E+04  0.95189875655E+02 0.  0.
         23    2    4    4    0    0 -0.19916919801E+03  0.25882481534E+03  0.75050294343E+03  0.82340439195E+03  0.89896997285E+02 0.  0.
          1    1    3    3  502    0 -0.21543698950E+02 -0.35543007448E+02 -0.25624420177E+02  0.48826706343E+02  0.00000000000E+00 0. -1.
         -2    1    3    3    0  502 -0.58855733990E+03 -0.76044061663E+03 -0.18667605858E+03  0.97954970502E+03  0.00000000000E+00 0.  1.
         11    1    5    5    0    0  0.26813630591E+03  0.21421177895E+03  0.39816940097E+03  0.52566399597E+03  0.00000000000E+00 0. -1.
        -11    1    5    5    0    0  0.54113393095E+03  0.32294702979E+03  0.59150984384E+03  0.86429428474E+03  0.00000000000E+00 0.  1.
          4    1    6    6  503    0 -0.60134525834E+02  0.21849716119E+02  0.14274885013E+03  0.15643147223E+03  0.00000000000E+00 0. -1.
         -4    1    6    6    0  503 -0.13903467218E+03  0.23697509922E+03  0.60775409330E+03  0.66697291972E+03  0.00000000000E+00 0.  1.
<mgrwt>
<rscale>  0 0.28590995E+04</rscale>
<asrwt>0</asrwt>
<pdfrwt beam="1">  1        1 0.36689390E+00 0.28590995E+04</pdfrwt>
<pdfrwt beam="2">  1       -2 0.13183518E+00 0.28590995E+04</pdfrwt>
<totfact> 0.51660981E-01</totfact>
</mgrwt>
</event>
<event>
12    4  0.4207946E-008  0.1819007E+04  0.7818608E-02  0.8696257E-01
          1   -1    0    0  501    0  0.00000000000E+00  0.00000000000E+00  0.62708939369E+03  0.62708939369E+03  0.00000000000E+00 0. -1.
         -2   -1    0    0    0  501 -0.00000000000E+00 -0.00000000000E+00 -0.13191044581E+04  0.13191044581E+04  0.00000000000E+00 0.  1.
        -24    2    1    2    0    0  0.41795592595E+03  0.16895625726E+03 -0.85859154942E+03  0.97311630935E+03  0.80885906567E+02 0.  0.
        254    2    1    2    0    0 -0.41795592595E+03 -0.16895625726E+03  0.16657648505E+03  0.97307754240E+03  0.84610803403E+03 0.  0.
         23    2    4    4    0    0  0.63228785982E+02 -0.12912140769E+03  0.39570985466E+03  0.43046264854E+03  0.89674887307E+02 0.  0.
         23    2    4    4    0    0 -0.48118471193E+03 -0.39834849573E+02 -0.22913336961E+03  0.54261489386E+03  0.93825794596E+02 0.  0.
          3    1    3    3  502    0  0.45486316719E+01  0.14162445187E+02 -0.46220194635E+02  0.48554827730E+02  0.00000000000E+00 0. -1.
         -4    1    3    3    0  502  0.41340729428E+03  0.15479381207E+03 -0.81237135478E+03  0.92456148162E+03  0.00000000000E+00 0.  1.
         11    1    5    5    0    0  0.69552159663E+02 -0.40457244857E+02  0.19515108928E+03  0.21108822616E+03  0.00000000000E+00 0. -1.
        -11    1    5    5    0    0 -0.63233736810E+01 -0.88664162829E+02  0.20055876538E+03  0.21937442238E+03  0.00000000000E+00 0.  1.
          2    1    6    6  503    0 -0.47267465778E+03 -0.25951181987E+02 -0.21111533996E+03  0.51832854708E+03  0.00000000000E+00 0. -1.
         -2    1    6    6    0  503 -0.85100541539E+01 -0.13883667586E+02 -0.18018029654E+02  0.24286346780E+02  0.00000000000E+00 0.  1.
<mgrwt>
<rscale>  0 0.18190068E+04</rscale>
<asrwt>0</asrwt>
<pdfrwt beam="1">  1        1 0.96475293E-01 0.18190068E+04</pdfrwt>
<pdfrwt beam="2">  1       -2 0.20293914E+00 0.18190068E+04</pdfrwt>
<totfact> 0.33675542E+00</totfact>
</mgrwt>
</event>
<event>
12    4  0.4207946E-008  0.2651809E+04  0.7818608E-02  0.8350813E-01
         -2   -1    0    0    0  501 -0.00000000000E+00  0.00000000000E+00  0.95172005726E+03  0.95172005726E+03  0.00000000000E+00 0.  1.
          1   -1    0    0  501    0  0.00000000000E+00 -0.00000000000E+00 -0.18472055323E+04  0.18472055323E+04  0.00000000000E+00 0. -1.
        -24    2    1    2    0    0  0.10426542266E+04 -0.94651003424E+00 -0.96483449626E+03  0.14228151936E+04  0.79804372472E+02 0.  0.
        254    2    1    2    0    0 -0.10426542266E+04  0.94651003424E+00  0.69349021248E+02  0.13761103959E+04  0.89540035891E+03 0.  0.
         23    2    4    4    0    0  0.73598771939E+02  0.19946566300E+03  0.66785188750E+02  0.23862694406E+03  0.85318386337E+02 0.  0.
         23    2    4    4    0    0 -0.11162529986E+04 -0.19851915296E+03  0.25638324983E+01  0.11374834518E+04  0.91822758851E+02 0.  0.
          3    1    3    3  502    0  0.92433240794E+03  0.21057994305E+02 -0.87072977545E+03  0.12700410156E+04  0.00000000000E+00 0. -1.
         -4    1    3    3    0  502  0.11832181870E+03 -0.22004504340E+02 -0.94104720803E+02  0.15277417802E+03  0.00000000000E+00 0.  1.
         11    1    5    5    0    0  0.29156147151E+02  0.12107093705E+03 -0.31275197668E+01  0.12457140159E+03  0.00000000000E+00 0. -1.
        -11    1    5    5    0    0  0.44442624789E+02  0.78394725948E+02  0.69912708517E+02  0.11405554246E+03  0.00000000000E+00 0.  1.
          2    1    6    6  503    0 -0.13901003163E+03 -0.41508953355E+02  0.26217910201E+02  0.14742510274E+03  0.00000000000E+00 0. -1.
         -2    1    6    6    0  503 -0.97724296695E+03 -0.15701019961E+03 -0.23654077703E+02  0.99005834910E+03  0.00000000000E+00 0.  1.
<mgrwt>
<rscale>  0 0.26518089E+04</rscale>
<asrwt>0</asrwt>
<pdfrwt beam="1">  1        1 0.28418546E+00 0.26518089E+04</pdfrwt>
<pdfrwt beam="2">  1       -2 0.14641847E+00 0.26518089E+04</pdfrwt>
<totfact> 0.93114488E-01</totfact>
</mgrwt>
</event>
<event>
12    4  0.4207946E-008  0.1336117E+04  0.7818608E-02  0.9001404E-01
          1   -1    0    0  501    0  0.00000000000E+00  0.00000000000E+00  0.68132739287E+03  0.68132739287E+03  0.00000000000E+00 0. -1.
         -2   -1    0    0    0  501 -0.00000000000E+00 -0.00000000000E+00 -0.65504824500E+03  0.65504824500E+03  0.00000000000E+00 0.  1.
        -24    2    1    2    0    0 -0.27949388125E+03  0.21178940969E+03  0.76775937666E+02  0.36736949496E+03  0.78065469359E+02 0.  0.
        254    2    1    2    0    0  0.27949388125E+03 -0.21178940969E+03 -0.50496789798E+02  0.96900614291E+03  0.90191540375E+03 0.  0.
         23    2    4    4    0    0 -0.29823003595E+03  0.15258874608E+02  0.91091939058E+02  0.32592852637E+03  0.93582452139E+02 0.  0.
         23    2    4    4    0    0  0.57772391719E+03 -0.22704828430E+03 -0.14158872886E+03  0.64307761654E+03  0.90474332569E+02 0.  0.
          1    1    3    3  502    0 -0.94525649217E+02  0.51269577774E+02  0.56889437798E+02  0.12165556337E+03  0.00000000000E+00 0. -1.
         -2    1    3    3    0  502 -0.18496823203E+03  0.16051983192E+03  0.19886499868E+02  0.24571393159E+03  0.00000000000E+00 0.  1.
         11    1    5    5    0    0 -0.21621659772E+03  0.50647615951E+02  0.79431856429E+02  0.23584787035E+03  0.00000000000E+00 0.  1.
        -11    1    5    5    0    0 -0.82013438223E+02 -0.35388741343E+02  0.11660082629E+02  0.90080656025E+02  0.00000000000E+00 0. -1.
          2    1    6    6  503    0  0.11848868345E+03 -0.27809865608E+02  0.39021961776E+01  0.12177103049E+03  0.00000000000E+00 0. -1.
         -2    1    6    6    0  503  0.45923523374E+03 -0.19923841869E+03 -0.14549092503E+03  0.52130658605E+03  0.00000000000E+00 0.  1.
<mgrwt>
<rscale>  0 0.13361172E+04</rscale>
<asrwt>0</asrwt>
<pdfrwt beam="1">  1        1 0.10481960E+00 0.13361172E+04</pdfrwt>
<pdfrwt beam="2">  1       -2 0.10077665E+00 0.13361172E+04</pdfrwt>
<totfact> 0.19748864E+01</totfact>
</mgrwt>
</event>
<event>
12    4  0.4207946E-008  0.1735399E+04  0.7818608E-02  0.8741429E-01
          1   -1    0    0  501    0  0.00000000000E+00  0.00000000000E+00  0.30118994436E+04  0.30118994436E+04  0.00000000000E+00 0. -1.
         -2   -1    0    0    0  501 -0.00000000000E+00 -0.00000000000E+00 -0.24997599735E+03  0.24997599735E+03  0.00000000000E+00 0.  1.
        -24    2    1    2    0    0  0.29359945198E+03 -0.48016830167E+03  0.49140979750E+03  0.75151093515E+03  0.80764227472E+02 0.  0.
        254    2    1    2    0    0 -0.29359945198E+03  0.48016830167E+03  0.22705136488E+04  0.25103645058E+04  0.91100795096E+03 0.  0.
         23    2    4    4    0    0 -0.13603001146E+03  0.29965022798E+03  0.22237379792E+04  0.22497341110E+04  0.89434595019E+02 0.  0.
         23    2    4    4    0    0 -0.15756944052E+03  0.18051807369E+03  0.46775669599E+02  0.26063039488E+03  0.91243278943E+02 0.  0.
          3    1    3    3  502    0  0.39337324152E+02 -0.12993191595E+03  0.12045719831E+03  0.18149287721E+03  0.00000000000E+00 0. -1.
         -4    1    3    3    0  502  0.25426212783E+03 -0.35023638572E+03  0.37095259919E+03  0.57001805794E+03  0.00000000000E+00 0.  1.
         11    1    5    5    0    0 -0.11563386943E+03  0.29260113510E+03  0.21501690596E+04  0.21730654847E+04  0.00000000000E+00 0.  1.
        -11    1    5    5    0    0 -0.20396142029E+02  0.70490928797E+01  0.73568919589E+02  0.76668626240E+02  0.00000000000E+00 0. -1.
          4    1    6    6  503    0 -0.99062817910E+02  0.49275346607E+02  0.36762446305E+02  0.11658893230E+03  0.00000000000E+00 0.  1.
         -4    1    6    6    0  503 -0.58506622612E+02  0.13124272709E+03  0.10013223294E+02  0.14404146258E+03  0.00000000000E+00 0. -1.
<mgrwt>
<rscale>  0 0.17353992E+04</rscale>
<asrwt>0</asrwt>
<pdfrwt beam="1">  1        1 0.46336912E+00 0.17353992E+04</pdfrwt>
<pdfrwt beam="2">  1       -2 0.38457848E-01 0.17353992E+04</pdfrwt>
<totfact> 0.31298656E+00</totfact>
</mgrwt>
</event>
<event>
12    4  0.4207946E-008  0.1177979E+04  0.7818608E-02  0.9132353E-01
          1   -1    0    0  501    0  0.00000000000E+00  0.00000000000E+00  0.14159815321E+04  0.14159815321E+04  0.00000000000E+00 0. -1.
         -2   -1    0    0    0  501 -0.00000000000E+00 -0.00000000000E+00 -0.24499513698E+03  0.24499513698E+03  0.00000000000E+00 0.  1.
        -24    2    1    2    0    0  0.11821003901E+02  0.17789677148E+03  0.29360809618E+02  0.19724931511E+03  0.79109024353E+02 0.  0.
        254    2    1    2    0    0 -0.11821003901E+02 -0.17789677148E+03  0.11416255855E+04  0.14637273540E+04  0.89855539165E+03 0.  0.
         23    2    4    4    0    0 -0.10728764657E+03 -0.23977988034E+03  0.12509383800E+04  0.12814999124E+04  0.91597843646E+02 0.  0.
         23    2    4    4    0    0  0.95466642667E+02  0.61883108857E+02 -0.10931279448E+03  0.18222744153E+03  0.91181984988E+02 0.  0.
          1    1    3    3  502    0  0.41331265327E+02  0.88132760987E+02  0.32732064298E+02  0.10269880762E+03  0.00000000000E+00 0. -1.
         -2    1    3    3    0  502 -0.29510261427E+02  0.89764010493E+02 -0.33712546796E+01  0.94550507494E+02  0.00000000000E+00 0.  1.
         11    1    5    5    0    0 -0.39875177831E+02 -0.14964702634E+02  0.15760952999E+03  0.16326278227E+03  0.00000000000E+00 0. -1.
        -11    1    5    5    0    0 -0.67412468737E+02 -0.22481517770E+03  0.10933288500E+04  0.11182371302E+04  0.00000000000E+00 0.  1.
          1    1    6    6  503    0  0.22330348824E+02 -0.10655661323E+02  0.80989927495E+01  0.26034232855E+02  0.00000000000E+00 0. -1.
         -1    1    6    6    0  503  0.73136293843E+02  0.72538770180E+02 -0.11741178723E+03  0.15619320868E+03  0.00000000000E+00 0.  1.
<mgrwt>
<rscale>  0 0.11779789E+04</rscale>
<asrwt>0</asrwt>
<pdfrwt beam="1">  1        1 0.21784331E+00 0.11779789E+04</pdfrwt>
<pdfrwt beam="2">  1       -2 0.37691560E-01 0.11779789E+04</pdfrwt>
<totfact> 0.43232540E+01</totfact>
</mgrwt>
</event>
<event>
12    4  0.4207946E-008  0.1815617E+04  0.7818608E-02  0.8698038E-01
         -2   -1    0    0    0  501 -0.00000000000E+00  0.00000000000E+00  0.13818064203E+04  0.13818064203E+04  0.00000000000E+00 0.  1.
          1   -1    0    0  501    0  0.00000000000E+00 -0.00000000000E+00 -0.59640501828E+03  0.59640501828E+03  0.00000000000E+00 0. -1.
        -24    2    1    2    0    0  0.20542282411E+03 -0.36846977697E+02  0.10058782978E+04  0.10303893115E+04  0.79716665452E+02 0.  0.
        254    2    1    2    0    0 -0.20542282411E+03  0.36846977697E+02 -0.22047689580E+03  0.94782212711E+03  0.89788667806E+03 0.  0.
         23    2    4    4    0    0 -0.41038485785E+03 -0.47754232788E+02  0.19609824358E+03  0.46640472989E+03  0.91556827301E+02 0.  0.
         23    2    4    4    0    0  0.20496203374E+03  0.84601210486E+02 -0.41657513938E+03  0.48141739723E+03  0.95189618731E+02 0.  0.
          1    1    3    3  502    0  0.13654589993E+03 -0.57380735753E+02  0.58750129300E+03  0.60588373547E+03  0.00000000000E+00 0. -1.
         -2    1    3    3    0  502  0.68876924180E+02  0.20533758056E+02  0.41837700480E+03  0.42450557599E+03  0.00000000000E+00 0.  1.
         11    1    5    5    0    0 -0.61715079558E+02 -0.31186215222E+02  0.60671732770E+02  0.91991250791E+02  0.00000000000E+00 0.  1.
        -11    1    5    5    0    0 -0.34866977829E+03 -0.16568017566E+02  0.13542651081E+03  0.37441347910E+03  0.00000000000E+00 0. -1.
          1    1    6    6  503    0  0.11936407069E+03 -0.22063875682E+01 -0.20805358296E+03  0.23987276398E+03  0.00000000000E+00 0. -1.
         -1    1    6    6    0  503  0.85597963046E+02  0.86807598054E+02 -0.20852155642E+03  0.24154463324E+03  0.00000000000E+00 0.  1.
<mgrwt>
<rscale>  0 0.18156170E+04</rscale>
<asrwt>0</asrwt>
<pdfrwt beam="1">  1        1 0.91754618E-01 0.18156170E+04</pdfrwt>
<pdfrwt beam="2">  1       -2 0.21258560E+00 0.18156170E+04</pdfrwt>
<totfact> 0.31387071E+00</totfact>
</mgrwt>
</event>
<event>
12    4  0.4207946E-008  0.2312022E+04  0.7818608E-02  0.8473196E-01
          1   -1    0    0  501    0  0.00000000000E+00  0.00000000000E+00  0.36881310427E+04  0.36881310427E+04  0.00000000000E+00 0. -1.
         -2   -1    0    0    0  501 -0.00000000000E+00 -0.00000000000E+00 -0.36234120727E+03  0.36234120727E+03  0.00000000000E+00 0.  1.
        -24    2    1    2    0    0 -0.93821137555E+03 -0.27896355047E+03  0.13964788153E+04  0.17071899139E+04  0.79265837112E+02 0.  0.
        254    2    1    2    0    0  0.93821137555E+03  0.27896355047E+03  0.19293110201E+04  0.23432823360E+04  0.90037205991E+03 0.  0.
         23    2    4    4    0    0  0.22063073861E+03  0.11011011835E+03  0.14166755292E+04  0.14408026973E+04  0.90225809259E+02 0.  0.
         23    2    4    4    0    0  0.71758063694E+03  0.16885343212E+03  0.51263549095E+03  0.90247963871E+03  0.90779401073E+02 0.  0.
          1    1    3    3  502    0 -0.13546892411E+03 -0.69996443486E+02  0.22179382905E+03  0.26915392270E+03  0.00000000000E+00 0. -1.
         -2    1    3    3    0  502 -0.80274245144E+03 -0.20896710699E+03  0.11746849863E+04  0.14380359912E+04  0.00000000000E+00 0.  1.
         11    1    5    5    0    0  0.17804607996E+03  0.47271588510E+02  0.10871695237E+04  0.11026661249E+04  0.00000000000E+00 0. -1.
        -11    1    5    5    0    0  0.42584658657E+02  0.62838529844E+02  0.32950600547E+03  0.33813657244E+03  0.00000000000E+00 0.  1.
          4    1    6    6  503    0  0.21934380516E+02  0.18375873445E+02  0.35561096189E+02  0.45644072295E+02  0.00000000000E+00 0.  1.
         -4    1    6    6    0  503  0.69564625642E+03  0.15047755867E+03  0.47707439476E+03  0.85683556642E+03  0.00000000000E+00 0. -1.
<mgrwt>
<rscale>  0 0.23120224E+04</rscale>
<asrwt>0</asrwt>
<pdfrwt beam="1">  1        1 0.56740475E+00 0.23120224E+04</pdfrwt>
<pdfrwt beam="2">  1       -2 0.55744803E-01 0.23120224E+04</pdfrwt>
<totfact> 0.42451450E-01</totfact>
</mgrwt>
</event>
<event>
12    4  0.4207946E-008  0.1935303E+04  0.7818608E-02  0.8637481E-01
          1   -1    0    0  501    0  0.00000000000E+00  0.00000000000E+00  0.50447339493E+03  0.50447339493E+03  0.00000000000E+00 0. -1.
         -2   -1    0    0    0  501 -0.00000000000E+00 -0.00000000000E+00 -0.18560918763E+04  0.18560918763E+04  0.00000000000E+00 0.  1.
        -24    2    1    2    0    0 -0.65946776753E+03  0.32168038759E+03 -0.74481442139E+03  0.10486626761E+04  0.81048613428E+02 0.  0.
        254    2    1    2    0    0  0.65946776753E+03 -0.32168038759E+03 -0.60680405996E+03  0.13119025951E+04  0.90249722645E+03 0.  0.
         23    2    4    4    0    0 -0.21501596833E+03 -0.34457512344E+02 -0.93605492994E+02  0.25423916972E+03  0.91958579304E+02 0.  0.
         23    2    4    4    0    0  0.87448373585E+03 -0.28722287524E+03 -0.51319856696E+03  0.10576634254E+04  0.89779552126E+02 0.  0.
          1    1    3    3  502    0 -0.63803709433E+02  0.27056814783E+02 -0.10753505747E+03  0.12793268991E+03  0.00000000000E+00 0. -1.
         -2    1    3    3    0  502 -0.59566405810E+03  0.29462357280E+03 -0.63727936392E+03  0.92072998617E+03  0.00000000000E+00 0.  1.
         11    1    5    5    0    0 -0.17077877294E+03 -0.80841847984E+01 -0.10613511661E+03  0.20123470453E+03  0.00000000000E+00 0. -1.
        -11    1    5    5    0    0 -0.44237195388E+02 -0.26373327545E+02  0.12529623616E+02  0.53004465185E+02  0.00000000000E+00 0.  1.
          4    1    6    6  503    0  0.56006985856E+03 -0.15053192096E+03 -0.28843821687E+03  0.64771499184E+03  0.00000000000E+00 0. -1.
         -4    1    6    6    0  503  0.31441387729E+03 -0.13669095428E+03 -0.22476035009E+03  0.40994843357E+03  0.00000000000E+00 0.  1.
<mgrwt>
<rscale>  0 0.19353025E+04</rscale>
<asrwt>0</asrwt>
<pdfrwt beam="1">  1        1 0.77611290E-01 0.19353025E+04</pdfrwt>
<pdfrwt beam="2">  1       -2 0.28555260E+00 0.19353025E+04</pdfrwt>
<totfact> 0.13933604E+00</totfact>
</mgrwt>
</event>
<event>
12    4  0.4207946E-008  0.1645697E+04  0.7818608E-02  0.8792956E-01
         -4   -1    0    0    0  501 -0.00000000000E+00  0.00000000000E+00  0.27473410518E+03  0.27473410518E+03  0.00000000000E+00 0.  1.
          3   -1    0    0  501    0  0.00000000000E+00 -0.00000000000E+00 -0.24644918880E+04  0.24644918880E+04  0.00000000000E+00 0. -1.
        -24    2    1    2    0    0 -0.32193587268E+03 -0.46199938048E+03 -0.61948073186E+03  0.84070889395E+03  0.77129329921E+02 0.  0.
        254    2    1    2    0    0  0.32193587268E+03  0.46199938048E+03 -0.15702770509E+04  0.18985170992E+04  0.90637245412E+03 0.  0.
         23    2    4    4    0    0 -0.25763498399E+03 -0.33377527556E+02 -0.60709062847E+03  0.66658461884E+03  0.91028449327E+02 0.  0.
         23    2    4    4    0    0  0.57957085667E+03  0.49537690804E+03 -0.96318642246E+03  0.12319324803E+04  0.92891833949E+02 0.  0.
          1    1    3    3  502    0 -0.31826954354E+03 -0.46496039166E+03 -0.61613861914E+03  0.83493141404E+03  0.00000000000E+00 0. -1.
         -2    1    3    3    0  502 -0.36663291418E+01  0.29610111838E+01 -0.33421127184E+01  0.57774799030E+01  0.00000000000E+00 0.  1.
         11    1    5    5    0    0 -0.22566845676E+03 -0.12393610115E+02 -0.43401428261E+03  0.48933449854E+03  0.00000000000E+00 0. -1.
        -11    1    5    5    0    0 -0.31966527230E+02 -0.20983917441E+02 -0.17307634585E+03  0.17725012031E+03  0.00000000000E+00 0.  1.
          4    1    6    6  503    0  0.52201348890E+03  0.43645118078E+03 -0.89919352081E+03  0.11276243628E+04  0.00000000000E+00 0. -1.
         -4    1    6    6    0  503  0.57557367768E+02  0.58925727257E+02 -0.63992901644E+02  0.10430811751E+03  0.00000000000E+00 0.  1.
<mgrwt>
<rscale>  0 0.16456974E+04</rscale>
<asrwt>0</asrwt>
<pdfrwt beam="1">  1        3 0.37915259E+00 0.16456974E+04</pdfrwt>
<pdfrwt beam="2">  1       -4 0.42266787E-01 0.16456974E+04</pdfrwt>
<totfact> 0.17300442E-01</totfact>
</mgrwt>
</event>
<event>
12    4  0.4207946E-008  0.1225036E+04  0.7818608E-02  0.9091221E-01
          1   -1    0    0  501    0  0.00000000000E+00  0.00000000000E+00  0.37334258492E+03  0.37334258492E+03  0.00000000000E+00 0. -1.
         -2   -1    0    0    0  501 -0.00000000000E+00 -0.00000000000E+00 -0.10049166155E+04  0.10049166155E+04  0.00000000000E+00 0.  1.
        -24    2    1    2    0    0 -0.20669426348E+03 -0.12125055856E+03  0.27549904062E+01  0.25259147889E+03  0.79816343765E+02 0.  0.
        254    2    1    2    0    0  0.20669426348E+03  0.12125055856E+03 -0.63432902097E+03  0.11256677215E+04  0.89851560694E+03 0.  0.
         23    2    4    4    0    0  0.12157104709E+03  0.13567165654E+03 -0.85257538292E+03  0.87642569336E+03  0.89726777136E+02 0.  0.
         23    2    4    4    0    0  0.85123216383E+02 -0.14421097980E+02  0.21824636195E+03  0.24924202816E+03  0.83881965062E+02 0.  0.
          1    1    3    3  502    0 -0.16507645504E+03 -0.60425095509E+02  0.19935662796E+02  0.17691483495E+03  0.00000000000E+00 0. -1.
         -2    1    3    3    0  502 -0.41617808440E+02 -0.60825463048E+02 -0.17180672390E+02  0.75676643940E+02  0.00000000000E+00 0.  1.
         11    1    5    5    0    0  0.71508632065E+02  0.65998435527E+02 -0.25890818443E+03  0.27659126146E+03  0.00000000000E+00 0.  1.
        -11    1    5    5    0    0  0.50062415028E+02  0.69673221010E+02 -0.59366719849E+03  0.59983443189E+03  0.00000000000E+00 0. -1.
          3    1    6    6  503    0  0.77723759585E+02 -0.36699584423E+02  0.11622576875E+03  0.14455542751E+03  0.00000000000E+00 0. -1.
         -3    1    6    6    0  503  0.73994567981E+01  0.22278486443E+02  0.10202059320E+03  0.10468660065E+03  0.00000000000E+00 0.  1.
<mgrwt>
<rscale>  0 0.12250358E+04</rscale>
<asrwt>0</asrwt>
<pdfrwt beam="1">  1        1 0.57437321E-01 0.12250358E+04</pdfrwt>
<pdfrwt beam="2">  1       -2 0.15460255E+00 0.12250358E+04</pdfrwt>
<totfact> 0.15668991E+01</totfact>
</mgrwt>
</event>
<event>
12    4  0.4207946E-008  0.1379490E+04  0.7818608E-02  0.8968800E-01
          1   -1    0    0  501    0  0.00000000000E+00  0.00000000000E+00  0.17132263972E+04  0.17132263972E+04  0.00000000000E+00 0. -1.
         -2   -1    0    0    0  501 -0.00000000000E+00 -0.00000000000E+00 -0.27769120111E+03  0.27769120111E+03  0.00000000000E+00 0.  1.
        -24    2    1    2    0    0  0.22136978487E+03  0.20622502882E+03  0.80003822219E+03  0.85919288469E+03  0.81350549914E+02 0.  0.
        254    2    1    2    0    0 -0.22136978487E+03 -0.20622502882E+03  0.63549697394E+03  0.11317247137E+04  0.88623421253E+03 0.  0.
         23    2    4    4    0    0 -0.53775077966E+03 -0.22067078155E+02  0.45547197929E+03  0.71089496716E+03  0.90851931480E+02 0.  0.
         23    2    4    4    0    0  0.31638099479E+03 -0.18415795067E+03  0.18002499465E+03  0.42082974650E+03  0.10333243530E+03 0.  0.
          1    1    3    3  502    0  0.22152709503E+03  0.20457476042E+03  0.80188828331E+03  0.85670876344E+03  0.00000000000E+00 0. -1.
         -2    1    3    3    0  502 -0.15731016294E+00  0.16502683981E+01 -0.18500611188E+01  0.24841212564E+01  0.00000000000E+00 0.  1.
         11    1    5    5    0    0 -0.12494950337E+03  0.28412784818E+02  0.83553183994E+02  0.15297319794E+03  0.00000000000E+00 0. -1.
        -11    1    5    5    0    0 -0.41280127629E+03 -0.50479862973E+02  0.37191879530E+03  0.55792176922E+03  0.00000000000E+00 0.  1.
          3    1    6    6  503    0  0.14707124237E+03 -0.81066398838E+02  0.13992528616E+03  0.21858819058E+03  0.00000000000E+00 0. -1.
         -3    1    6    6    0  503  0.16930975241E+03 -0.10309155183E+03  0.40099708489E+02  0.20224155592E+03  0.00000000000E+00 0.  1.
<mgrwt>
<rscale>  0 0.13794896E+04</rscale>
<asrwt>0</asrwt>
<pdfrwt beam="1">  1        1 0.26357329E+00 0.13794896E+04</pdfrwt>
<pdfrwt beam="2">  1       -2 0.42721724E-01 0.13794896E+04</pdfrwt>
<totfact> 0.20786789E+01</totfact>
</mgrwt>
</event>
<event>
12    4  0.4207946E-008  0.1538245E+04  0.7818608E-02  0.8859411E-01
          1   -1    0    0  501    0  0.00000000000E+00  0.00000000000E+00  0.47908744179E+03  0.47908744179E+03  0.00000000000E+00 0. -1.
         -2   -1    0    0    0  501 -0.00000000000E+00 -0.00000000000E+00 -0.12347426819E+04  0.12347426819E+04  0.00000000000E+00 0.  1.
        -24    2    1    2    0    0  0.19305399164E+03 -0.45497150804E+03 -0.20407152245E+03  0.54051925240E+03  0.79037706977E+02 0.  0.
        254    2    1    2    0    0 -0.19305399164E+03  0.45497150804E+03 -0.55158371769E+03  0.11733108713E+04  0.91002466249E+03 0.  0.
         23    2    4    4    0    0 -0.34262285465E+03  0.51951698072E+03 -0.69535581773E+03  0.93765367492E+03  0.91577219127E+02 0.  0.
         23    2    4    4    0    0  0.14956886302E+03 -0.64545472678E+02  0.14377210004E+03  0.23565719640E+03  0.91252039094E+02 0.  0.
          3    1    3    3  502    0  0.11856364729E+03 -0.31671972388E+03 -0.10204568930E+03  0.35324502071E+03  0.00000000000E+00 0. -1.
         -2    1    3    3    0  502  0.74490344343E+02 -0.13825178416E+03 -0.10202583315E+03  0.18727423169E+03  0.00000000000E+00 0.  1.
         11    1    5    5    0    0 -0.16471941234E+03  0.32181904821E+03 -0.36792850931E+03  0.51582106641E+03  0.00000000000E+00 0.  1.
        -11    1    5    5    0    0 -0.17790344231E+03  0.19769793251E+03 -0.32742730841E+03  0.42183260851E+03  0.00000000000E+00 0. -1.
          3    1    6    6  503    0  0.80311410850E+02  0.14515480656E+02  0.63062164603E+02  0.10313805552E+03  0.00000000000E+00 0. -1.
         -3    1    6    6    0  503  0.69257452167E+02 -0.79060953334E+02  0.80709935437E+02  0.13251914089E+03  0.00000000000E+00 0.  1.
<mgrwt>
<rscale>  0 0.15382454E+04</rscale>
<asrwt>0</asrwt>
<pdfrwt beam="1">  1        1 0.73705760E-01 0.15382454E+04</pdfrwt>
<pdfrwt beam="2">  1       -2 0.18996041E+00 0.15382454E+04</pdfrwt>
<totfact> 0.61428935E+00</totfact>
</mgrwt>
</event>
<event>
12    4  0.4207946E-008  0.1330719E+04  0.7818608E-02  0.9005553E-01
          1   -1    0    0  501    0  0.00000000000E+00  0.00000000000E+00  0.60925533745E+03  0.60925533745E+03  0.00000000000E+00 0. -1.
         -2   -1    0    0    0  501 -0.00000000000E+00 -0.00000000000E+00 -0.72662984215E+03  0.72662984215E+03  0.00000000000E+00 0.  1.
        -24    2    1    2    0    0  0.20434568227E+03 -0.77631992275E+02  0.24005279903E+03  0.33342629370E+03  0.75920108824E+02 0.  0.
        254    2    1    2    0    0 -0.20434568227E+03  0.77631992275E+02 -0.35742730374E+03  0.10024588859E+04  0.91070613063E+03 0.  0.
         23    2    4    4    0    0  0.69522851142E+02  0.40911172708E+03  0.16952033781E+02  0.42506221115E+03  0.90469220364E+02 0.  0.
         23    2    4    4    0    0 -0.27386853341E+03 -0.33147973481E+03 -0.37437933752E+03  0.57739667474E+03  0.91346830608E+02 0.  0.
          3    1    3    3  502    0  0.19739472703E+03 -0.58117969897E+02  0.19345232712E+03  0.28242906995E+03  0.00000000000E+00 0. -1.
         -4    1    3    3    0  502  0.69509552339E+01 -0.19514022378E+02  0.46600471911E+02  0.50997223752E+02  0.00000000000E+00 0.  1.
         11    1    5    5    0    0 -0.12171683559E+02  0.14157561581E+03  0.29183361334E+02  0.14506368757E+03  0.00000000000E+00 0. -1.
        -11    1    5    5    0    0  0.81694534701E+02  0.26753611128E+03 -0.12231327553E+02  0.27999852359E+03  0.00000000000E+00 0.  1.
          2    1    6    6  503    0 -0.54026204726E+02 -0.81394712646E+02 -0.13786792710E+03  0.16897187744E+03  0.00000000000E+00 0. -1.
         -2    1    6    6    0  503 -0.21984232868E+03 -0.25008502216E+03 -0.23651141042E+03  0.40842479730E+03  0.00000000000E+00 0.  1.
<mgrwt>
<rscale>  0 0.13307188E+04</rscale>
<asrwt>0</asrwt>
<pdfrwt beam="1">  1        1 0.93731590E-01 0.13307188E+04</pdfrwt>
<pdfrwt beam="2">  1       -2 0.11178921E+00 0.13307188E+04</pdfrwt>
<totfact> 0.18152833E+01</totfact>
</mgrwt>
</event>
<event>
12    4  0.4207946E-008  0.1233282E+04  0.7818608E-02  0.9084214E-01
          1   -1    0    0  501    0  0.00000000000E+00  0.00000000000E+00  0.16781334152E+04  0.16781334152E+04  0.00000000000E+00 0. -1.
         -2   -1    0    0    0  501 -0.00000000000E+00 -0.00000000000E+00 -0.22658873231E+03  0.22658873231E+03  0.00000000000E+00 0.  1.
        -24    2    1    2    0    0  0.16594170653E+03  0.70207754762E+02  0.68683712654E+03  0.71478217409E+03  0.81869036941E+02 0.  0.
        254    2    1    2    0    0 -0.16594170653E+03 -0.70207754762E+02  0.76470755639E+03  0.11899399735E+04  0.89370784646E+03 0.  0.
         23    2    4    4    0    0 -0.41246226069E+03  0.18556239782E+03  0.17071103945E+03  0.49182360405E+03  0.90496842699E+02 0.  0.
         23    2    4    4    0    0  0.24652055416E+03 -0.25577015258E+03  0.59399651694E+03  0.69811636940E+03  0.91344668809E+02 0.  0.
          3    1    3    3  502    0  0.11921432192E+03  0.72297406156E+01  0.42293018215E+03  0.43947043436E+03  0.00000000000E+00 0. -1.
         -4    1    3    3    0  502  0.46727384611E+02  0.62978014146E+02  0.26390694439E+03  0.27531173973E+03  0.00000000000E+00 0.  1.
         11    1    5    5    0    0 -0.41496808788E+03  0.18566624325E+03  0.17477419697E+03  0.48704875297E+03  0.00000000000E+00 0. -1.
        -11    1    5    5    0    0  0.25058271973E+01 -0.10384543372E+00 -0.40631575192E+01  0.47748510807E+01  0.00000000000E+00 0.  1.
          1    1    6    6  503    0  0.18877954462E+03 -0.23942532595E+03  0.52056755523E+03  0.60328499296E+03  0.00000000000E+00 0. -1.
         -1    1    6    6    0  503  0.57741009540E+02 -0.16344826623E+02  0.73428961713E+02  0.94831376444E+02  0.00000000000E+00 0.  1.
<mgrwt>
<rscale>  0 0.12332820E+04</rscale>
<asrwt>0</asrwt>
<pdfrwt beam="1">  1        1 0.25817436E+00 0.12332820E+04</pdfrwt>
<pdfrwt beam="2">  1       -2 0.34859806E-01 0.12332820E+04</pdfrwt>
<totfact> 0.33007673E+01</totfact>
</mgrwt>
</event>
<event>
12    4  0.4207946E-008  0.1919799E+04  0.7818608E-02  0.8645064E-01
          1   -1    0    0  501    0  0.00000000000E+00  0.00000000000E+00  0.12911059619E+04  0.12911059619E+04  0.00000000000E+00 0. -1.
         -2   -1    0    0    0  501 -0.00000000000E+00 -0.00000000000E+00 -0.71365708510E+03  0.71365708510E+03  0.00000000000E+00 0.  1.
        -24    2    1    2    0    0 -0.56759928279E+03 -0.15532159836E+03 -0.25659999649E+03  0.64689757182E+03  0.79618876398E+02 0.  0.
        254    2    1    2    0    0  0.56759928279E+03  0.15532159836E+03  0.83404887329E+03  0.13578654752E+04  0.89547048018E+03 0.  0.
         23    2    4    4    0    0  0.28882274386E+03  0.81434747193E+02 -0.13641858021E+03  0.34126067464E+03  0.88309816023E+02 0.  0.
         23    2    4    4    0    0  0.27877653894E+03  0.73886851164E+02  0.97046745350E+03  0.10166048005E+04  0.92209634717E+02 0.  0.
          1    1    3    3  502    0 -0.17107773733E+03 -0.80619266347E+02 -0.10132570677E+03  0.21455525435E+03  0.00000000000E+00 0. -1.
         -2    1    3    3    0  502 -0.39652154547E+03 -0.74702332010E+02 -0.15527428972E+03  0.43234231747E+03  0.00000000000E+00 0.  1.
         11    1    5    5    0    0  0.32655420786E+02 -0.15099860574E+02 -0.13573076499E+01  0.36003119033E+02  0.00000000000E+00 0.  1.
        -11    1    5    5    0    0  0.25616732307E+03  0.96534607768E+02 -0.13506127256E+03  0.30525755560E+03  0.00000000000E+00 0. -1.
          3    1    6    6  503    0  0.25408646743E+03  0.93075574044E+02  0.89182387356E+03  0.93197254083E+03  0.00000000000E+00 0. -1.
         -3    1    6    6    0  503  0.24690071510E+02 -0.19188722880E+02  0.78643579939E+02  0.84632259704E+02  0.00000000000E+00 0.  1.
<mgrwt>
<rscale>  0 0.19197989E+04</rscale>
<asrwt>0</asrwt>
<pdfrwt beam="1">  1        1 0.19863169E+00 0.19197989E+04</pdfrwt>
<pdfrwt beam="2">  1       -2 0.10979340E+00 0.19197989E+04</pdfrwt>
<totfact> 0.49649620E+00</totfact>
</mgrwt>
</event>
<event>
12    4  0.4207946E-008  0.1876831E+04  0.7818608E-02  0.8666476E-01
          1   -1    0    0  501    0  0.00000000000E+00  0.00000000000E+00  0.16978694564E+04  0.16978694564E+04  0.00000000000E+00 0. -1.
         -2   -1    0    0    0  501 -0.00000000000E+00 -0.00000000000E+00 -0.51866399730E+03  0.51866399730E+03  0.00000000000E+00 0.  1.
        -24    2    1    2    0    0 -0.65139564393E+03 -0.35524212288E+02  0.32929962317E+02  0.65779807955E+03  0.77689616136E+02 0.  0.
        254    2    1    2    0    0  0.65139564393E+03  0.35524212288E+02  0.11462754968E+04  0.15587353742E+04  0.83074075229E+03 0.  0.
         23    2    4    4    0    0  0.81348737718E+03 -0.73164262377E+02  0.10179654871E+04  0.13083886773E+04  0.92263078998E+02 0.  0.
         23    2    4    4    0    0 -0.16209173326E+03  0.10868847467E+03  0.12831000970E+03  0.25034669689E+03  0.90128217234E+02 0.  0.
          1    1    3    3  502    0 -0.53524846756E+03 -0.19875844223E+02 -0.16026446474E+01  0.53561977155E+03  0.00000000000E+00 0. -1.
         -2    1    3    3    0  502 -0.11614717637E+03 -0.15648368065E+02  0.34532606965E+02  0.12217830800E+03  0.00000000000E+00 0.  1.
         11    1    5    5    0    0  0.33791029194E+03 -0.71659296663E+01  0.48361834061E+03  0.59001814830E+03  0.00000000000E+00 0. -1.
        -11    1    5    5    0    0  0.47557708524E+03 -0.65998332711E+02  0.53434714652E+03  0.71837052899E+03  0.00000000000E+00 0.  1.
          4    1    6    6  503    0 -0.83984631134E+02  0.53389574918E+02  0.12792877618E+02  0.10033704547E+03  0.00000000000E+00 0.  1.
         -4    1    6    6    0  503 -0.78107102122E+02  0.55298899747E+02  0.11551713208E+03  0.15000965142E+03  0.00000000000E+00 0. -1.
<mgrwt>
<rscale>  0 0.18768311E+04</rscale>
<asrwt>0</asrwt>
<pdfrwt beam="1">  1        1 0.26121068E+00 0.18768311E+04</pdfrwt>
<pdfrwt beam="2">  1       -2 0.79794462E-01 0.18768311E+04</pdfrwt>
<totfact> 0.54712466E+00</totfact>
</mgrwt>
</event>
<event>
12    4  0.4207946E-008  0.1880833E+04  0.7818608E-02  0.8664456E-01
         -2   -1    0    0    0  501 -0.00000000000E+00  0.00000000000E+00  0.54278886409E+03  0.54278886409E+03  0.00000000000E+00 0.  1.
          1   -1    0    0  501    0  0.00000000000E+00 -0.00000000000E+00 -0.16293319293E+04  0.16293319293E+04  0.00000000000E+00 0. -1.
        -24    2    1    2    0    0 -0.23920235138E+03 -0.62993229033E+03 -0.70925428393E+03  0.98168591232E+03  0.81444065878E+02 0.  0.
        254    2    1    2    0    0  0.23920235138E+03  0.62993229033E+03 -0.37728878127E+03  0.11904348811E+04  0.90595580813E+03 0.  0.
         23    2    4    4    0    0 -0.19096334448E+03 -0.71579959134E+02  0.87748147087E+02  0.24072092438E+03  0.93038361075E+02 0.  0.
         23    2    4    4    0    0  0.43016569586E+03  0.70151224946E+03 -0.46503692836E+03  0.94971395669E+03  0.92386648123E+02 0.  0.
          3    1    3    3  502    0 -0.21859442120E+03 -0.55188971680E+03 -0.58431362415E+03  0.83293948871E+03  0.00000000000E+00 0. -1.
         -4    1    3    3    0  502 -0.20607930180E+02 -0.78042573528E+02 -0.12494065978E+03  0.14874642361E+03  0.00000000000E+00 0.  1.
         11    1    5    5    0    0 -0.35302750059E+02  0.22798024051E+02  0.19245690428E+02  0.46221538945E+02  0.00000000000E+00 0.  1.
        -11    1    5    5    0    0 -0.15566059442E+03 -0.94377983185E+02  0.68502456659E+02  0.19449938543E+03  0.00000000000E+00 0. -1.
          1    1    6    6  503    0  0.37348266317E+03  0.56418726747E+03 -0.34969535909E+03  0.76163207432E+03  0.00000000000E+00 0. -1.
         -1    1    6    6    0  503  0.56683032690E+02  0.13732498199E+03 -0.11534156927E+03  0.18808188237E+03  0.00000000000E+00 0.  1.
<mgrwt>
<rscale>  0 0.18808330E+04</rscale>
<asrwt>0</asrwt>
<pdfrwt beam="1">  1        1 0.25066645E+00 0.18808330E+04</pdfrwt>
<pdfrwt beam="2">  1       -2 0.83505979E-01 0.18808330E+04</pdfrwt>
<totfact> 0.54974838E+00</totfact>
</mgrwt>
</event>
<event>
12    4  0.4207946E-008  0.1730861E+04  0.7818608E-02  0.8743956E-01
          1   -1    0    0  501    0  0.00000000000E+00  0.00000000000E+00  0.17630319692E+04  0.17630319692E+04  0.00000000000E+00 0. -1.
         -2   -1    0    0    0  501 -0.00000000000E+00 -0.00000000000E+00 -0.42481917538E+03  0.42481917538E+03  0.00000000000E+00 0.  1.
        -24    2    1    2    0    0  0.84697011320E+02 -0.31279773176E+03 -0.18869774988E+03  0.38339227571E+03  0.79792177233E+02 0.  0.
        254    2    1    2    0    0 -0.84697011320E+02  0.31279773176E+03  0.15269105437E+04  0.18044588688E+04  0.90531762173E+03 0.  0.
         23    2    4    4    0    0 -0.40603602836E+03  0.22004720957E+03  0.37534201706E+03  0.60188236907E+03  0.89970693385E+02 0.  0.
         23    2    4    4    0    0  0.32133901704E+03  0.92750522187E+02  0.11515685266E+04  0.12025764997E+04  0.90657283471E+02 0.  0.
          3    1    3    3  502    0  0.18002173587E+02 -0.58191466651E+02 -0.24479595592E+01  0.60961607188E+02  0.00000000000E+00 0. -1.
         -4    1    3    3    0  502  0.66694837732E+02 -0.25460626511E+03 -0.18624979032E+03  0.32243066853E+03  0.00000000000E+00 0.  1.
         11    1    5    5    0    0 -0.20351495246E+03  0.15900469336E+03  0.18966398978E+03  0.32042668023E+03  0.00000000000E+00 0. -1.
        -11    1    5    5    0    0 -0.20252107590E+03  0.61042516217E+02  0.18567802728E+03  0.28145568885E+03  0.00000000000E+00 0.  1.
          2    1    6    6  503    0  0.84047685202E+02  0.18442072249E+02  0.45234061191E+03  0.46045211760E+03  0.00000000000E+00 0. -1.
         -2    1    6    6    0  503  0.23729133184E+03  0.74308449938E+02  0.69922791469E+03  0.74212438215E+03  0.00000000000E+00 0.  1.
<mgrwt>
<rscale>  0 0.17308608E+04</rscale>
<asrwt>0</asrwt>
<pdfrwt beam="1">  1        1 0.27123568E+00 0.17308608E+04</pdfrwt>
<pdfrwt beam="2">  1       -2 0.65356797E-01 0.17308608E+04</pdfrwt>
<totfact> 0.77605417E+00</totfact>
</mgrwt>
</event>
<event>
12    4  0.4207946E-008  0.1497455E+04  0.7818608E-02  0.8886147E-01
          1   -1    0    0  501    0  0.00000000000E+00  0.00000000000E+00  0.13247437382E+04  0.13247437382E+04  0.00000000000E+00 0. -1.
         -2   -1    0    0    0  501 -0.00000000000E+00 -0.00000000000E+00 -0.42317083338E+03  0.42317083338E+03  0.00000000000E+00 0.  1.
        -24    2    1    2    0    0 -0.23547152930E+03  0.19834567919E+03  0.72994560820E+03  0.79622747494E+03  0.79810722015E+02 0.  0.
        254    2    1    2    0    0  0.23547152930E+03 -0.19834567919E+03  0.17162729664E+03  0.95168709666E+03  0.88400483677E+03 0.  0.
         23    2    4    4    0    0  0.35797673674E+03  0.10796268448E+03 -0.21129357126E+03  0.43876927813E+03  0.89834408140E+02 0.  0.
         23    2    4    4    0    0 -0.12250520744E+03 -0.30630836368E+03  0.38292086790E+03  0.51291781853E+03  0.87315279193E+02 0.  0.
          3    1    3    3  502    0 -0.20039597063E+03  0.18318883633E+03  0.56413430400E+03  0.62607044951E+03  0.00000000000E+00 0. -1.
         -4    1    3    3    0  502 -0.35075558667E+02  0.15156842868E+02  0.16581130421E+03  0.17015702543E+03  0.00000000000E+00 0.  1.
         11    1    5    5    0    0  0.17613971528E+03  0.12560072538E+02 -0.72345493406E+02  0.19083192903E+03  0.00000000000E+00 0.  1.
        -11    1    5    5    0    0  0.18183702146E+03  0.95402611943E+02 -0.13894807785E+03  0.24793734910E+03  0.00000000000E+00 0. -1.
          3    1    6    6  503    0 -0.61647851009E+02 -0.22882787136E+03  0.22499953565E+03  0.32678348075E+03  0.00000000000E+00 0. -1.
         -3    1    6    6    0  503 -0.60857356435E+02 -0.77480492314E+02  0.15792133225E+03  0.18613433778E+03  0.00000000000E+00 0.  1.
<mgrwt>
<rscale>  0 0.14974551E+04</rscale>
<asrwt>0</asrwt>
<pdfrwt beam="1">  1        1 0.20380673E+00 0.14974551E+04</pdfrwt>
<pdfrwt beam="2">  1       -2 0.65103206E-01 0.14974551E+04</pdfrwt>
<totfact> 0.16038273E+01</totfact>
</mgrwt>
</event>
<event>
12    4  0.4207946E-008  0.2782562E+04  0.7818608E-02  0.8308703E-01
         -4   -1    0    0    0  501 -0.00000000000E+00  0.00000000000E+00  0.69333433017E+03  0.69333433017E+03  0.00000000000E+00 0.  1.
          1   -1    0    0  501    0  0.00000000000E+00 -0.00000000000E+00 -0.27918183423E+04  0.27918183423E+04  0.00000000000E+00 0. -1.
        -24    2    1    2    0    0 -0.21057503978E+03  0.11087675767E+04 -0.29042560519E+03  0.11680936942E+04  0.79927841304E+02 0.  0.
        254    2    1    2    0    0  0.21057503978E+03 -0.11087675767E+04 -0.18080584069E+04  0.23170589782E+04  0.90883426381E+03 0.  0.
         23    2    4    4    0    0 -0.28919925224E+03 -0.59658978653E+03 -0.54827423366E+03  0.86537309804E+03  0.93329430658E+02 0.  0.
         23    2    4    4    0    0  0.49977429202E+03 -0.51217779019E+03 -0.12597841732E+04  0.14516858801E+04  0.90748552316E+02 0.  0.
          3    1    3    3  502    0 -0.99122873292E+02  0.32991924937E+03 -0.79910805582E+02  0.35363511132E+03  0.00000000000E+00 0. -1.
         -4    1    3    3    0  502 -0.11145216649E+03  0.77884832735E+03 -0.21051479961E+03  0.81445858292E+03  0.00000000000E+00 0.  1.
         11    1    5    5    0    0 -0.15279343388E+03 -0.21157929477E+03 -0.22046739950E+03  0.34163943809E+03  0.00000000000E+00 0.  1.
        -11    1    5    5    0    0 -0.13640581836E+03 -0.38501049176E+03 -0.32780683416E+03  0.52373365996E+03  0.00000000000E+00 0. -1.
          3    1    6    6  503    0  0.31362566753E+02 -0.67660617667E+02 -0.15524406672E+03  0.17222743692E+03  0.00000000000E+00 0. -1.
         -3    1    6    6    0  503  0.46841172527E+03 -0.44451717252E+03 -0.11045401065E+04  0.12794584432E+04  0.00000000000E+00 0.  1.
<mgrwt>
<rscale>  0 0.27825625E+04</rscale>
<asrwt>0</asrwt>
<pdfrwt beam="1">  1        1 0.42951052E+00 0.27825625E+04</pdfrwt>
<pdfrwt beam="2">  1       -4 0.10666682E+00 0.27825625E+04</pdfrwt>
<totfact> 0.25561649E-01</totfact>
</mgrwt>
</event>
<event>
12    4  0.4207946E-008  0.1311018E+04  0.7818608E-02  0.9020873E-01
          1   -1    0    0  501    0  0.00000000000E+00  0.00000000000E+00  0.35415363700E+04  0.35415363700E+04  0.00000000000E+00 0. -1.
         -2   -1    0    0    0  501 -0.00000000000E+00 -0.00000000000E+00 -0.12132935148E+03  0.12132935148E+03  0.00000000000E+00 0.  1.
        -24    2    1    2    0    0 -0.28076143775E+03 -0.12247395825E+03  0.42675373359E+03  0.53100826425E+03  0.77615540973E+02 0.  0.
        254    2    1    2    0    0  0.28076143775E+03  0.12247395825E+03  0.29934532849E+04  0.31318574572E+04  0.86829816765E+03 0.  0.
         23    2    4    4    0    0  0.32967501001E+03  0.41968490791E+03  0.12839524567E+04  0.13935414924E+04  0.92752066933E+02 0.  0.
         23    2    4    4    0    0 -0.48913572267E+02 -0.29721094966E+03  0.17095008282E+04  0.17383159648E+04  0.92857016800E+02 0.  0.
          1    1    3    3  502    0 -0.21142707708E+03 -0.10560984255E+03  0.37341456985E+03  0.44192000265E+03  0.00000000000E+00 0. -1.
         -2    1    3    3    0  502 -0.69334360666E+02 -0.16864115702E+02  0.53339163735E+02  0.89088261602E+02  0.00000000000E+00 0.  1.
         11    1    5    5    0    0  0.30398545363E+03  0.34304259570E+03  0.11352963465E+04  0.12243296830E+04  0.00000000000E+00 0. -1.
        -11    1    5    5    0    0  0.25689556387E+02  0.76642312213E+02  0.14865611025E+03  0.16921180941E+03  0.00000000000E+00 0.  1.
          4    1    6    6  503    0 -0.76797517597E+02 -0.22709559564E+03  0.12939491618E+04  0.13159691111E+04  0.00000000000E+00 0. -1.
         -4    1    6    6    0  503  0.27883945330E+02 -0.70115354022E+02  0.41555166644E+03  0.42234685361E+03  0.00000000000E+00 0.  1.
<mgrwt>
<rscale>  0 0.13110184E+04</rscale>
<asrwt>0</asrwt>
<pdfrwt beam="1">  1        1 0.54485167E+00 0.13110184E+04</pdfrwt>
<pdfrwt beam="2">  1       -2 0.18666057E-01 0.13110184E+04</pdfrwt>
<totfact> 0.49054287E+00</totfact>
</mgrwt>
</event>
<event>
12    4  0.4207946E-008  0.1125652E+04  0.7818608E-02  0.9180544E-01
         -2   -1    0    0    0  501 -0.00000000000E+00  0.00000000000E+00  0.18767444260E+04  0.18767444260E+04  0.00000000000E+00 0.  1.
          3   -1    0    0  501    0  0.00000000000E+00 -0.00000000000E+00 -0.16878865650E+03  0.16878865650E+03  0.00000000000E+00 0. -1.
        -24    2    1    2    0    0  0.42340300465E+02  0.13986624538E+03  0.94829803577E+02  0.19177448060E+03  0.80184113902E+02 0.  0.
        254    2    1    2    0    0 -0.42340300465E+02 -0.13986624538E+03  0.16131259659E+04  0.18537586019E+04  0.90160429487E+03 0.  0.
         23    2    4    4    0    0  0.40627983634E+03  0.14393035556E+02  0.89598829945E+03  0.98913812007E+03  0.10163032495E+03 0.  0.
         23    2    4    4    0    0 -0.44862013680E+03 -0.15425928093E+03  0.71713766647E+03  0.86462048181E+03  0.90698357252E+02 0.  0.
          3    1    3    3  502    0  0.51256801879E+02  0.12424600551E+03  0.49881863123E+02  0.14336153561E+03  0.00000000000E+00 0. -1.
         -4    1    3    3    0  502 -0.89165014139E+01  0.15620239864E+02  0.44947940454E+02  0.48412944983E+02  0.00000000000E+00 0.  1.
         11    1    5    5    0    0  0.10625339596E+02 -0.14710112967E+02  0.17436685070E+02  0.25165914473E+02  0.00000000000E+00 0.  1.
        -11    1    5    5    0    0  0.39565449674E+03  0.29103148523E+02  0.87855161438E+03  0.96397220560E+03  0.00000000000E+00 0. -1.
          3    1    6    6  503    0 -0.42363552351E+03 -0.13911983631E+03  0.62351422217E+03  0.76654508731E+03  0.00000000000E+00 0. -1.
         -3    1    6    6    0  503 -0.24984613294E+02 -0.15139444626E+02  0.93623444294E+02  0.98075394501E+02  0.00000000000E+00 0.  1.
<mgrwt>
<rscale>  0 0.11256521E+04</rscale>
<asrwt>0</asrwt>
<pdfrwt beam="1">  1        3 0.25967487E-01 0.11256521E+04</pdfrwt>
<pdfrwt beam="2">  1       -2 0.28872990E+00 0.11256521E+04</pdfrwt>
<totfact> 0.22492132E+00</totfact>
</mgrwt>
</event>
<event>
12    4  0.4207946E-008  0.2045550E+04  0.7818608E-02  0.8585616E-01
          1   -1    0    0  501    0  0.00000000000E+00  0.00000000000E+00  0.81261555979E+03  0.81261555979E+03  0.00000000000E+00 0. -1.
         -2   -1    0    0    0  501 -0.00000000000E+00 -0.00000000000E+00 -0.12872856617E+04  0.12872856617E+04  0.00000000000E+00 0.  1.
        -24    2    1    2    0    0  0.26309794350E+02  0.37834747916E+03  0.55541162173E+03  0.67743929188E+03  0.81258257224E+02 0.  0.
        254    2    1    2    0    0 -0.26309794350E+02 -0.37834747916E+03 -0.10300817236E+04  0.14224619296E+04  0.90470468303E+03 0.  0.
         23    2    4    4    0    0  0.20434343824E+03  0.63915352128E+02  0.45036595610E+02  0.23371369592E+03  0.82172889255E+02 0.  0.
         23    2    4    4    0    0 -0.23065323259E+03 -0.44226283129E+03 -0.10751183192E+04  0.11887482336E+04  0.91900147132E+02 0.  0.
          3    1    3    3  502    0  0.14547856141E+02  0.37434743225E+03  0.52864357733E+03  0.64792875535E+03  0.00000000000E+00 0. -1.
         -4    1    3    3    0  502  0.11761938209E+02  0.40000469101E+01  0.26768044397E+02  0.29510536534E+02  0.00000000000E+00 0.  1.
         11    1    5    5    0    0 -0.17927977033E+01  0.15525471649E+02 -0.44860666381E+01  0.16259741308E+02  0.00000000000E+00 0. -1.
        -11    1    5    5    0    0  0.20613623594E+03  0.48389880479E+02  0.49522662248E+02  0.21745395461E+03  0.00000000000E+00 0.  1.
          1    1    6    6  503    0 -0.75039712999E+02 -0.11041173298E+03 -0.20562695454E+03  0.24516148503E+03  0.00000000000E+00 0. -1.
         -1    1    6    6    0  503 -0.15561351959E+03 -0.33185109831E+03 -0.86949136467E+03  0.94358674862E+03  0.00000000000E+00 0.  1.
<mgrwt>
<rscale>  0 0.20455497E+04</rscale>
<asrwt>0</asrwt>
<pdfrwt beam="1">  1        1 0.12501778E+00 0.20455497E+04</pdfrwt>
<pdfrwt beam="2">  1       -2 0.19804395E+00 0.20455497E+04</pdfrwt>
<totfact> 0.23903570E+00</totfact>
</mgrwt>
</event>
<event>
12    4  0.4207946E-008  0.1977919E+04  0.7818608E-02  0.8617014E-01
          1   -1    0    0  501    0  0.00000000000E+00  0.00000000000E+00  0.14634438639E+04  0.14634438639E+04  0.00000000000E+00 0. -1.
         -2   -1    0    0    0  501 -0.00000000000E+00 -0.00000000000E+00 -0.66831489534E+03  0.66831489534E+03  0.00000000000E+00 0.  1.
        -24    2    1    2    0    0  0.68556944869E+03 -0.30420689868E+03  0.67785256929E+02  0.75666161675E+03  0.73448315278E+02 0.  0.
        254    2    1    2    0    0 -0.68556944869E+03  0.30420689868E+03  0.72734371163E+03  0.13750971425E+04  0.89404472496E+03 0.  0.
         23    2    4    4    0    0 -0.33612391972E+02  0.32920872656E+03 -0.59878782549E+02  0.34876071038E+03  0.92414208688E+02 0.  0.
         23    2    4    4    0    0 -0.65195705672E+03 -0.25001827876E+02  0.78722249418E+03  0.10263364321E+04  0.89297935714E+02 0.  0.
          3    1    3    3  502    0  0.19337801213E+03 -0.81062734474E+02  0.51932092311E+02  0.21601658433E+03  0.00000000000E+00 0. -1.
         -4    1    3    3    0  502  0.49219143656E+03 -0.22314416421E+03  0.15853164618E+02  0.54064503241E+03  0.00000000000E+00 0.  1.
         11    1    5    5    0    0 -0.61536944561E+02  0.27635847608E+03 -0.41024013890E+02  0.28608350628E+03  0.00000000000E+00 0. -1.
        -11    1    5    5    0    0  0.27924552589E+02  0.52850250480E+02 -0.18854768659E+02  0.62677204104E+02  0.00000000000E+00 0.  1.
          2    1    6    6  503    0 -0.53641232173E+03 -0.83379519852E+01  0.69255156087E+03  0.87603388337E+03  0.00000000000E+00 0. -1.
         -2    1    6    6    0  503 -0.11554473499E+03 -0.16663875890E+02  0.94670933313E+02  0.15030254874E+03  0.00000000000E+00 0.  1.
<mgrwt>
<rscale>  0 0.19779194E+04</rscale>
<asrwt>0</asrwt>
<pdfrwt beam="1">  1        1 0.22514521E+00 0.19779194E+04</pdfrwt>
<pdfrwt beam="2">  1       -2 0.10281768E+00 0.19779194E+04</pdfrwt>
<totfact> 0.43737770E+00</totfact>
</mgrwt>
</event>
<event>
12    4  0.4207946E-008  0.1312280E+04  0.7818608E-02  0.9019883E-01
         -2   -1    0    0    0  501 -0.00000000000E+00  0.00000000000E+00  0.12269227191E+04  0.12269227191E+04  0.00000000000E+00 0.  1.
          1   -1    0    0  501    0  0.00000000000E+00 -0.00000000000E+00 -0.35089412261E+03  0.35089412261E+03  0.00000000000E+00 0. -1.
        -24    2    1    2    0    0  0.11691628668E+03  0.27649692485E+03  0.43940535231E+03  0.53749196002E+03  0.75502158287E+02 0.  0.
        254    2    1    2    0    0 -0.11691628668E+03 -0.27649692485E+03  0.43662324419E+03  0.10403248817E+04  0.89527427896E+03 0.  0.
         23    2    4    4    0    0 -0.20322841379E+03  0.21623892582E+03 -0.73895311570E+02  0.31967145837E+03  0.93103506986E+02 0.  0.
         23    2    4    4    0    0  0.86312127116E+02 -0.49273585067E+03  0.51051855576E+03  0.72065342332E+03  0.92053022468E+02 0.  0.
          1    1    3    3  502    0  0.11362940867E+02  0.38180942940E+02  0.22320559036E+02  0.45662984841E+02  0.00000000000E+00 0. -1.
         -4    1    3    3    0  502  0.10555334581E+03  0.23831598191E+03  0.41708479328E+03  0.49182897518E+03  0.00000000000E+00 0.  1.
         11    1    5    5    0    0 -0.20037233638E+03  0.17212606366E+03 -0.48117008631E+02  0.26849897858E+03  0.00000000000E+00 0.  1.
        -11    1    5    5    0    0 -0.28560774150E+01  0.44112862156E+02 -0.25778302939E+02  0.51172479794E+02  0.00000000000E+00 0. -1.
          1    1    6    6  503    0  0.37959572550E+02 -0.34701834243E+03  0.40325880990E+03  0.53336697206E+03  0.00000000000E+00 0. -1.
         -1    1    6    6    0  503  0.48352554566E+02 -0.14571750825E+03  0.10725974586E+03  0.18728645126E+03  0.00000000000E+00 0.  1.
<mgrwt>
<rscale>  0 0.13122804E+04</rscale>
<asrwt>0</asrwt>
<pdfrwt beam="1">  1        1 0.53983712E-01 0.13122804E+04</pdfrwt>
<pdfrwt beam="2">  1       -2 0.18875734E+00 0.13122804E+04</pdfrwt>
<totfact> 0.96596068E+00</totfact>
</mgrwt>
</event>
<event>
12    4  0.4207946E-008  0.1290184E+04  0.7818608E-02  0.9037386E-01
         -2   -1    0    0    0  501 -0.00000000000E+00  0.00000000000E+00  0.81329381349E+03  0.81329381349E+03  0.00000000000E+00 0.  1.
          1   -1    0    0  501    0  0.00000000000E+00 -0.00000000000E+00 -0.51167676552E+03  0.51167676552E+03  0.00000000000E+00 0. -1.
        -24    2    1    2    0    0 -0.14843597074E+03 -0.28204886295E+03  0.10943151795E+03  0.34572912881E+03  0.77256552392E+02 0.  0.
        254    2    1    2    0    0  0.14843597074E+03  0.28204886295E+03  0.19218553001E+03  0.97924145020E+03  0.90575589501E+03 0.  0.
         23    2    4    4    0    0 -0.29538576721E+03  0.38596529115E+03  0.92406806987E+02  0.50294312930E+03  0.90503126426E+02 0.  0.
         23    2    4    4    0    0  0.44382173795E+03 -0.10391642820E+03  0.99778723026E+02  0.47629832090E+03  0.95540241761E+02 0.  0.
          3    1    3    3  502    0 -0.67699900418E+02 -0.56679801904E+02  0.35692703767E+02  0.95235736794E+02  0.00000000000E+00 0. -1.
         -4    1    3    3    0  502 -0.80736070324E+02 -0.22536906105E+03  0.73738814186E+02  0.25049339202E+03  0.00000000000E+00 0.  1.
         11    1    5    5    0    0 -0.21529077733E+03  0.33691420551E+03  0.84751673275E+02  0.40871034584E+03  0.00000000000E+00 0.  1.
        -11    1    5    5    0    0 -0.80094989877E+02  0.49051085641E+02  0.76551337127E+01  0.94232783458E+02  0.00000000000E+00 0. -1.
          3    1    6    6  503    0  0.13779444450E+03  0.78373065476E+01  0.49620450011E+02  0.14666601981E+03  0.00000000000E+00 0. -1.
         -3    1    6    6    0  503  0.30602729345E+03 -0.11175373475E+03  0.50158273015E+02  0.32963230109E+03  0.00000000000E+00 0.  1.
<mgrwt>
<rscale>  0 0.12901838E+04</rscale>
<asrwt>0</asrwt>
<pdfrwt beam="1">  1        1 0.78719503E-01 0.12901838E+04</pdfrwt>
<pdfrwt beam="2">  1       -2 0.12512212E+00 0.12901838E+04</pdfrwt>
<totfact> 0.17647803E+01</totfact>
</mgrwt>
</event>
<event>
12    4  0.4207946E-008  0.4128064E+04  0.7818608E-02  0.7979199E-01
         -2   -1    0    0    0  501 -0.00000000000E+00  0.00000000000E+00  0.19315850711E+04  0.19315850711E+04  0.00000000000E+00 0.  1.
          1   -1    0    0  501    0  0.00000000000E+00 -0.00000000000E+00 -0.22055612043E+04  0.22055612043E+04  0.00000000000E+00 0. -1.
        -24    2    1    2    0    0  0.12702008408E+03 -0.57512603918E+03  0.17609292983E+04  0.18587598888E+04  0.84925072943E+02 0.  0.
        254    2    1    2    0    0 -0.12702008408E+03  0.57512603918E+03 -0.20349054315E+04  0.22783863866E+04  0.83863004292E+03 0.  0.
         23    2    4    4    0    0 -0.24360694943E+03  0.49765369832E+01 -0.13516242332E+04  0.13762236238E+04  0.87944773161E+02 0.  0.
         23    2    4    4    0    0  0.11658686535E+03  0.57014950220E+03 -0.68328119828E+03  0.90216276282E+03  0.91441252592E+02 0.  0.
          3    1    3    3  502    0 -0.96578960679E+01 -0.86388355433E+02  0.22791875532E+03  0.24393274060E+03  0.00000000000E+00 0. -1.
         -4    1    3    3    0  502  0.13667798015E+03 -0.48873768375E+03  0.15330105430E+04  0.16148271482E+04  0.00000000000E+00 0.  1.
         11    1    5    5    0    0 -0.81934865415E+02 -0.34673359779E+02 -0.36721322943E+03  0.37783742525E+03  0.00000000000E+00 0.  1.
        -11    1    5    5    0    0 -0.16167208401E+03  0.39649896763E+02 -0.98441100381E+03  0.99838619857E+03  0.00000000000E+00 0. -1.
          3    1    6    6  503    0  0.34139602590E+02  0.91512964444E+02 -0.71583039684E+02  0.12109610521E+03  0.00000000000E+00 0. -1.
         -3    1    6    6    0  503  0.82447262759E+02  0.47863653775E+03 -0.61169815859E+03  0.78106665761E+03  0.00000000000E+00 0.  1.
<mgrwt>
<rscale>  0 0.41280645E+04</rscale>
<asrwt>0</asrwt>
<pdfrwt beam="1">  1        1 0.33931711E+00 0.41280645E+04</pdfrwt>
<pdfrwt beam="2">  1       -2 0.29716693E+00 0.41280645E+04</pdfrwt>
<totfact> 0.48647685E-02</totfact>
</mgrwt>
</event>
<event>
12    4  0.4207946E-008  0.1640809E+04  0.7818608E-02  0.8795863E-01
          1   -1    0    0  501    0  0.00000000000E+00  0.00000000000E+00  0.10106589897E+04  0.10106589897E+04  0.00000000000E+00 0. -1.
         -2   -1    0    0    0  501 -0.00000000000E+00 -0.00000000000E+00 -0.66596487233E+03  0.66596487233E+03  0.00000000000E+00 0.  1.
        -24    2    1    2    0    0  0.25084611960E+03  0.11724443238E+01 -0.40396529905E+03  0.48271401244E+03  0.83064460695E+02 0.  0.
        254    2    1    2    0    0 -0.25084611960E+03 -0.11724443238E+01  0.74865941643E+03  0.11939098496E+04  0.89554712707E+03 0.  0.
         23    2    4    4    0    0  0.42939717100E+02  0.33301561415E+03  0.63619806101E+03  0.72668408871E+03  0.10285219186E+03 0.  0.
         23    2    4    4    0    0 -0.29378583670E+03 -0.33418805848E+03  0.11246135542E+03  0.46722576088E+03  0.87524733075E+02 0.  0.
          3    1    3    3  502    0  0.23545448646E+01 -0.70647044381E+01 -0.47658641599E+02  0.48236915836E+02  0.00000000000E+00 0. -1.
         -4    1    3    3    0  502  0.24849157473E+03  0.82371487619E+01 -0.35630665745E+03  0.43447709661E+03  0.00000000000E+00 0.  1.
         11    1    5    5    0    0 -0.22401007959E+02  0.26129007536E+02  0.38544724973E+02  0.51674229706E+02  0.00000000000E+00 0. -1.
        -11    1    5    5    0    0  0.65340725059E+02  0.30688660662E+03  0.59765333604E+03  0.67500985900E+03  0.00000000000E+00 0.  1.
          3    1    6    6  503    0 -0.11907551992E+03 -0.15404192159E+03  0.64622280332E+01  0.19480670790E+03  0.00000000000E+00 0. -1.
         -3    1    6    6    0  503 -0.17471031678E+03 -0.18014613689E+03  0.10599912738E+03  0.27241905299E+03  0.00000000000E+00 0.  1.
<mgrwt>
<rscale>  0 0.16408088E+04</rscale>
<asrwt>0</asrwt>
<pdfrwt beam="1">  1        1 0.15548600E+00 0.16408088E+04</pdfrwt>
<pdfrwt beam="2">  1       -2 0.10245613E+00 0.16408088E+04</pdfrwt>
<totfact> 0.97016965E+00</totfact>
</mgrwt>
</event>
<event>
12    4  0.4207946E-008  0.2209781E+04  0.7818608E-02  0.8514368E-01
         -2   -1    0    0    0  501 -0.00000000000E+00  0.00000000000E+00  0.43124188135E+03  0.43124188135E+03  0.00000000000E+00 0.  1.
          1   -1    0    0  501    0  0.00000000000E+00 -0.00000000000E+00 -0.28308546756E+04  0.28308546756E+04  0.00000000000E+00 0. -1.
        -24    2    1    2    0    0 -0.75261076887E+03  0.48000616226E+03 -0.12891207195E+04  0.15700428670E+04  0.79834137341E+02 0.  0.
        254    2    1    2    0    0  0.75261076887E+03 -0.48000616226E+03 -0.11104920748E+04  0.16920536900E+04  0.91270157031E+03 0.  0.
         23    2    4    4    0    0  0.46739135256E+03  0.18466164379E+03 -0.66147874656E+03  0.83580896734E+03  0.92021185589E+02 0.  0.
         23    2    4    4    0    0  0.28521941631E+03 -0.66466780605E+03 -0.44901332820E+03  0.85624472264E+03  0.91698682179E+02 0.  0.
          1    1    3    3  502    0 -0.59116551208E+03  0.41208215720E+03 -0.10563317488E+04  0.12787201142E+04  0.00000000000E+00 0. -1.
         -2    1    3    3    0  502 -0.16144525679E+03  0.67924005058E+02 -0.23278897068E+03  0.29132275276E+03  0.00000000000E+00 0.  1.
         11    1    5    5    0    0  0.89773299970E+02  0.12276013028E+02 -0.76915304544E+02  0.11885247139E+03  0.00000000000E+00 0. -1.
        -11    1    5    5    0    0  0.37761805259E+03  0.17238563076E+03 -0.58456344201E+03  0.71695649594E+03  0.00000000000E+00 0.  1.
          4    1    6    6  503    0  0.21135298271E+03 -0.55869672260E+03 -0.39562816404E+03  0.71647313650E+03  0.00000000000E+00 0. -1.
         -4    1    6    6    0  503  0.73866433602E+02 -0.10597108345E+03 -0.53385164158E+02  0.13977158614E+03  0.00000000000E+00 0.  1.
<mgrwt>
<rscale>  0 0.22097811E+04</rscale>
<asrwt>0</asrwt>
<pdfrwt beam="1">  1        1 0.43551611E+00 0.22097811E+04</pdfrwt>
<pdfrwt beam="2">  1       -2 0.66344905E-01 0.22097811E+04</pdfrwt>
<totfact> 0.13252799E+00</totfact>
</mgrwt>
</event>
<event>
12    4  0.4207946E-008  0.1364937E+04  0.7818608E-02  0.8979597E-01
         -4   -1    0    0    0  501 -0.00000000000E+00  0.00000000000E+00  0.48238573586E+03  0.48238573586E+03  0.00000000000E+00 0.  1.
          1   -1    0    0  501    0  0.00000000000E+00 -0.00000000000E+00 -0.96554180348E+03  0.96554180348E+03  0.00000000000E+00 0. -1.
        -24    2    1    2    0    0  0.30401433228E+03 -0.16327593300E+03  0.40440930091E+02  0.35663902326E+03  0.80449857414E+02 0.  0.
        254    2    1    2    0    0 -0.30401433228E+03  0.16327593300E+03 -0.52359699771E+03  0.10912885161E+04  0.89312544738E+03 0.  0.
         23    2    4    4    0    0  0.23481194116E+03 -0.18034788086E+03 -0.13819740820E+03  0.33968039222E+03  0.92856014250E+02 0.  0.
         23    2    4    4    0    0 -0.53882627344E+03  0.34362381386E+03 -0.38539958952E+03  0.75160812386E+03  0.89279616085E+02 0.  0.
          3    1    3    3  502    0  0.42992298608E+02 -0.12390214973E+02 -0.20225784119E+02  0.49101298454E+02  0.00000000000E+00 0. -1.
         -4    1    3    3    0  502  0.26102203367E+03 -0.15088571803E+03  0.60666714210E+02  0.30753772481E+03  0.00000000000E+00 0.  1.
         11    1    5    5    0    0  0.16060610008E+01 -0.31158356755E+02 -0.27278027815E+02  0.41442893590E+02  0.00000000000E+00 0. -1.
        -11    1    5    5    0    0  0.23320588015E+03 -0.14918952411E+03 -0.11091938038E+03  0.29823749863E+03  0.00000000000E+00 0.  1.
          4    1    6    6  503    0 -0.15478849004E+03  0.82201462686E+02 -0.15057308624E+03  0.23106019003E+03  0.00000000000E+00 0. -1.
         -4    1    6    6    0  503 -0.38403778340E+03  0.26142235118E+03 -0.23482650328E+03  0.52054793383E+03  0.00000000000E+00 0.  1.
<mgrwt>
<rscale>  0 0.13649375E+04</rscale>
<asrwt>0</asrwt>
<pdfrwt beam="1">  1        1 0.14854489E+00 0.13649375E+04</pdfrwt>
<pdfrwt beam="2">  1       -4 0.74213190E-01 0.13649375E+04</pdfrwt>
<totfact> 0.12597069E+01</totfact>
</mgrwt>
</event>
<event>
12    4  0.4207946E-008  0.1476206E+04  0.7818608E-02  0.8900431E-01
         -2   -1    0    0    0  501 -0.00000000000E+00  0.00000000000E+00  0.42951047714E+03  0.42951047714E+03  0.00000000000E+00 0.  1.
          1   -1    0    0  501    0  0.00000000000E+00 -0.00000000000E+00 -0.12684121109E+04  0.12684121109E+04  0.00000000000E+00 0. -1.
        -24    2    1    2    0    0 -0.27752582641E+03 -0.60899015588E+02  0.15113597455E+03  0.33146624472E+03  0.79363178872E+02 0.  0.
        254    2    1    2    0    0  0.27752582641E+03  0.60899015588E+02 -0.99003760834E+03  0.13664563434E+04  0.89794164506E+03 0.  0.
         23    2    4    4    0    0 -0.13323980468E+03  0.24816358246E+03 -0.24872616139E+02  0.29708239844E+03  0.91111443933E+02 0.  0.
         23    2    4    4    0    0  0.41076563109E+03 -0.18726456688E+03 -0.96516499220E+03  0.10693739449E+04  0.90668352802E+02 0.  0.
          1    1    3    3  502    0 -0.99794713329E+02 -0.44152904381E+02  0.22477634719E+02  0.11141682026E+03  0.00000000000E+00 0. -1.
         -2    1    3    3    0  502 -0.17773111308E+03 -0.16746111207E+02  0.12865833983E+03  0.22004942446E+03  0.00000000000E+00 0.  1.
         11    1    5    5    0    0 -0.18546277574E+02  0.11859169883E+03  0.10397697294E+02  0.12048264420E+03  0.00000000000E+00 0.  1.
        -11    1    5    5    0    0 -0.11469352711E+03  0.12957188363E+03 -0.35270313433E+02  0.17659975424E+03  0.00000000000E+00 0. -1.
          4    1    6    6  503    0  0.95674221613E+02 -0.42566452748E+02 -0.32344504708E+03  0.33997376084E+03  0.00000000000E+00 0.  1.
         -4    1    6    6    0  503  0.31509140948E+03 -0.14469811413E+03 -0.64171994512E+03  0.72940018407E+03  0.00000000000E+00 0. -1.
<mgrwt>
<rscale>  0 0.14762063E+04</rscale>
<asrwt>0</asrwt>
<pdfrwt beam="1">  1        1 0.19514033E+00 0.14762063E+04</pdfrwt>
<pdfrwt beam="2">  1       -2 0.66078534E-01 0.14762063E+04</pdfrwt>
<totfact> 0.17071949E+01</totfact>
</mgrwt>
</event>
<event>
12    4  0.4207946E-008  0.2162412E+04  0.7818608E-02  0.8534238E-01
          1   -1    0    0  501    0  0.00000000000E+00  0.00000000000E+00  0.22214279031E+04  0.22214279031E+04  0.00000000000E+00 0. -1.
         -2   -1    0    0    0  501 -0.00000000000E+00 -0.00000000000E+00 -0.52624088652E+03  0.52624088652E+03  0.00000000000E+00 0.  1.
        -24    2    1    2    0    0  0.20961832896E+03 -0.80355214496E+03  0.28711865889E+03  0.88229012083E+03  0.79767408975E+02 0.  0.
        254    2    1    2    0    0 -0.20961832896E+03  0.80355214496E+03  0.14080683577E+04  0.18653786688E+04  0.89852389204E+03 0.  0.
         23    2    4    4    0    0 -0.17075964860E+03  0.74181940869E+03  0.15202655168E+04  0.17025511329E+04  0.89544548092E+02 0.  0.
         23    2    4    4    0    0 -0.38858680354E+02  0.61732736269E+02 -0.11219715907E+03  0.16282753587E+03  0.92756003410E+02 0.  0.
          3    1    3    3  502    0  0.71338799816E+02 -0.21872913004E+03  0.11482231017E+03  0.25712996636E+03  0.00000000000E+00 0. -1.
         -4    1    3    3    0  502  0.13827952914E+03 -0.58482301492E+03  0.17229634871E+03  0.62516015447E+03  0.00000000000E+00 0.  1.
         11    1    5    5    0    0 -0.28667635222E+02  0.24921235880E+03  0.57123807047E+03  0.62389227135E+03  0.00000000000E+00 0. -1.
        -11    1    5    5    0    0 -0.14209201338E+03  0.49260704989E+03  0.94902744628E+03  0.10786588616E+04  0.00000000000E+00 0.  1.
          1    1    6    6  503    0 -0.53210590922E+02  0.76451399541E+02 -0.72182467873E+02  0.11784096124E+03  0.00000000000E+00 0. -1.
         -1    1    6    6    0  503  0.14351910568E+02 -0.14718663271E+02 -0.40014691193E+02  0.44986574628E+02  0.00000000000E+00 0.  1.
<mgrwt>
<rscale>  0 0.21624118E+04</rscale>
<asrwt>0</asrwt>
<pdfrwt beam="1">  1        1 0.34175813E+00 0.21624118E+04</pdfrwt>
<pdfrwt beam="2">  1       -2 0.80960138E-01 0.21624118E+04</pdfrwt>
<totfact> 0.22776665E+00</totfact>
</mgrwt>
</event>
<event>
12    4  0.4207946E-008  0.1874583E+04  0.7818608E-02  0.8667612E-01
         -2   -1    0    0    0  501 -0.00000000000E+00  0.00000000000E+00  0.15123268930E+04  0.15123268930E+04  0.00000000000E+00 0.  1.
          1   -1    0    0  501    0  0.00000000000E+00 -0.00000000000E+00 -0.58090327733E+03  0.58090327733E+03  0.00000000000E+00 0. -1.
        -24    2    1    2    0    0  0.19361430310E+03  0.68281534416E+03  0.46299045915E+03  0.85171092801E+03  0.85604012973E+02 0.  0.
        254    2    1    2    0    0 -0.19361430310E+03 -0.68281534416E+03  0.46843315653E+03  0.12415192423E+04  0.90455354422E+03 0.  0.
         23    2    4    4    0    0 -0.35074837094E+03  0.63951672926E+02  0.24229338351E+03  0.44040175247E+03  0.90185274287E+02 0.  0.
         23    2    4    4    0    0  0.15713406784E+03 -0.74676701709E+03  0.22613977302E+03  0.80111748986E+03  0.91093043306E+02 0.  0.
          1    1    3    3  502    0  0.46163023156E+02  0.65190160377E+02  0.49932749895E+02  0.94202235797E+02  0.00000000000E+00 0. -1.
         -2    1    3    3    0  502  0.14745127995E+03  0.61762518378E+03  0.41305770926E+03  0.75750869221E+03  0.00000000000E+00 0.  1.
         11    1    5    5    0    0 -0.21433509269E+03  0.77922265129E+02  0.12569549420E+03  0.26040500882E+03  0.00000000000E+00 0.  1.
        -11    1    5    5    0    0 -0.13641327826E+03 -0.13970592203E+02  0.11659788931E+03  0.17999674365E+03  0.00000000000E+00 0. -1.
          4    1    6    6  503    0  0.16837134714E+03 -0.70783609640E+03  0.20808156072E+03  0.75675543329E+03  0.00000000000E+00 0. -1.
         -4    1    6    6    0  503 -0.11237279305E+02 -0.38930920685E+02  0.18058212302E+02  0.44362056570E+02  0.00000000000E+00 0.  1.
<mgrwt>
<rscale>  0 0.18745833E+04</rscale>
<asrwt>0</asrwt>
<pdfrwt beam="1">  1        1 0.89369735E-01 0.18745833E+04</pdfrwt>
<pdfrwt beam="2">  1       -2 0.23266567E+00 0.18745833E+04</pdfrwt>
<totfact> 0.24224628E+00</totfact>
</mgrwt>
</event>
<event>
12    4  0.4207946E-008  0.1938699E+04  0.7818608E-02  0.8635830E-01
         -2   -1    0    0    0  501 -0.00000000000E+00  0.00000000000E+00  0.84507956171E+03  0.84507956171E+03  0.00000000000E+00 0.  1.
          1   -1    0    0  501    0  0.00000000000E+00 -0.00000000000E+00 -0.11118932195E+04  0.11118932195E+04  0.00000000000E+00 0. -1.
        -24    2    1    2    0    0  0.28358212057E+03  0.66196369029E+03  0.85227977438E+02  0.72934249576E+03  0.77858343266E+02 0.  0.
        254    2    1    2    0    0 -0.28358212057E+03 -0.66196369029E+03 -0.35204163520E+03  0.12276302854E+04  0.92980000989E+03 0.  0.
         23    2    4    4    0    0 -0.14509498003E+03 -0.46110462053E+03 -0.66077056897E+03  0.82363532454E+03  0.89929854389E+02 0.  0.
         23    2    4    4    0    0 -0.13848714053E+03 -0.20085906976E+03  0.30872893377E+03  0.40399496088E+03  0.91516773719E+02 0.  0.
          3    1    3    3  502    0  0.18251565649E+03  0.42005412676E+03  0.16404504760E+02  0.45828652833E+03  0.00000000000E+00 0. -1.
         -4    1    3    3    0  502  0.10106646408E+03  0.24190956353E+03  0.68823472678E+02  0.27105596743E+03  0.00000000000E+00 0.  1.
         11    1    5    5    0    0 -0.83031292500E+02 -0.13893640429E+03 -0.18650368158E+03  0.24694360330E+03  0.00000000000E+00 0. -1.
        -11    1    5    5    0    0 -0.62063687532E+02 -0.32216821624E+03 -0.47426688739E+03  0.57669172124E+03  0.00000000000E+00 0.  1.
          3    1    6    6  503    0 -0.18147617522E+02 -0.98521609676E+02  0.93643496439E+02  0.13713113439E+03  0.00000000000E+00 0. -1.
         -3    1    6    6    0  503 -0.12033952301E+03 -0.10233746009E+03  0.21508543733E+03  0.26686382649E+03  0.00000000000E+00 0.  1.
<mgrwt>
<rscale>  0 0.19386988E+04</rscale>
<asrwt>0</asrwt>
<pdfrwt beam="1">  1        1 0.17106050E+00 0.19386988E+04</pdfrwt>
<pdfrwt beam="2">  1       -2 0.13001224E+00 0.19386988E+04</pdfrwt>
<totfact> 0.44101214E+00</totfact>
</mgrwt>
</event>
<event>
12    4  0.4207946E-008  0.1253026E+04  0.7818608E-02  0.9067669E-01
          1   -1    0    0  501    0  0.00000000000E+00  0.00000000000E+00  0.12447473503E+04  0.12447473503E+04  0.00000000000E+00 0. -1.
         -2   -1    0    0    0  501 -0.00000000000E+00 -0.00000000000E+00 -0.31533972563E+03  0.31533972563E+03  0.00000000000E+00 0.  1.
        -24    2    1    2    0    0 -0.32270271615E+01 -0.26840384564E+03  0.37988865625E+03  0.47189677692E+03  0.79499300990E+02 0.  0.
        254    2    1    2    0    0  0.32270271615E+01  0.26840384564E+03  0.54951896839E+03  0.10881902990E+04  0.90007554802E+03 0.  0.
         23    2    4    4    0    0 -0.35594140176E+02  0.36627626774E+03  0.75197391405E+03  0.84187728344E+03  0.88698059905E+02 0.  0.
         23    2    4    4    0    0  0.38821167337E+02 -0.97872422098E+02 -0.20245494566E+03  0.24631301555E+03  0.92714629745E+02 0.  0.
          3    1    3    3  502    0 -0.13164814084E+02 -0.26040312234E+03  0.33093957664E+03  0.42131235662E+03  0.00000000000E+00 0. -1.
         -4    1    3    3    0  502  0.99377869224E+01 -0.80007233036E+01  0.48949079606E+02  0.50584420295E+02  0.00000000000E+00 0.  1.
         11    1    5    5    0    0 -0.20688909388E+02  0.28631002128E+03  0.49360034146E+03  0.57100153796E+03  0.00000000000E+00 0.  1.
        -11    1    5    5    0    0 -0.14905230788E+02  0.79966246461E+02  0.25837357259E+03  0.27087574548E+03  0.00000000000E+00 0. -1.
          1    1    6    6  503    0  0.36071834331E+01 -0.16574844806E+02 -0.13208675279E+03  0.13317149664E+03  0.00000000000E+00 0. -1.
         -1    1    6    6    0  503  0.35213983904E+02 -0.81297577291E+02 -0.70368192864E+02  0.11314151892E+03  0.00000000000E+00 0.  1.
<mgrwt>
<rscale>  0 0.12530256E+04</rscale>
<asrwt>0</asrwt>
<pdfrwt beam="1">  1        1 0.19149959E+00 0.12530256E+04</pdfrwt>
<pdfrwt beam="2">  1       -2 0.48513805E-01 0.12530256E+04</pdfrwt>
<totfact> 0.34493319E+01</totfact>
</mgrwt>
</event>
<event>
12    4  0.4207946E-008  0.1375568E+04  0.7818608E-02  0.8971696E-01
         -2   -1    0    0    0  501 -0.00000000000E+00  0.00000000000E+00  0.78596536364E+03  0.78596536364E+03  0.00000000000E+00 0.  1.
          1   -1    0    0  501    0  0.00000000000E+00 -0.00000000000E+00 -0.60186686406E+03  0.60186686406E+03  0.00000000000E+00 0. -1.
        -24    2    1    2    0    0  0.31739241354E+03  0.20798530664E+03  0.15329445072E+03  0.41683881473E+03  0.79117487884E+02 0.  0.
        254    2    1    2    0    0 -0.31739241354E+03 -0.20798530664E+03  0.30804048858E+02  0.97099341298E+03  0.89324324048E+03 0.  0.
         23    2    4    4    0    0  0.21610463197E+03  0.17019860794E+03  0.10237087811E+03  0.30704912728E+03  0.90169794153E+02 0.  0.
         23    2    4    4    0    0 -0.53349704551E+03 -0.37818391458E+03 -0.71566829253E+02  0.66394428569E+03  0.89766545228E+02 0.  0.
          3    1    3    3  502    0  0.27451738126E+01 -0.61614020699E+01  0.69895806882E+00  0.67814008221E+01  0.00000000000E+00 0. -1.
         -4    1    3    3    0  502  0.31464723973E+03  0.21414670871E+03  0.15259549265E+03  0.41005741390E+03  0.00000000000E+00 0.  1.
         11    1    5    5    0    0  0.80162879106E+02  0.10927847112E+03  0.77188602116E+02  0.15596779070E+03  0.00000000000E+00 0. -1.
        -11    1    5    5    0    0  0.13594175286E+03  0.60920136816E+02  0.25182275995E+02  0.15108133659E+03  0.00000000000E+00 0.  1.
          2    1    6    6  503    0 -0.18722713242E+03 -0.18595758876E+03 -0.35441748524E+02  0.26625240181E+03  0.00000000000E+00 0. -1.
         -2    1    6    6    0  503 -0.34626991309E+03 -0.19222632582E+03 -0.36125080729E+02  0.39769188388E+03  0.00000000000E+00 0.  1.
<mgrwt>
<rscale>  0 0.13755675E+04</rscale>
<asrwt>0</asrwt>
<pdfrwt beam="1">  1        1 0.92594903E-01 0.13755675E+04</pdfrwt>
<pdfrwt beam="2">  1       -2 0.12091775E+00 0.13755675E+04</pdfrwt>
<totfact> 0.15182256E+01</totfact>
</mgrwt>
</event>
<event>
12    4  0.4207946E-008  0.1762817E+04  0.7818608E-02  0.8726326E-01
          1   -1    0    0  501    0  0.00000000000E+00  0.00000000000E+00  0.39837682979E+03  0.39837682979E+03  0.00000000000E+00 0. -1.
         -2   -1    0    0    0  501 -0.00000000000E+00 -0.00000000000E+00 -0.19501167911E+04  0.19501167911E+04  0.00000000000E+00 0.  1.
        -24    2    1    2    0    0  0.32134573341E+03 -0.10004375562E+03 -0.13243370697E+04  0.13687514716E+04  0.79624641943E+02 0.  0.
        254    2    1    2    0    0 -0.32134573341E+03  0.10004375562E+03 -0.22740289162E+03  0.97974214923E+03  0.89157768615E+03 0.  0.
         23    2    4    4    0    0  0.24642597395E+03  0.16590027926E+03 -0.25293842315E+03  0.40030976536E+03  0.89562263484E+02 0.  0.
         23    2    4    4    0    0 -0.56777170736E+03 -0.65856523643E+02  0.25535531526E+02  0.57943238387E+03  0.91586192843E+02 0.  0.
          1    1    3    3  502    0  0.44429183815E+02  0.13657528511E+02 -0.18281338974E+03  0.18862983838E+03  0.00000000000E+00 0. -1.
         -2    1    3    3    0  502  0.27691654960E+03 -0.11370128413E+03 -0.11415236799E+04  0.11801216332E+04  0.00000000000E+00 0.  1.
         11    1    5    5    0    0  0.19596077996E+03  0.12011062660E+03 -0.23736963514E+03  0.33041115839E+03  0.00000000000E+00 0. -1.
        -11    1    5    5    0    0  0.50465193996E+02  0.45789652668E+02 -0.15568788010E+02  0.69898606971E+02  0.00000000000E+00 0.  1.
          3    1    6    6  503    0 -0.39431384470E+03 -0.18114879366E+02  0.49941419798E+02  0.39787649137E+03  0.00000000000E+00 0. -1.
         -3    1    6    6    0  503 -0.17345786266E+03 -0.47741644278E+02 -0.24405888272E+02  0.18155589250E+03  0.00000000000E+00 0.  1.
<mgrwt>
<rscale>  0 0.17628175E+04</rscale>
<asrwt>0</asrwt>
<pdfrwt beam="1">  1        1 0.61288743E-01 0.17628175E+04</pdfrwt>
<pdfrwt beam="2">  1       -2 0.30001797E+00 0.17628175E+04</pdfrwt>
<totfact> 0.15897800E+00</totfact>
</mgrwt>
</event>
<event>
12    4  0.4207946E-008  0.3337313E+04  0.7818608E-02  0.8153465E-01
          1   -1    0    0  501    0  0.00000000000E+00  0.00000000000E+00  0.29934830485E+04  0.29934830485E+04  0.00000000000E+00 0. -1.
         -2   -1    0    0    0  501 -0.00000000000E+00 -0.00000000000E+00 -0.93015899124E+03  0.93015899124E+03  0.00000000000E+00 0.  1.
        -24    2    1    2    0    0 -0.89162349978E+02 -0.13541319050E+04  0.18278335465E+04  0.22778794416E+04  0.78333491558E+02 0.  0.
        254    2    1    2    0    0  0.89162349978E+02  0.13541319050E+04  0.23549051072E+03  0.16457625981E+04  0.90080830808E+03 0.  0.
         23    2    4    4    0    0 -0.32157780125E+03  0.10176364989E+04  0.34526282749E+02  0.10709089956E+04  0.81594647199E+02 0.  0.
         23    2    4    4    0    0  0.41074015123E+03  0.33649540609E+03  0.20096422797E+03  0.57485360252E+03  0.90185438182E+02 0.  0.
          3    1    3    3  502    0 -0.41514878039E+02 -0.46090911875E+03  0.56473061158E+03  0.73012421170E+03  0.00000000000E+00 0. -1.
         -4    1    3    3    0  502 -0.47647471939E+02 -0.89322278625E+03  0.12631029349E+04  0.15477552299E+04  0.00000000000E+00 0.  1.
         11    1    5    5    0    0 -0.31742262805E+03  0.95465123937E+03  0.44400776514E+02  0.10070191372E+04  0.00000000000E+00 0.  1.
        -11    1    5    5    0    0 -0.41551731967E+01  0.62985259543E+02 -0.98744937641E+01  0.63889858437E+02  0.00000000000E+00 0. -1.
          3    1    6    6  503    0  0.83907285336E+02  0.88695144924E+02  0.10234475520E+02  0.12252349062E+03  0.00000000000E+00 0. -1.
         -3    1    6    6    0  503  0.32683286589E+03  0.24780026116E+03  0.19072975245E+03  0.45233011190E+03  0.00000000000E+00 0.  1.
<mgrwt>
<rscale>  0 0.33373134E+04</rscale>
<asrwt>0</asrwt>
<pdfrwt beam="1">  1        1 0.46053585E+00 0.33373134E+04</pdfrwt>
<pdfrwt beam="2">  1       -2 0.14310139E+00 0.33373134E+04</pdfrwt>
<totfact> 0.14914877E-01</totfact>
</mgrwt>
</event>
<event>
12    4  0.4207946E-008  0.1703707E+04  0.7818608E-02  0.8759253E-01
          1   -1    0    0  501    0  0.00000000000E+00  0.00000000000E+00  0.11061773577E+04  0.11061773577E+04  0.00000000000E+00 0. -1.
         -2   -1    0    0    0  501 -0.00000000000E+00 -0.00000000000E+00 -0.65600211690E+03  0.65600211690E+03  0.00000000000E+00 0.  1.
        -24    2    1    2    0    0 -0.56281711096E+03 -0.12744041154E+03  0.79089314355E+02  0.58800996967E+03  0.80600532908E+02 0.  0.
        254    2    1    2    0    0  0.56281711096E+03  0.12744041154E+03  0.37108592640E+03  0.11741695049E+04  0.95287202842E+03 0.  0.
         23    2    4    4    0    0  0.82760730233E+02  0.54117275566E+02 -0.30725428009E+03  0.33592802512E+03  0.93082906305E+02 0.  0.
         23    2    4    4    0    0  0.48005638073E+03  0.73323135970E+02  0.67834020649E+03  0.83824147976E+03  0.81688014494E+02 0.  0.
          1    1    3    3  502    0 -0.52566631753E+03 -0.10393644628E+03  0.88365515951E+02  0.54308040534E+03  0.00000000000E+00 0. -1.
         -2    1    3    3    0  502 -0.37150793427E+02 -0.23503965255E+02 -0.92762015958E+01  0.44929564332E+02  0.00000000000E+00 0.  1.
         11    1    5    5    0    0  0.77361090691E+02  0.40197584813E+02 -0.30884423927E+03  0.32091330341E+03  0.00000000000E+00 0. -1.
        -11    1    5    5    0    0  0.53996395418E+01  0.13919690754E+02  0.15899591787E+01  0.15014721711E+02  0.00000000000E+00 0.  1.
          2    1    6    6  503    0  0.18470463942E+03 -0.10326335144E+02  0.27324760347E+03  0.32997983245E+03  0.00000000000E+00 0. -1.
         -2    1    6    6    0  503  0.29535174130E+03  0.83649471114E+02  0.40509260301E+03  0.50826164731E+03  0.00000000000E+00 0.  1.
<mgrwt>
<rscale>  0 0.17037074E+04</rscale>
<asrwt>0</asrwt>
<pdfrwt beam="1">  1        1 0.17018113E+00 0.17037074E+04</pdfrwt>
<pdfrwt beam="2">  1       -2 0.10092340E+00 0.17037074E+04</pdfrwt>
<totfact> 0.84566287E+00</totfact>
</mgrwt>
</event>
<event>
12    4  0.4207946E-008  0.1058151E+04  0.7818608E-02  0.9246969E-01
         -2   -1    0    0    0  501 -0.00000000000E+00  0.00000000000E+00  0.43156235867E+03  0.43156235867E+03  0.00000000000E+00 0.  1.
          1   -1    0    0  501    0  0.00000000000E+00 -0.00000000000E+00 -0.64862249025E+03  0.64862249025E+03  0.00000000000E+00 0. -1.
        -24    2    1    2    0    0 -0.53674981345E+02 -0.16759464482E+03 -0.22063578001E+03  0.29321928799E+03  0.79551460289E+02 0.  0.
        254    2    1    2    0    0  0.53674981345E+02  0.16759464482E+03  0.35756484387E+01  0.78696556092E+03  0.76702870887E+03 0.  0.
         23    2    4    4    0    0  0.36099410872E+03  0.11329538144E+02 -0.14592146080E+03  0.40023313846E+03  0.91915109918E+02 0.  0.
         23    2    4    4    0    0 -0.30731912737E+03  0.15626510668E+03  0.14949710924E+03  0.38673242247E+03  0.91371501581E+02 0.  0.
          3    1    3    3  502    0 -0.71954783403E+01 -0.13638443069E+03 -0.16640419091E+03  0.21527387811E+03  0.00000000000E+00 0. -1.
         -4    1    3    3    0  502 -0.46479503005E+02 -0.31210214136E+02 -0.54231589102E+02  0.77945409887E+02  0.00000000000E+00 0.  1.
         11    1    5    5    0    0  0.19096448820E+03  0.31053507856E+02 -0.35960305456E+02  0.19678643162E+03  0.00000000000E+00 0. -1.
        -11    1    5    5    0    0  0.17002962052E+03 -0.19723969712E+02 -0.10996115535E+03  0.20344670684E+03  0.00000000000E+00 0.  1.
          1    1    6    6  503    0 -0.54155616905E+02 -0.78671047743E+01  0.17999679308E+02  0.57608251450E+02  0.00000000000E+00 0. -1.
         -1    1    6    6    0  503 -0.25316351047E+03  0.16413221145E+03  0.13149742993E+03  0.32912417102E+03  0.00000000000E+00 0.  1.
<mgrwt>
<rscale>  0 0.10581513E+04</rscale>
<asrwt>0</asrwt>
<pdfrwt beam="1">  1        1 0.99788075E-01 0.10581513E+04</pdfrwt>
<pdfrwt beam="2">  1       -2 0.66394209E-01 0.10581513E+04</pdfrwt>
<totfact> 0.55762170E+01</totfact>
</mgrwt>
</event>
<event>
12    4  0.4207946E-008  0.2021817E+04  0.7818608E-02  0.8596488E-01
          1   -1    0    0  501    0  0.00000000000E+00  0.00000000000E+00  0.16589347839E+04  0.16589347839E+04  0.00000000000E+00 0. -1.
         -2   -1    0    0    0  501 -0.00000000000E+00 -0.00000000000E+00 -0.61601945996E+03  0.61601945996E+03  0.00000000000E+00 0.  1.
        -24    2    1    2    0    0 -0.59101526923E+03  0.34913614252E+03 -0.60481158133E+02  0.69259715108E+03  0.69553926700E+02 0.  0.
        254    2    1    2    0    0  0.59101526923E+03 -0.34913614252E+03  0.11033964820E+04  0.15823570927E+04  0.90287046574E+03 0.  0.
         23    2    4    4    0    0  0.48593301128E+02  0.23711138560E+03  0.59667128986E+02  0.26499852313E+03  0.89894009149E+02 0.  0.
         23    2    4    4    0    0  0.54242196811E+03 -0.58624752812E+03  0.10437293530E+04  0.13173585696E+04  0.90304389756E+02 0.  0.
          3    1    3    3  502    0 -0.31713419029E+02  0.38627862560E+02 -0.93253007923E+01  0.50841065561E+02  0.00000000000E+00 0. -1.
         -4    1    3    3    0  502 -0.55930185020E+03  0.31050827996E+03 -0.51155857341E+02  0.64175608552E+03  0.00000000000E+00 0.  1.
         11    1    5    5    0    0  0.73801034653E+02  0.17844468691E+03  0.55910675093E+02  0.20103507801E+03  0.00000000000E+00 0.  1.
        -11    1    5    5    0    0 -0.25207733525E+02  0.58666698698E+02  0.37564538923E+01  0.63963445119E+02  0.00000000000E+00 0. -1.
          2    1    6    6  503    0  0.79501716701E+02 -0.54942318137E+02  0.94638274576E+02  0.13526117069E+03  0.00000000000E+00 0. -1.
         -2    1    6    6    0  503  0.46292025141E+03 -0.53130520998E+03  0.94909107846E+03  0.11820973989E+04  0.00000000000E+00 0.  1.
<mgrwt>
<rscale>  0 0.20218171E+04</rscale>
<asrwt>0</asrwt>
<pdfrwt beam="1">  1        1 0.25522073E+00 0.20218171E+04</pdfrwt>
<pdfrwt beam="2">  1       -2 0.94772225E-01 0.20218171E+04</pdfrwt>
<totfact> 0.38735375E+00</totfact>
</mgrwt>
</event>
<event>
12    4  0.4207946E-008  0.2002958E+04  0.7818608E-02  0.8605239E-01
          1   -1    0    0  501    0  0.00000000000E+00  0.00000000000E+00  0.18657356499E+04  0.18657356499E+04  0.00000000000E+00 0. -1.
         -2   -1    0    0    0  501 -0.00000000000E+00 -0.00000000000E+00 -0.53756836457E+03  0.53756836457E+03  0.00000000000E+00 0.  1.
        -24    2    1    2    0    0 -0.63821788851E+03 -0.22020079464E+03  0.12199071015E+04  0.13964052564E+04  0.77225906021E+02 0.  0.
        254    2    1    2    0    0  0.63821788851E+03  0.22020079464E+03  0.10826018376E+03  0.10068987580E+04  0.73913082628E+03 0.  0.
         23    2    4    4    0    0  0.75423094666E+03  0.34721191420E+02  0.47634235211E+02  0.76171937131E+03  0.88755271533E+02 0.  0.
         23    2    4    4    0    0 -0.11601305815E+03  0.18547960322E+03  0.60625948545E+02  0.24517938672E+03  0.92605146528E+02 0.  0.
          3    1    3    3  502    0 -0.37856753622E+03 -0.14800536009E+03  0.80224069521E+03  0.89933814505E+03  0.00000000000E+00 0. -1.
         -4    1    3    3    0  502 -0.25965035229E+03 -0.72195434552E+02  0.41766640631E+03  0.49706711134E+03  0.00000000000E+00 0.  1.
         11    1    5    5    0    0  0.72486223794E+03  0.16335623797E+02  0.51402520195E+02  0.72686610574E+03  0.00000000000E+00 0. -1.
        -11    1    5    5    0    0  0.29368708726E+02  0.18385567623E+02 -0.37682849836E+01  0.34853265568E+02  0.00000000000E+00 0.  1.
          2    1    6    6  503    0 -0.10773978660E+03  0.11472309451E+03  0.71945012632E+02  0.17304720418E+03  0.00000000000E+00 0. -1.
         -2    1    6    6    0  503 -0.82732715528E+01  0.70756508708E+02 -0.11319064087E+02  0.72132182544E+02  0.00000000000E+00 0.  1.
<mgrwt>
<rscale>  0 0.20029583E+04</rscale>
<asrwt>0</asrwt>
<pdfrwt beam="1">  1        1 0.28703625E+00 0.20029583E+04</pdfrwt>
<pdfrwt beam="2">  1       -2 0.82702826E-01 0.20029583E+04</pdfrwt>
<totfact> 0.38385125E+00</totfact>
</mgrwt>
</event>
<event>
12    4  0.4207946E-008  0.3484090E+04  0.7818608E-02  0.8117571E-01
         -2   -1    0    0    0  501 -0.00000000000E+00  0.00000000000E+00  0.21294175681E+04  0.21294175681E+04  0.00000000000E+00 0.  1.
          1   -1    0    0  501    0  0.00000000000E+00 -0.00000000000E+00 -0.14251415029E+04  0.14251415029E+04  0.00000000000E+00 0. -1.
        -24    2    1    2    0    0 -0.16205436307E+04  0.85490569564E+02  0.35415257675E+03  0.16629333453E+04  0.80330359105E+02 0.  0.
        254    2    1    2    0    0  0.16205436307E+04 -0.85490569564E+02  0.35012348848E+03  0.18916257257E+04  0.90674755710E+03 0.  0.
         23    2    4    4    0    0  0.36307332679E+03 -0.34148152535E+03 -0.12305494582E+03  0.52069174378E+03  0.86864835034E+02 0.  0.
         23    2    4    4    0    0  0.12574703040E+04  0.25599095579E+03  0.47317843430E+03  0.13709339819E+04  0.93804143404E+02 0.  0.
          1    1    3    3  502    0 -0.94896278943E+03  0.32302715349E+02  0.17089044553E+03  0.96476804752E+03  0.00000000000E+00 0. -1.
         -2    1    3    3    0  502 -0.67158084131E+03  0.53187854215E+02  0.18326213122E+03  0.69816529776E+03  0.00000000000E+00 0.  1.
         11    1    5    5    0    0  0.18772645522E+03 -0.17000841312E+03 -0.10690970084E+03  0.27490683268E+03  0.00000000000E+00 0. -1.
        -11    1    5    5    0    0  0.17534687156E+03 -0.17147311224E+03 -0.16145244983E+02  0.24578491110E+03  0.00000000000E+00 0.  1.
          3    1    6    6  503    0  0.11196264250E+04  0.25327518550E+03  0.43805822774E+03  0.12286605154E+04  0.00000000000E+00 0. -1.
         -3    1    6    6    0  503  0.13784387897E+03  0.27157702842E+01  0.35120206567E+02  0.14227346656E+03  0.00000000000E+00 0.  1.
<mgrwt>
<rscale>  0 0.34840903E+04</rscale>
<asrwt>0</asrwt>
<pdfrwt beam="1">  1        1 0.21925254E+00 0.34840903E+04</pdfrwt>
<pdfrwt beam="2">  1       -2 0.32760270E+00 0.34840903E+04</pdfrwt>
<totfact> 0.11366351E-01</totfact>
</mgrwt>
</event>
<event>
12    4  0.4207946E-008  0.1553511E+04  0.7818608E-02  0.8849628E-01
         -4   -1    0    0    0  501 -0.00000000000E+00  0.00000000000E+00  0.15572109754E+04  0.15572109754E+04  0.00000000000E+00 0.  1.
          1   -1    0    0  501    0  0.00000000000E+00 -0.00000000000E+00 -0.38745510402E+03  0.38745510402E+03  0.00000000000E+00 0. -1.
        -24    2    1    2    0    0  0.67941620369E+02  0.30546308467E+03  0.89783606956E+03  0.95403360335E+03  0.78401203108E+02 0.  0.
        254    2    1    2    0    0 -0.67941620369E+02 -0.30546308467E+03  0.27191980181E+03  0.99063247606E+03  0.89971582410E+03 0.  0.
         23    2    4    4    0    0  0.32761386269E+03 -0.23881394008E+02  0.35288088749E+03  0.49015793626E+03  0.88480041357E+02 0.  0.
         23    2    4    4    0    0 -0.39555548306E+03 -0.28158169066E+03 -0.80961085674E+02  0.50047453981E+03  0.90375211809E+02 0.  0.
          1    1    3    3  502    0 -0.15307562261E+02  0.95759552261E+02  0.27081476794E+03  0.28765404890E+03  0.00000000000E+00 0. -1.
         -4    1    3    3    0  502  0.83249182629E+02  0.20970353240E+03  0.62702130162E+03  0.66637955445E+03  0.00000000000E+00 0.  1.
         11    1    5    5    0    0  0.27701387427E+03 -0.46816127046E+01  0.24666007265E+03  0.37094446414E+03  0.00000000000E+00 0.  1.
        -11    1    5    5    0    0  0.50599988418E+02 -0.19199781304E+02  0.10622081484E+03  0.11921347212E+03  0.00000000000E+00 0. -1.
          1    1    6    6  503    0 -0.13826733049E+03 -0.12221819776E+03 -0.70810554014E+02  0.19765949788E+03  0.00000000000E+00 0. -1.
         -1    1    6    6    0  503 -0.25728815257E+03 -0.15936349290E+03 -0.10150531660E+02  0.30281504192E+03  0.00000000000E+00 0.  1.
<mgrwt>
<rscale>  0 0.15535113E+04</rscale>
<asrwt>0</asrwt>
<pdfrwt beam="1">  1        1 0.59608479E-01 0.15535113E+04</pdfrwt>
<pdfrwt beam="2">  1       -4 0.23957092E+00 0.15535113E+04</pdfrwt>
<totfact> 0.21067906E+00</totfact>
</mgrwt>
</event>
<event>
12    4  0.4207946E-008  0.1309729E+04  0.7818608E-02  0.9021886E-01
         -2   -1    0    0    0  501 -0.00000000000E+00  0.00000000000E+00  0.46943064043E+03  0.46943064043E+03  0.00000000000E+00 0.  1.
          1   -1    0    0  501    0  0.00000000000E+00 -0.00000000000E+00 -0.91354768637E+03  0.91354768637E+03  0.00000000000E+00 0. -1.
        -24    2    1    2    0    0 -0.66049381899E+02  0.33545255993E+03 -0.48269365206E+02  0.35488086256E+03  0.81972886842E+02 0.  0.
        254    2    1    2    0    0  0.66049381899E+02 -0.33545255993E+03 -0.39584768074E+03  0.10280974642E+04  0.88509777360E+03 0.  0.
         23    2    4    4    0    0  0.25191831102E+03 -0.41875120412E+03  0.78879089301E+02  0.50387567667E+03  0.94092403689E+02 0.  0.
         23    2    4    4    0    0 -0.18586892912E+03  0.83298644183E+02 -0.47472677004E+03  0.52422178758E+03  0.89202317487E+02 0.  0.
          1    1    3    3  502    0 -0.38323961124E+02  0.64795486854E+02  0.11948766922E+02  0.76223055199E+02  0.00000000000E+00 0. -1.
         -2    1    3    3    0  502 -0.27725420775E+02  0.27065707308E+03 -0.60218132128E+02  0.27865780736E+03  0.00000000000E+00 0.  1.
         11    1    5    5    0    0  0.14795962621E+03 -0.26994811470E+03  0.93616208814E+02  0.32175771967E+03  0.00000000000E+00 0. -1.
        -11    1    5    5    0    0  0.10395868481E+03 -0.14880308942E+03 -0.14737119513E+02  0.18211795699E+03  0.00000000000E+00 0.  1.
          1    1    6    6  503    0 -0.18895194739E+03  0.92042159254E+02 -0.46713152459E+03  0.51223672142E+03  0.00000000000E+00 0. -1.
         -1    1    6    6    0  503  0.30830182682E+01 -0.87435150709E+01 -0.75952454448E+01  0.11985066158E+02  0.00000000000E+00 0.  1.
<mgrwt>
<rscale>  0 0.13097286E+04</rscale>
<asrwt>0</asrwt>
<pdfrwt beam="1">  1        1 0.14054579E+00 0.13097286E+04</pdfrwt>
<pdfrwt beam="2">  1       -2 0.72220100E-01 0.13097286E+04</pdfrwt>
<totfact> 0.26498841E+01</totfact>
</mgrwt>
</event>
<event>
12    4  0.4207946E-008  0.1449492E+04  0.7818608E-02  0.8918753E-01
          1   -1    0    0  501    0  0.00000000000E+00  0.00000000000E+00  0.22581649034E+04  0.22581649034E+04  0.00000000000E+00 0. -1.
         -2   -1    0    0    0  501 -0.00000000000E+00 -0.00000000000E+00 -0.23260336851E+03  0.23260336851E+03  0.00000000000E+00 0.  1.
        -24    2    1    2    0    0  0.28287378447E+03  0.18562412271E+03  0.11278767324E+04  0.11802147630E+04  0.79542885142E+02 0.  0.
        254    2    1    2    0    0 -0.28287378447E+03 -0.18562412271E+03  0.89768480251E+03  0.13105535089E+04  0.89288218823E+03 0.  0.
         23    2    4    4    0    0 -0.55935118627E+03  0.59526895387E+02  0.47787926704E+03  0.74393335657E+03  0.93010990200E+02 0.  0.
         23    2    4    4    0    0  0.27647740180E+03 -0.24515101810E+03  0.41980553547E+03  0.56662015229E+03  0.91010625732E+02 0.  0.
          3    1    3    3  502    0  0.28215809953E+03  0.18341191494E+03  0.10565730497E+04  0.11088731817E+04  0.00000000000E+00 0. -1.
         -4    1    3    3    0  502  0.71568493531E+00  0.22122077673E+01  0.71303682703E+02  0.71341581389E+02  0.00000000000E+00 0.  1.
         11    1    5    5    0    0 -0.40300776259E+03  0.66928195957E+02  0.29907210304E+03  0.50629908448E+03  0.00000000000E+00 0. -1.
        -11    1    5    5    0    0 -0.15634342367E+03 -0.74013005702E+01  0.17880716400E+03  0.23763427209E+03  0.00000000000E+00 0.  1.
          4    1    6    6  503    0  0.68361850066E+02 -0.86537298827E+02  0.18325054865E+03  0.21387568869E+03  0.00000000000E+00 0. -1.
         -4    1    6    6    0  503  0.20811555173E+03 -0.15861371927E+03  0.23655498682E+03  0.35274446360E+03  0.00000000000E+00 0.  1.
<mgrwt>
<rscale>  0 0.14494920E+04</rscale>
<asrwt>0</asrwt>
<pdfrwt beam="1">  1        1 0.34740997E+00 0.14494920E+04</pdfrwt>
<pdfrwt beam="2">  1       -2 0.35785135E-01 0.14494920E+04</pdfrwt>
<totfact> 0.12468226E+01</totfact>
</mgrwt>
</event>
<event>
12    4  0.4207946E-008  0.1436903E+04  0.7818608E-02  0.8927531E-01
         -2   -1    0    0    0  501 -0.00000000000E+00  0.00000000000E+00  0.30554179196E+03  0.30554179196E+03  0.00000000000E+00 0.  1.
          1   -1    0    0  501    0  0.00000000000E+00 -0.00000000000E+00 -0.16893691934E+04  0.16893691934E+04  0.00000000000E+00 0. -1.
        -24    2    1    2    0    0 -0.36350847943E+03 -0.75090615124E+02 -0.13487605304E+03  0.40301030032E+03  0.80304030962E+02 0.  0.
        254    2    1    2    0    0  0.36350847943E+03  0.75090615124E+02 -0.12489513484E+04  0.15919006850E+04  0.91459898602E+03 0.  0.
         23    2    4    4    0    0 -0.59011293423E+02 -0.15866373855E+02 -0.11288469314E+04  0.11341898200E+04  0.91417058845E+02 0.  0.
         23    2    4    4    0    0  0.42251977285E+03  0.90956988979E+02 -0.12010441703E+03  0.45771086507E+03  0.90983694826E+02 0.  0.
          3    1    3    3  502    0 -0.51875073646E+02  0.29474046264E+01  0.58435586850E+01  0.52286304497E+02  0.00000000000E+00 0. -1.
         -4    1    3    3    0  502 -0.31163340578E+03 -0.78038019750E+02 -0.14071961173E+03  0.35072399583E+03  0.00000000000E+00 0.  1.
         11    1    5    5    0    0 -0.10743840010E+02  0.31633873591E+02 -0.19089524441E+03  0.19379661090E+03  0.00000000000E+00 0. -1.
        -11    1    5    5    0    0 -0.48267453413E+02 -0.47500247446E+02 -0.93795168697E+03  0.94039320906E+03  0.00000000000E+00 0.  1.
          4    1    6    6  503    0  0.26610046897E+03  0.72565426098E+02 -0.33144124940E+02  0.27780160848E+03  0.00000000000E+00 0.  1.
         -4    1    6    6    0  503  0.15641930387E+03  0.18391562880E+02 -0.86960292088E+02  0.17990925660E+03  0.00000000000E+00 0. -1.
<mgrwt>
<rscale>  0 0.14369035E+04</rscale>
<asrwt>0</asrwt>
<pdfrwt beam="1">  1        1 0.25990295E+00 0.14369035E+04</pdfrwt>
<pdfrwt beam="2">  1       -2 0.47006430E-01 0.14369035E+04</pdfrwt>
<totfact> 0.17742252E+01</totfact>
</mgrwt>
</event>
<event>
12    4  0.4207946E-008  0.1392174E+04  0.7818608E-02  0.8959503E-01
         -2   -1    0    0    0  501 -0.00000000000E+00  0.00000000000E+00  0.67464659580E+03  0.67464659580E+03  0.00000000000E+00 0.  1.
          1   -1    0    0  501    0  0.00000000000E+00 -0.00000000000E+00 -0.71820870997E+03  0.71820870997E+03  0.00000000000E+00 0. -1.
        -24    2    1    2    0    0 -0.33968040375E+03  0.44492762435E+02 -0.21504575341E+03  0.41026931765E+03  0.68657514858E+02 0.  0.
        254    2    1    2    0    0  0.33968040375E+03 -0.44492762435E+02  0.17148363924E+03  0.98258598811E+03  0.90482385187E+03 0.  0.
         23    2    4    4    0    0  0.13352459936E+03  0.12493018936E+03 -0.34159331051E+03  0.39742895246E+03  0.88472660265E+02 0.  0.
         23    2    4    4    0    0  0.20615580439E+03 -0.16942295180E+03  0.51307694975E+03  0.58515703566E+03  0.89198922257E+02 0.  0.
          3    1    3    3  502    0 -0.17568957078E+03  0.34576278987E+02 -0.14994597097E+03  0.23355114763E+03  0.00000000000E+00 0. -1.
         -4    1    3    3    0  502 -0.16399083297E+03  0.99164834479E+01 -0.65099782442E+02  0.17671817002E+03  0.00000000000E+00 0.  1.
         11    1    5    5    0    0  0.48186302271E+02  0.15006303219E+01 -0.49803197872E+02  0.69314718034E+02  0.00000000000E+00 0.  1.
        -11    1    5    5    0    0  0.85338297091E+02  0.12342955904E+03 -0.29179011264E+03  0.32811423442E+03  0.00000000000E+00 0. -1.
          3    1    6    6  503    0  0.51176733590E+02 -0.12418128220E+02  0.16366347709E+03  0.17192731518E+03  0.00000000000E+00 0. -1.
         -3    1    6    6    0  503  0.15497907080E+03 -0.15700482358E+03  0.34941347266E+03  0.41322972048E+03  0.00000000000E+00 0.  1.
<mgrwt>
<rscale>  0 0.13921739E+04</rscale>
<asrwt>0</asrwt>
<pdfrwt beam="1">  1        1 0.11049365E+00 0.13921739E+04</pdfrwt>
<pdfrwt beam="2">  1       -2 0.10379178E+00 0.13921739E+04</pdfrwt>
<totfact> 0.16914588E+01</totfact>
</mgrwt>
</event>
<event>
12    4  0.4207946E-008  0.1312073E+04  0.7818608E-02  0.9020045E-01
         -2   -1    0    0    0  501 -0.00000000000E+00  0.00000000000E+00  0.35835007274E+03  0.35835007274E+03  0.00000000000E+00 0.  1.
          1   -1    0    0  501    0  0.00000000000E+00 -0.00000000000E+00 -0.12010154171E+04  0.12010154171E+04  0.00000000000E+00 0. -1.
        -24    2    1    2    0    0 -0.29602848376E+03  0.13305202219E+03 -0.33066154299E+03  0.47002156623E+03  0.79041210175E+02 0.  0.
        254    2    1    2    0    0  0.29602848376E+03 -0.13305202219E+03 -0.51200380141E+03  0.10893439237E+04  0.90508927049E+03 0.  0.
         23    2    4    4    0    0  0.30459315459E+03  0.34489286058E+03 -0.31200223724E+03  0.56304932144E+03  0.89168757057E+02 0.  0.
         23    2    4    4    0    0 -0.85646708293E+01 -0.47794488276E+03 -0.20000156417E+03  0.52629460222E+03  0.92090814440E+02 0.  0.
          1    1    3    3  502    0 -0.10865855500E+03  0.64272490841E+02 -0.18041153143E+03  0.22019526636E+03  0.00000000000E+00 0. -1.
         -2    1    3    3    0  502 -0.18736992875E+03  0.68779531347E+02 -0.15025001156E+03  0.24982629987E+03  0.00000000000E+00 0.  1.
         11    1    5    5    0    0  0.48572001475E+02  0.19116617017E+02 -0.53167742403E+02  0.74508343195E+02  0.00000000000E+00 0.  1.
        -11    1    5    5    0    0  0.25602115311E+03  0.32577624356E+03 -0.25883449484E+03  0.48854097825E+03  0.00000000000E+00 0. -1.
          4    1    6    6  503    0 -0.42467498474E+01 -0.43634849138E+03 -0.20849663063E+03  0.48362060109E+03  0.00000000000E+00 0. -1.
         -4    1    6    6    0  503 -0.43179209819E+01 -0.41596391387E+02  0.84950664637E+01  0.42674001128E+02  0.00000000000E+00 0.  1.
<mgrwt>
<rscale>  0 0.13120731E+04</rscale>
<asrwt>0</asrwt>
<pdfrwt beam="1">  1        1 0.18477160E+00 0.13120731E+04</pdfrwt>
<pdfrwt beam="2">  1       -2 0.55130781E-01 0.13120731E+04</pdfrwt>
<totfact> 0.28410434E+01</totfact>
</mgrwt>
</event>
<event>
12    4  0.4207946E-008  0.1505437E+04  0.7818608E-02  0.8880846E-01
         -2   -1    0    0    0  501 -0.00000000000E+00  0.00000000000E+00  0.29524803336E+03  0.29524803336E+03  0.00000000000E+00 0.  1.
          1   -1    0    0  501    0  0.00000000000E+00 -0.00000000000E+00 -0.19190133741E+04  0.19190133741E+04  0.00000000000E+00 0. -1.
        -24    2    1    2    0    0 -0.18872747235E+03  0.43911488691E+03 -0.46554157566E+03  0.67182853434E+03  0.78642724804E+02 0.  0.
        254    2    1    2    0    0  0.18872747235E+03 -0.43911488691E+03 -0.11582237651E+04  0.15424328731E+04  0.89954262564E+03 0.  0.
         23    2    4    4    0    0  0.25623607902E+03 -0.58239787305E+03 -0.11938015184E+04  0.13558424956E+04  0.91118586319E+02 0.  0.
         23    2    4    4    0    0 -0.67508606664E+02  0.14328298614E+03  0.35577753365E+02  0.18659037749E+03  0.91993295118E+02 0.  0.
          1    1    3    3  502    0 -0.17064497109E+03  0.40083872360E+03 -0.38752501373E+03  0.58306691276E+03  0.00000000000E+00 0. -1.
         -2    1    3    3    0  502 -0.18082501264E+02  0.38276163306E+02 -0.78016561933E+02  0.88761621578E+02  0.00000000000E+00 0.  1.
         11    1    5    5    0    0  0.25797087459E+03 -0.52947172178E+03 -0.10749330181E+04  0.12257121480E+04  0.00000000000E+00 0.  1.
        -11    1    5    5    0    0 -0.17347955724E+01 -0.52926151264E+02 -0.11886850032E+03  0.13013034762E+03  0.00000000000E+00 0. -1.
          4    1    6    6  503    0 -0.15118762523E+02  0.21390286359E+02  0.46601590903E+02  0.53458671939E+02  0.00000000000E+00 0. -1.
         -4    1    6    6    0  503 -0.52389844141E+02  0.12189269978E+03 -0.11023837538E+02  0.13313170555E+03  0.00000000000E+00 0.  1.
<mgrwt>
<rscale>  0 0.15054367E+04</rscale>
<asrwt>0</asrwt>
<pdfrwt beam="1">  1        1 0.29523283E+00 0.15054367E+04</pdfrwt>
<pdfrwt beam="2">  1       -2 0.45422775E-01 0.15054367E+04</pdfrwt>
<totfact> 0.13200275E+01</totfact>
</mgrwt>
</event>
<event>
12    4  0.4207946E-008  0.1852403E+04  0.7818608E-02  0.8678918E-01
          1   -1    0    0  501    0  0.00000000000E+00  0.00000000000E+00  0.67551926107E+03  0.67551926107E+03  0.00000000000E+00 0. -1.
         -2   -1    0    0    0  501 -0.00000000000E+00 -0.00000000000E+00 -0.12699110381E+04  0.12699110381E+04  0.00000000000E+00 0.  1.
        -24    2    1    2    0    0  0.46332746745E+03 -0.31588373184E+03  0.21327066388E+03  0.60519670538E+03  0.79522336438E+02 0.  0.
        254    2    1    2    0    0 -0.46332746745E+03  0.31588373184E+03 -0.80766244089E+03  0.13402335938E+04  0.91074287991E+03 0.  0.
         23    2    4    4    0    0  0.84653865287E+02  0.45481442391E+03 -0.50897411898E+03  0.69392674739E+03  0.91963252695E+02 0.  0.
         23    2    4    4    0    0 -0.54798133274E+03 -0.13893069207E+03 -0.29868832192E+03  0.64630684639E+03  0.94406291112E+02 0.  0.
          1    1    3    3  502    0  0.44910250061E+03 -0.31775426775E+03  0.21516318518E+03  0.59072500116E+03  0.00000000000E+00 0. -1.
         -2    1    3    3    0  502  0.14224966840E+02  0.18705359168E+01 -0.18925213019E+01  0.14471704222E+02  0.00000000000E+00 0.  1.
         11    1    5    5    0    0  0.86668358780E+02  0.25618894313E+03 -0.32890864649E+03  0.42582282317E+03  0.00000000000E+00 0. -1.
        -11    1    5    5    0    0 -0.20144934932E+01  0.19862548078E+03 -0.18006547248E+03  0.26810392421E+03  0.00000000000E+00 0.  1.
          4    1    6    6  503    0 -0.18023670473E+03 -0.20727447564E+01 -0.10682111027E+03  0.20952402154E+03  0.00000000000E+00 0. -1.
         -4    1    6    6    0  503 -0.36774462801E+03 -0.13685794732E+03 -0.19186721165E+03  0.43678282485E+03  0.00000000000E+00 0.  1.
<mgrwt>
<rscale>  0 0.18524032E+04</rscale>
<asrwt>0</asrwt>
<pdfrwt beam="1">  1        1 0.10392604E+00 0.18524032E+04</pdfrwt>
<pdfrwt beam="2">  1       -2 0.19537093E+00 0.18524032E+04</pdfrwt>
<totfact> 0.33731070E+00</totfact>
</mgrwt>
</event>
<event>
12    4  0.4207946E-008  0.1627266E+04  0.7818608E-02  0.8803970E-01
          1   -1    0    0  501    0  0.00000000000E+00  0.00000000000E+00  0.93575805761E+03  0.93575805761E+03  0.00000000000E+00 0. -1.
         -2   -1    0    0    0  501 -0.00000000000E+00 -0.00000000000E+00 -0.70744666692E+03  0.70744666692E+03  0.00000000000E+00 0.  1.
        -24    2    1    2    0    0 -0.40940519124E+03  0.36719153457E+03  0.21447716755E+03  0.59569541348E+03  0.80064577424E+02 0.  0.
        254    2    1    2    0    0  0.40940519124E+03 -0.36719153457E+03  0.13834223136E+02  0.10475093110E+04  0.89142702300E+03 0.  0.
         23    2    4    4    0    0  0.45891035993E+03  0.16605251972E+03  0.66043327734E+02  0.50158576808E+03  0.95154631230E+02 0.  0.
         23    2    4    4    0    0 -0.49505168692E+02 -0.53324405429E+03 -0.52209104598E+02  0.54592354297E+03  0.92231995519E+02 0.  0.
          3    1    3    3  502    0 -0.10871197896E+03  0.76645116457E+02  0.19851151890E+02  0.13448730972E+03  0.00000000000E+00 0. -1.
         -4    1    3    3    0  502 -0.30069321228E+03  0.29054641812E+03  0.19462601566E+03  0.46120810375E+03  0.00000000000E+00 0.  1.
         11    1    5    5    0    0  0.36288161378E+03  0.91977243105E+02  0.66987616265E+02  0.38030279989E+03  0.00000000000E+00 0.  1.
        -11    1    5    5    0    0  0.96028746153E+02  0.74075276615E+02 -0.94428853103E+00  0.12128296819E+03  0.00000000000E+00 0. -1.
          2    1    6    6  503    0 -0.72788877006E+01 -0.31678616570E+03 -0.70534684899E+02  0.32462532057E+03  0.00000000000E+00 0.  1.
         -2    1    6    6    0  503 -0.42226280992E+02 -0.21645788860E+03  0.18325580301E+02  0.22129822240E+03  0.00000000000E+00 0. -1.
<mgrwt>
<rscale>  0 0.16272663E+04</rscale>
<asrwt>0</asrwt>
<pdfrwt beam="1">  1        1 0.14396278E+00 0.16272663E+04</pdfrwt>
<pdfrwt beam="2">  1       -2 0.10883795E+00 0.16272663E+04</pdfrwt>
<totfact> 0.96260110E+00</totfact>
</mgrwt>
</event>
<event>
12    4  0.4207946E-008  0.4039031E+04  0.7818608E-02  0.7996719E-01
          1   -1    0    0  501    0  0.00000000000E+00  0.00000000000E+00  0.15082756191E+04  0.15082756191E+04  0.00000000000E+00 0. -1.
         -2   -1    0    0    0  501 -0.00000000000E+00 -0.00000000000E+00 -0.27040439968E+04  0.27040439968E+04  0.00000000000E+00 0.  1.
        -24    2    1    2    0    0 -0.84793318422E+03 -0.69341983114E+03 -0.22096817109E+04  0.24675618904E+04  0.79666005478E+02 0.  0.
        254    2    1    2    0    0  0.84793318422E+03  0.69341983114E+03  0.10139133332E+04  0.17447577255E+04  0.90351398779E+03 0.  0.
         23    2    4    4    0    0  0.50737979233E+03  0.68179885302E+03  0.23144730597E+03  0.88577662175E+03  0.93533088034E+02 0.  0.
         23    2    4    4    0    0  0.34055339189E+03  0.11620978116E+02  0.78246602726E+03  0.85898110371E+03  0.97384767026E+02 0.  0.
          1    1    3    3  502    0 -0.14878531007E+03 -0.87397263967E+02 -0.37397679174E+03  0.41186647230E+03  0.00000000000E+00 0. -1.
         -2    1    3    3    0  502 -0.69914787414E+03 -0.60602256717E+03 -0.18357049192E+04  0.20556954181E+04  0.00000000000E+00 0.  1.
         11    1    5    5    0    0  0.26369536737E+02  0.77792441900E+02  0.33201449432E+02  0.88596572896E+02  0.00000000000E+00 0. -1.
        -11    1    5    5    0    0  0.48101025559E+03  0.60400641112E+03  0.19824585654E+03  0.79718004886E+03  0.00000000000E+00 0.  1.
          1    1    6    6  503    0  0.15594582314E+03  0.23196446893E+02  0.25267744183E+03  0.29783059701E+03  0.00000000000E+00 0. -1.
         -1    1    6    6    0  503  0.18460756874E+03 -0.11575468777E+02  0.52978858543E+03  0.56115050670E+03  0.00000000000E+00 0.  1.
<mgrwt>
<rscale>  0 0.40390314E+04</rscale>
<asrwt>0</asrwt>
<pdfrwt beam="1">  1        1 0.23204240E+00 0.40390314E+04</pdfrwt>
<pdfrwt beam="2">  1       -2 0.41600677E+00 0.40390314E+04</pdfrwt>
<totfact> 0.25752545E-02</totfact>
</mgrwt>
</event>
<event>
12    4  0.4207946E-008  0.2726491E+04  0.7818608E-02  0.8326461E-01
          1   -1    0    0  501    0  0.00000000000E+00  0.00000000000E+00  0.24323589612E+04  0.24323589612E+04  0.00000000000E+00 0. -1.
         -2   -1    0    0    0  501 -0.00000000000E+00 -0.00000000000E+00 -0.76404747931E+03  0.76404747931E+03  0.00000000000E+00 0.  1.
        -24    2    1    2    0    0 -0.84266583339E+03  0.26993076509E+03 -0.22961379460E+03  0.91755044698E+03  0.78917700025E+02 0.  0.
        254    2    1    2    0    0  0.84266583339E+03 -0.26993076509E+03  0.18979252765E+04  0.22788559935E+04  0.89895270145E+03 0.  0.
         23    2    4    4    0    0 -0.11075159686E+03 -0.22076180283E+03  0.20633877169E+03  0.33444815238E+03  0.90984548879E+02 0.  0.
         23    2    4    4    0    0  0.95341743024E+03 -0.49168962266E+02  0.16915865048E+04  0.19444078412E+04  0.88513085925E+02 0.  0.
          1    1    3    3  502    0 -0.26955972570E+02  0.46586750960E+00 -0.19180418199E+02  0.33086703251E+02  0.00000000000E+00 0. -1.
         -2    1    3    3    0  502 -0.81570986082E+03  0.26946489759E+03 -0.21043337640E+03  0.88446374373E+03  0.00000000000E+00 0.  1.
         11    1    5    5    0    0 -0.11588208272E+03 -0.15602855159E+03  0.12810322295E+03  0.23277457279E+03  0.00000000000E+00 0.  1.
        -11    1    5    5    0    0  0.51304858611E+01 -0.64733251236E+02  0.78235548733E+02  0.10167357959E+03  0.00000000000E+00 0. -1.
          1    1    6    6  503    0  0.14229793417E+03 -0.81488289413E-01  0.31932299542E+03  0.34959388455E+03  0.00000000000E+00 0. -1.
         -1    1    6    6    0  503  0.81111949607E+03 -0.49087473976E+02  0.13722635094E+04  0.15948139566E+04  0.00000000000E+00 0.  1.
<mgrwt>
<rscale>  0 0.27264906E+04</rscale>
<asrwt>0</asrwt>
<pdfrwt beam="1">  1        1 0.37420907E+00 0.27264906E+04</pdfrwt>
<pdfrwt beam="2">  1       -2 0.11754577E+00 0.27264906E+04</pdfrwt>
<totfact> 0.64592483E-01</totfact>
</mgrwt>
</event>
<event>
12    4  0.4207946E-008  0.1699987E+04  0.7818608E-02  0.8761372E-01
          1   -1    0    0  501    0  0.00000000000E+00  0.00000000000E+00  0.66075669123E+03  0.66075669123E+03  0.00000000000E+00 0. -1.
         -2   -1    0    0    0  501 -0.00000000000E+00 -0.00000000000E+00 -0.10934264862E+04  0.10934264862E+04  0.00000000000E+00 0.  1.
        -24    2    1    2    0    0  0.60461596311E+03  0.11682607156E+02 -0.23942479869E+03  0.65515222898E+03  0.78760794465E+02 0.  0.
        254    2    1    2    0    0 -0.60461596311E+03 -0.11682607156E+02 -0.19324499630E+03  0.10990309485E+04  0.89712231660E+03 0.  0.
         23    2    4    4    0    0 -0.72236264094E+03  0.25627332206E+03 -0.17821195324E+03  0.79143853671E+03  0.84449135460E+02 0.  0.
         23    2    4    4    0    0  0.11774667783E+03 -0.26795592922E+03 -0.15033043055E+02  0.30759241176E+03  0.93394000032E+02 0.  0.
          3    1    3    3  502    0  0.55605899488E+03 -0.29360707503E+00 -0.23871924095E+03  0.60513516505E+03  0.00000000000E+00 0. -1.
         -4    1    3    3    0  502  0.48556968236E+02  0.11976214231E+02 -0.70555774316E+00  0.50017063921E+02  0.00000000000E+00 0.  1.
         11    1    5    5    0    0 -0.56797240093E+03  0.21890784716E+03 -0.17172900934E+03  0.63245881006E+03  0.00000000000E+00 0. -1.
        -11    1    5    5    0    0 -0.15439024001E+03  0.37365474903E+02 -0.64829439036E+01  0.15897972666E+03  0.00000000000E+00 0.  1.
          1    1    6    6  503    0  0.84848701819E+02 -0.24529973492E+03  0.11204246229E+02  0.25980145744E+03  0.00000000000E+00 0. -1.
         -1    1    6    6    0  503  0.32897976014E+02 -0.22656194301E+02 -0.26237289284E+02  0.47790954321E+02  0.00000000000E+00 0.  1.
<mgrwt>
<rscale>  0 0.16999869E+04</rscale>
<asrwt>0</asrwt>
<pdfrwt beam="1">  1        1 0.10165488E+00 0.16999869E+04</pdfrwt>
<pdfrwt beam="2">  1       -2 0.16821946E+00 0.16999869E+04</pdfrwt>
<totfact> 0.54305347E+00</totfact>
</mgrwt>
</event>
<event>
12    4  0.4207946E-008  0.1376537E+04  0.7818608E-02  0.8970979E-01
         -2   -1    0    0    0  501 -0.00000000000E+00  0.00000000000E+00  0.31174293091E+03  0.31174293091E+03  0.00000000000E+00 0.  1.
          1   -1    0    0  501    0  0.00000000000E+00 -0.00000000000E+00 -0.15195653093E+04  0.15195653093E+04  0.00000000000E+00 0. -1.
        -24    2    1    2    0    0 -0.34129224906E+03  0.69712285959E+02 -0.51201258902E+03  0.62414837733E+03  0.77872354030E+02 0.  0.
        254    2    1    2    0    0  0.34129224906E+03 -0.69712285959E+02 -0.69580978936E+03  0.12071598629E+04  0.92289949046E+03 0.  0.
         23    2    4    4    0    0  0.41147895782E+03 -0.43350267811E+03 -0.40155975086E+03  0.72572130835E+03  0.90452635280E+02 0.  0.
         23    2    4    4    0    0 -0.70186708759E+02  0.36379039215E+03 -0.29425003850E+03  0.48143855453E+03  0.89052642404E+02 0.  0.
          3    1    3    3  502    0 -0.20559552883E+03  0.44040860453E+01 -0.27610951951E+03  0.34427515770E+03  0.00000000000E+00 0. -1.
         -4    1    3    3    0  502 -0.13569672023E+03  0.65308199913E+02 -0.23590306951E+03  0.27987321962E+03  0.00000000000E+00 0.  1.
         11    1    5    5    0    0  0.14092715202E+03 -0.16407302494E+03 -0.19697860750E+03  0.29254229010E+03  0.00000000000E+00 0.  1.
        -11    1    5    5    0    0  0.27055180580E+03 -0.26942965317E+03 -0.20458114336E+03  0.43317901825E+03  0.00000000000E+00 0. -1.
          3    1    6    6  503    0 -0.27195560694E+02  0.14521798679E+03 -0.17410856181E+03  0.22834546963E+03  0.00000000000E+00 0. -1.
         -3    1    6    6    0  503 -0.42991148065E+02  0.21857240536E+03 -0.12014147670E+03  0.25309308489E+03  0.00000000000E+00 0.  1.
<mgrwt>
<rscale>  0 0.13765373E+04</rscale>
<asrwt>0</asrwt>
<pdfrwt beam="1">  1        1 0.23377928E+00 0.13765373E+04</pdfrwt>
<pdfrwt beam="2">  1       -2 0.47960451E-01 0.13765373E+04</pdfrwt>
<totfact> 0.22385251E+01</totfact>
</mgrwt>
</event>
<event>
12    4  0.4207946E-008  0.1254537E+04  0.7818608E-02  0.9066416E-01
          1   -1    0    0  501    0  0.00000000000E+00  0.00000000000E+00  0.94841844849E+03  0.94841844849E+03  0.00000000000E+00 0. -1.
         -2   -1    0    0    0  501 -0.00000000000E+00 -0.00000000000E+00 -0.41486519264E+03  0.41486519264E+03  0.00000000000E+00 0.  1.
        -24    2    1    2    0    0  0.48206048071E+02 -0.23934045709E+03 -0.62346964821E+02  0.26348646078E+03  0.77008399042E+02 0.  0.
        254    2    1    2    0    0 -0.48206048071E+02  0.23934045709E+03  0.59590022067E+03  0.10997971804E+04  0.89154309344E+03 0.  0.
         23    2    4    4    0    0 -0.35689385837E+03  0.47511197727E+02  0.61975345399E+03  0.72241237297E+03  0.90303670150E+02 0.  0.
         23    2    4    4    0    0  0.30868781030E+03  0.19182925936E+03 -0.23853233322E+02  0.37738480738E+03  0.98811371441E+02 0.  0.
          1    1    3    3  502    0  0.99032298200E+00 -0.24332180420E+02  0.16771068183E+02  0.29568640002E+02  0.00000000000E+00 0. -1.
         -2    1    3    3    0  502  0.47215725089E+02 -0.21500827667E+03 -0.79118033005E+02  0.23391782078E+03  0.00000000000E+00 0.  1.
         11    1    5    5    0    0 -0.12639302571E+03  0.51694412595E+02  0.18049390004E+03  0.22633063689E+03  0.00000000000E+00 0. -1.
        -11    1    5    5    0    0 -0.23050083266E+03 -0.41832148683E+01  0.43925955395E+03  0.49608173609E+03  0.00000000000E+00 0.  1.
          2    1    6    6  503    0  0.21654628639E+03  0.17778359151E+03  0.36659112468E+01  0.28020124637E+03  0.00000000000E+00 0. -1.
         -2    1    6    6    0  503  0.92141523907E+02  0.14045667852E+02 -0.27519144569E+02  0.97183561012E+02  0.00000000000E+00 0.  1.
<mgrwt>
<rscale>  0 0.12545370E+04</rscale>
<asrwt>0</asrwt>
<pdfrwt beam="1">  1        1 0.14591053E+00 0.12545370E+04</pdfrwt>
<pdfrwt beam="2">  1       -2 0.63825415E-01 0.12545370E+04</pdfrwt>
<totfact> 0.32616369E+01</totfact>
</mgrwt>
</event>
<event>
12    4  0.4207946E-008  0.2577989E+04  0.7818608E-02  0.8375717E-01
         -2   -1    0    0    0  501 -0.00000000000E+00  0.00000000000E+00  0.36652639463E+04  0.36652639463E+04  0.00000000000E+00 0.  1.
          1   -1    0    0  501    0  0.00000000000E+00 -0.00000000000E+00 -0.45331153064E+03  0.45331153064E+03  0.00000000000E+00 0. -1.
        -24    2    1    2    0    0 -0.13124362663E+03  0.11139785341E+04  0.16263779218E+04  0.19771178571E+04  0.75609604400E+02 0.  0.
        254    2    1    2    0    0  0.13124362663E+03 -0.11139785341E+04  0.15855744938E+04  0.21414576198E+04  0.90200953333E+03 0.  0.
         23    2    4    4    0    0  0.26557427098E+03 -0.37468882233E+03  0.12084065592E+04  0.12958461986E+04  0.89719290501E+02 0.  0.
         23    2    4    4    0    0 -0.13433064436E+03 -0.73928971175E+03  0.37716793463E+03  0.84561142127E+03  0.90603669681E+02 0.  0.
          3    1    3    3  502    0 -0.29567010464E+02  0.37190446022E+03  0.48428548602E+03  0.61132607306E+03  0.00000000000E+00 0. -1.
         -4    1    3    3    0  502 -0.10167661616E+03  0.74207407386E+03  0.11420924358E+04  0.13657917840E+04  0.00000000000E+00 0.  1.
         11    1    5    5    0    0  0.12946107483E+03 -0.10835117859E+03  0.44182464536E+03  0.47297903235E+03  0.00000000000E+00 0.  1.
        -11    1    5    5    0    0  0.13611319616E+03 -0.26633764374E+03  0.76658191382E+03  0.82286716622E+03  0.00000000000E+00 0. -1.
          1    1    6    6  503    0 -0.13045335414E+03 -0.66610619520E+03  0.36699601657E+03  0.77162271679E+03  0.00000000000E+00 0. -1.
         -1    1    6    6    0  503 -0.38772902212E+01 -0.73183516546E+02  0.10171918065E+02  0.73988704479E+02  0.00000000000E+00 0.  1.
<mgrwt>
<rscale>  0 0.25779887E+04</rscale>
<asrwt>0</asrwt>
<pdfrwt beam="1">  1        1 0.69740238E-01 0.25779887E+04</pdfrwt>
<pdfrwt beam="2">  1       -2 0.56388674E+00 0.25779887E+04</pdfrwt>
<totfact> 0.28187034E-02</totfact>
</mgrwt>
</event>
<event>
12    4  0.5879915E-008  0.1741759E+04  0.7818608E-02  0.8737900E-01
          1   -1    0    0  501    0  0.00000000000E+00  0.00000000000E+00  0.21961580937E+04  0.21961580937E+04  0.00000000000E+00 0. -1.
         -2   -1    0    0    0  501 -0.00000000000E+00 -0.00000000000E+00 -0.34534438155E+03  0.34534438155E+03  0.00000000000E+00 0.  1.
        -24    2    1    2    0    0  0.34335319196E+03 -0.29941573406E+03  0.26323725576E+02  0.46349518180E+03  0.81201285617E+02 0.  0.
        254    2    1    2    0    0 -0.34335319196E+03  0.29941573406E+03  0.18244899866E+04  0.20780072935E+04  0.88419986674E+03 0.  0.
         23    2    4    4    0    0 -0.31375787795E+03  0.45147533653E+02  0.11842457010E+03  0.35044724843E+03  0.91140492401E+02 0.  0.
         23    2    4    4    0    0 -0.29595314007E+02  0.25426820041E+03  0.17060654165E+04  0.17275600450E+04  0.90974191711E+02 0.  0.
          3    1    3    3  502    0  0.20710959961E+02 -0.16791777550E+02  0.21973945177E+02  0.34550859938E+02  0.00000000000E+00 0. -1.
         -4    1    3    3    0  502  0.32264223200E+03 -0.28262395651E+03  0.43497803985E+01  0.42894432186E+03  0.00000000000E+00 0.  1.
         11    1    5    5    0    0 -0.29749418155E+02 -0.10228058882E+01  0.44203633809E+02  0.53291981145E+02  0.00000000000E+00 0. -1.
        -11    1    5    5    0    0 -0.28400845980E+03  0.46170339542E+02  0.74220936293E+02  0.29715526729E+03  0.00000000000E+00 0.  1.
          4    1    6    6  503    0  0.23676587339E+02  0.50125852626E+02  0.23546555766E+03  0.24190330865E+03  0.00000000000E+00 0. -1.
         -4    1    6    6    0  503 -0.53271901347E+02  0.20414234778E+03  0.14705998588E+04  0.14856567364E+04  0.00000000000E+00 0.  1.
<mgrwt>
<rscale>  0 0.17417587E+04</rscale>
<asrwt>0</asrwt>
<pdfrwt beam="1">  1        1 0.33787047E+00 0.17417587E+04</pdfrwt>
<pdfrwt beam="2">  1       -2 0.53129906E-01 0.17417587E+04</pdfrwt>
<totfact> 0.60994686E+00</totfact>
</mgrwt>
</event>
<event>
12    4  0.4207946E-008  0.2182964E+04  0.7818608E-02  0.8525553E-01
         -2   -1    0    0    0  501 -0.00000000000E+00  0.00000000000E+00  0.57168207774E+03  0.57168207774E+03  0.00000000000E+00 0.  1.
          1   -1    0    0  501    0  0.00000000000E+00 -0.00000000000E+00 -0.20839076105E+04  0.20839076105E+04  0.00000000000E+00 0. -1.
        -24    2    1    2    0    0 -0.29725189801E+03 -0.10162357359E+03 -0.16435825700E+04  0.16753583818E+04  0.82316472584E+02 0.  0.
        254    2    1    2    0    0  0.29725189801E+03  0.10162357359E+03  0.13135703722E+03  0.98023130641E+03  0.91919133007E+03 0.  0.
         23    2    4    4    0    0  0.42024465494E+03 -0.29178409220E+02 -0.28566422929E+03  0.51670965951E+03  0.89038591405E+02 0.  0.
         23    2    4    4    0    0 -0.12299275694E+03  0.13080198281E+03  0.41702126650E+03  0.46352164690E+03  0.93323113243E+02 0.  0.
          3    1    3    3  502    0 -0.27718801504E+03 -0.93598480672E+02 -0.13682449078E+04  0.13991740417E+04  0.00000000000E+00 0. -1.
         -4    1    3    3    0  502 -0.20063882962E+02 -0.80250929182E+01 -0.27533766216E+03  0.27618434011E+03  0.00000000000E+00 0.  1.
         11    1    5    5    0    0  0.30708923856E+03  0.13385524047E+02 -0.22833387937E+03  0.38290904032E+03  0.00000000000E+00 0. -1.
        -11    1    5    5    0    0  0.11315541639E+03 -0.42563933267E+02 -0.57330349921E+02  0.13380061919E+03  0.00000000000E+00 0.  1.
          1    1    6    6  503    0 -0.66753287855E+02  0.15575757267E+02  0.20039112045E+03  0.21179047856E+03  0.00000000000E+00 0. -1.
         -1    1    6    6    0  503 -0.56239469084E+02  0.11522622554E+03  0.21663014605E+03  0.25173116834E+03  0.00000000000E+00 0.  1.
<mgrwt>
<rscale>  0 0.21829637E+04</rscale>
<asrwt>0</asrwt>
<pdfrwt beam="1">  1        1 0.32060117E+00 0.21829637E+04</pdfrwt>
<pdfrwt beam="2">  1       -2 0.87951089E-01 0.21829637E+04</pdfrwt>
<totfact> 0.23359422E+00</totfact>
</mgrwt>
</event>
<event>
12    4  0.4207946E-008  0.2334189E+04  0.7818608E-02  0.8464561E-01
         -2   -1    0    0    0  501 -0.00000000000E+00  0.00000000000E+00  0.14043813981E+04  0.14043813981E+04  0.00000000000E+00 0.  1.
          1   -1    0    0  501    0  0.00000000000E+00 -0.00000000000E+00 -0.96990034868E+03  0.96990034868E+03  0.00000000000E+00 0. -1.
        -24    2    1    2    0    0 -0.20501327464E+03  0.94697706349E+03 -0.81972019512E+02  0.97552699959E+03  0.78342283475E+02 0.  0.
        254    2    1    2    0    0  0.20501327464E+03 -0.94697706349E+03  0.51645306892E+03  0.13987547472E+04  0.86659971661E+03 0.  0.
         23    2    4    4    0    0  0.52690558716E+03 -0.69332436165E+03  0.29278726218E+03  0.92326617573E+03  0.91476128636E+02 0.  0.
         23    2    4    4    0    0 -0.32189231252E+03 -0.25365270184E+03  0.22366580675E+03  0.47548857147E+03  0.90047956540E+02 0.  0.
          1    1    3    3  502    0 -0.19166803377E+03  0.74782505488E+03 -0.52700870396E+02  0.77379346703E+03  0.00000000000E+00 0. -1.
         -2    1    3    3    0  502 -0.13345240877E+02  0.19915200861E+03 -0.29271149116E+02  0.20173353256E+03  0.00000000000E+00 0.  1.
         11    1    5    5    0    0  0.21226453754E+03 -0.29638812288E+03  0.76458521131E+02  0.37248900485E+03  0.00000000000E+00 0. -1.
        -11    1    5    5    0    0  0.31464104962E+03 -0.39693623876E+03  0.21632874105E+03  0.55077717087E+03  0.00000000000E+00 0.  1.
          3    1    6    6  503    0 -0.18527025191E+03 -0.16444922708E+03  0.18109456054E+03  0.30686129503E+03  0.00000000000E+00 0. -1.
         -3    1    6    6    0  503 -0.13662206061E+03 -0.89203474763E+02  0.42571246207E+02  0.16862727644E+03  0.00000000000E+00 0.  1.
<mgrwt>
<rscale>  0 0.23341894E+04</rscale>
<asrwt>0</asrwt>
<pdfrwt beam="1">  1        1 0.14921544E+00 0.23341894E+04</pdfrwt>
<pdfrwt beam="2">  1       -2 0.21605868E+00 0.23341894E+04</pdfrwt>
<totfact> 0.13220586E+00</totfact>
</mgrwt>
</event>
<event>
12    4  0.4207946E-008  0.1594397E+04  0.7818608E-02  0.8823998E-01
          1   -1    0    0  501    0  0.00000000000E+00  0.00000000000E+00  0.51509830608E+03  0.51509830608E+03  0.00000000000E+00 0. -1.
         -2   -1    0    0    0  501 -0.00000000000E+00 -0.00000000000E+00 -0.12337943378E+04  0.12337943378E+04  0.00000000000E+00 0.  1.
        -24    2    1    2    0    0 -0.29011314946E+03 -0.33463332587E+03 -0.56383133918E+03  0.72134392322E+03  0.79285397535E+02 0.  0.
        254    2    1    2    0    0  0.29011314946E+03  0.33463332587E+03 -0.15486469258E+03  0.10275487207E+04  0.91418170958E+03 0.  0.
         23    2    4    4    0    0  0.26280513018E+03  0.22860525154E+03  0.35089162467E+03  0.50207151903E+03  0.87315408002E+02 0.  0.
         23    2    4    4    0    0  0.27308019276E+02  0.10602807433E+03 -0.50575631725E+03  0.52547720167E+03  0.91373719314E+02 0.  0.
          1    1    3    3  502    0 -0.67902137751E+02 -0.63532540472E+02 -0.73130736433E+02  0.11830126213E+03  0.00000000000E+00 0. -1.
         -2    1    3    3    0  502 -0.22221101170E+03 -0.27110078539E+03 -0.49070060274E+03  0.60304266109E+03  0.00000000000E+00 0.  1.
         11    1    5    5    0    0  0.18169964836E+03  0.14437863898E+03  0.17414935093E+03  0.29015159837E+03  0.00000000000E+00 0. -1.
        -11    1    5    5    0    0  0.81105481819E+02  0.84226612561E+02  0.17674227374E+03  0.21191992065E+03  0.00000000000E+00 0.  1.
          3    1    6    6  503    0 -0.15083341294E+02  0.40678684392E+01 -0.19611399725E+03  0.19673524000E+03  0.00000000000E+00 0. -1.
         -3    1    6    6    0  503  0.42391360569E+02  0.10196020589E+03 -0.30964231999E+03  0.32874196168E+03  0.00000000000E+00 0.  1.
<mgrwt>
<rscale>  0 0.15943969E+04</rscale>
<asrwt>0</asrwt>
<pdfrwt beam="1">  1        1 0.79245893E-01 0.15943969E+04</pdfrwt>
<pdfrwt beam="2">  1       -2 0.18981451E+00 0.15943969E+04</pdfrwt>
<totfact> 0.55464218E+00</totfact>
</mgrwt>
</event>
<event>
12    4  0.4207946E-008  0.1314009E+04  0.7818608E-02  0.9018529E-01
         -2   -1    0    0    0  501 -0.00000000000E+00  0.00000000000E+00  0.13491129551E+04  0.13491129551E+04  0.00000000000E+00 0.  1.
          1   -1    0    0  501    0  0.00000000000E+00 -0.00000000000E+00 -0.31995444114E+03  0.31995444114E+03  0.00000000000E+00 0. -1.
        -24    2    1    2    0    0  0.71544370540E+02 -0.26738194349E+03  0.27406700747E+02  0.28891168941E+03  0.78148169348E+02 0.  0.
        254    2    1    2    0    0 -0.71544370540E+02  0.26738194349E+03  0.10017518132E+04  0.13801557068E+04  0.90813621177E+03 0.  0.
         23    2    4    4    0    0 -0.42724513378E+02  0.45082602331E+03  0.10675018179E+04  0.11633170126E+04  0.93149628262E+02 0.  0.
         23    2    4    4    0    0 -0.28819857162E+02 -0.18344407982E+03 -0.65750004634E+02  0.21683869427E+03  0.90629143415E+02 0.  0.
          1    1    3    3  502    0  0.38609721649E+02 -0.13958312271E+03  0.53485390558E+02  0.15438538064E+03  0.00000000000E+00 0. -1.
         -2    1    3    3    0  502  0.32934648891E+02 -0.12779882078E+03 -0.26078689811E+02  0.13452630877E+03  0.00000000000E+00 0.  1.
         11    1    5    5    0    0  0.27660902649E+02  0.17419890443E+03  0.43438041528E+03  0.46882483832E+03  0.00000000000E+00 0. -1.
        -11    1    5    5    0    0 -0.70385416027E+02  0.27662711888E+03  0.63312140257E+03  0.69449217424E+03  0.00000000000E+00 0.  1.
          1    1    6    6  503    0 -0.48922378355E+02 -0.60147495198E+02 -0.46590809416E+02  0.90453434454E+02  0.00000000000E+00 0. -1.
         -1    1    6    6    0  503  0.20102521193E+02 -0.12329658462E+03 -0.19159195218E+02  0.12638525982E+03  0.00000000000E+00 0.  1.
<mgrwt>
<rscale>  0 0.13140086E+04</rscale>
<asrwt>0</asrwt>
<pdfrwt beam="1">  1        1 0.49223761E-01 0.13140086E+04</pdfrwt>
<pdfrwt beam="2">  1       -2 0.20755584E+00 0.13140086E+04</pdfrwt>
<totfact> 0.81954883E+00</totfact>
</mgrwt>
</event>
<event>
12    4  0.4207946E-008  0.1370257E+04  0.7818608E-02  0.8975634E-01
         -2   -1    0    0    0  501 -0.00000000000E+00  0.00000000000E+00  0.94034123431E+03  0.94034123431E+03  0.00000000000E+00 0.  1.
          1   -1    0    0  501    0  0.00000000000E+00 -0.00000000000E+00 -0.49918152417E+03  0.49918152417E+03  0.00000000000E+00 0. -1.
        -24    2    1    2    0    0 -0.19772353974E+03  0.32734797256E+03  0.94217520759E+02  0.39786411263E+03  0.56281591995E+02 0.  0.
        254    2    1    2    0    0  0.19772353974E+03 -0.32734797256E+03  0.34694218938E+03  0.10416586459E+04  0.90467262499E+03 0.  0.
         23    2    4    4    0    0  0.29263112833E+03 -0.59932890521E+03  0.17561290402E+03  0.69557209414E+03  0.90291373889E+02 0.  0.
         23    2    4    4    0    0 -0.94907588586E+02  0.27198093265E+03  0.17132928536E+03  0.34608655171E+03  0.86261805896E+02 0.  0.
          3    1    3    3  502    0 -0.40383584116E+02  0.11564135350E+03  0.37022797981E+02  0.12796266672E+03  0.00000000000E+00 0. -1.
         -4    1    3    3    0  502 -0.15733995562E+03  0.21170661906E+03  0.57194722777E+02  0.26990144591E+03  0.00000000000E+00 0.  1.
         11    1    5    5    0    0  0.22811341677E+03 -0.38544227215E+03  0.93406570242E+02  0.45752187209E+03  0.00000000000E+00 0. -1.
        -11    1    5    5    0    0  0.64517711553E+02 -0.21388663306E+03  0.82206333782E+02  0.23805022205E+03  0.00000000000E+00 0.  1.
          4    1    6    6  503    0 -0.99523108428E+01  0.90438357551E+02  0.95180035140E+02  0.13167150070E+03  0.00000000000E+00 0.  1.
         -4    1    6    6    0  503 -0.84955277743E+02  0.18154257510E+03  0.76149250218E+02  0.21441505101E+03  0.00000000000E+00 0. -1.
<mgrwt>
<rscale>  0 0.13702569E+04</rscale>
<asrwt>0</asrwt>
<pdfrwt beam="1">  1        1 0.76797158E-01 0.13702569E+04</pdfrwt>
<pdfrwt beam="2">  1       -2 0.14466788E+00 0.13702569E+04</pdfrwt>
<totfact> 0.12506075E+01</totfact>
</mgrwt>
</event>
<event>
12    4  0.4207946E-008  0.1455712E+04  0.7818608E-02  0.8914450E-01
          1   -1    0    0  501    0  0.00000000000E+00  0.00000000000E+00  0.17312271281E+04  0.17312271281E+04  0.00000000000E+00 0. -1.
         -2   -1    0    0    0  501 -0.00000000000E+00 -0.00000000000E+00 -0.30601102414E+03  0.30601102414E+03  0.00000000000E+00 0.  1.
        -24    2    1    2    0    0 -0.19619345371E+03  0.32939045126E+03  0.12080972195E+03  0.40979866224E+03  0.79686975042E+02 0.  0.
        254    2    1    2    0    0  0.19619345371E+03 -0.32939045126E+03  0.13044063820E+04  0.16274394900E+04  0.89447937009E+03 0.  0.
         23    2    4    4    0    0  0.12103775674E+03 -0.33730881705E+03  0.14175140493E+04  0.14649516460E+04  0.91158481281E+02 0.  0.
         23    2    4    4    0    0  0.75155696974E+02  0.79183657898E+01 -0.11310766726E+03  0.16248784397E+03  0.88869993488E+02 0.  0.
          1    1    3    3  502    0 -0.30686358792E+02  0.10866130616E+02  0.78383456748E+01  0.33483803150E+02  0.00000000000E+00 0. -1.
         -2    1    3    3    0  502 -0.16550709492E+03  0.31852432065E+03  0.11297137628E+03  0.37631485909E+03  0.00000000000E+00 0.  1.
         11    1    5    5    0    0  0.10301311076E+03 -0.31307165768E+03  0.13663393143E+04  0.14055279028E+04  0.00000000000E+00 0. -1.
        -11    1    5    5    0    0  0.18024645972E+02 -0.24237159377E+02  0.51174734997E+02  0.59423743227E+02  0.00000000000E+00 0.  1.
          3    1    6    6  503    0  0.68423573246E+02 -0.28111398412E+01 -0.12662894358E+03  0.14396033215E+03  0.00000000000E+00 0. -1.
         -3    1    6    6    0  503  0.67321237282E+01  0.10729505631E+02  0.13521276318E+02  0.18527511820E+02  0.00000000000E+00 0.  1.
<mgrwt>
<rscale>  0 0.14557123E+04</rscale>
<asrwt>0</asrwt>
<pdfrwt beam="1">  1        1 0.26634263E+00 0.14557123E+04</pdfrwt>
<pdfrwt beam="2">  1       -2 0.47078620E-01 0.14557123E+04</pdfrwt>
<totfact> 0.16538111E+01</totfact>
</mgrwt>
</event>
<event>
12    4  0.4207946E-008  0.1272138E+04  0.7818608E-02  0.9051956E-01
          1   -1    0    0  501    0  0.00000000000E+00  0.00000000000E+00  0.61456226035E+03  0.61456226035E+03  0.00000000000E+00 0. -1.
         -2   -1    0    0    0  501 -0.00000000000E+00 -0.00000000000E+00 -0.65832855539E+03  0.65832855539E+03  0.00000000000E+00 0.  1.
        -24    2    1    2    0    0 -0.29253385210E+03 -0.56500567851E+01  0.90736488862E+02  0.31660453649E+03  0.79983400471E+02 0.  0.
        254    2    1    2    0    0  0.29253385210E+03  0.56500567851E+01 -0.13450278390E+03  0.95628627924E+03  0.90043571188E+03 0.  0.
         23    2    4    4    0    0  0.42967762549E+03  0.35015042975E+03 -0.11576102355E+03  0.57393727485E+03  0.93676013911E+02 0.  0.
         23    2    4    4    0    0 -0.13714377339E+03 -0.34450037297E+03 -0.18741760352E+02  0.38234900440E+03  0.91381540943E+02 0.  0.
          3    1    3    3  502    0 -0.24001532628E+03  0.15281671068E+02  0.46821959971E+02  0.24501669791E+03  0.00000000000E+00 0. -1.
         -4    1    3    3    0  502 -0.52518525825E+02 -0.20931727853E+02  0.43914528891E+02  0.71587838586E+02  0.00000000000E+00 0.  1.
         11    1    5    5    0    0  0.43453709755E+03  0.34518084322E+03 -0.11241776858E+03  0.56622438871E+03  0.00000000000E+00 0. -1.
        -11    1    5    5    0    0 -0.48594720526E+01  0.49695865298E+01 -0.33432549620E+01  0.77128861426E+01  0.00000000000E+00 0.  1.
          1    1    6    6  503    0 -0.95940936729E+02 -0.20830873257E+03 -0.54308554084E+02  0.23568328420E+03  0.00000000000E+00 0. -1.
         -1    1    6    6    0  503 -0.41202836665E+02 -0.13619164040E+03  0.35566793731E+02  0.14666572020E+03  0.00000000000E+00 0.  1.
<mgrwt>
<rscale>  0 0.12721382E+04</rscale>
<asrwt>0</asrwt>
<pdfrwt beam="1">  1        1 0.94548040E-01 0.12721382E+04</pdfrwt>
<pdfrwt beam="2">  1       -2 0.10128132E+00 0.12721382E+04</pdfrwt>
<totfact> 0.22841103E+01</totfact>
</mgrwt>
</event>
<event>
12    4  0.4207946E-008  0.1591304E+04  0.7818608E-02  0.8825908E-01
          1   -1    0    0  501    0  0.00000000000E+00  0.00000000000E+00  0.13003064668E+04  0.13003064668E+04  0.00000000000E+00 0. -1.
         -2   -1    0    0    0  501 -0.00000000000E+00 -0.00000000000E+00 -0.48685612055E+03  0.48685612055E+03  0.00000000000E+00 0.  1.
        -24    2    1    2    0    0  0.35451224825E+02  0.53717467520E+03  0.38369200636E+03  0.66597774944E+03  0.80581548689E+02 0.  0.
        254    2    1    2    0    0 -0.35451224825E+02 -0.53717467520E+03  0.42975833985E+03  0.11211848379E+04  0.88461844261E+03 0.  0.
         23    2    4    4    0    0 -0.36466952206E+03 -0.56677526487E+03  0.20128304633E+03  0.70920765902E+03  0.90788642941E+02 0.  0.
         23    2    4    4    0    0  0.32921829723E+03  0.29600589671E+02  0.22847529353E+03  0.41197717886E+03  0.90902992305E+02 0.  0.
          3    1    3    3  502    0  0.56656566880E+01  0.29833838775E+03  0.25791564105E+03  0.39440888830E+03  0.00000000000E+00 0. -1.
         -4    1    3    3    0  502  0.29785568137E+02  0.23883628745E+03  0.12577636531E+03  0.27156886114E+03  0.00000000000E+00 0.  1.
         11    1    5    5    0    0 -0.15320916299E+02 -0.66378749997E+02  0.57375156982E+01  0.68365108160E+02  0.00000000000E+00 0.  1.
        -11    1    5    5    0    0 -0.34934860576E+03 -0.50039651487E+03  0.19554553063E+03  0.64084255086E+03  0.00000000000E+00 0. -1.
          2    1    6    6  503    0  0.10591796378E+03  0.93891627179E+01  0.25072674258E+02  0.10924930399E+03  0.00000000000E+00 0. -1.
         -2    1    6    6    0  503  0.22330033345E+03  0.20211426953E+02  0.20340261927E+03  0.30272787487E+03  0.00000000000E+00 0.  1.
<mgrwt>
<rscale>  0 0.15913041E+04</rscale>
<asrwt>0</asrwt>
<pdfrwt beam="1">  1        1 0.20004715E+00 0.15913041E+04</pdfrwt>
<pdfrwt beam="2">  1       -2 0.74900942E-01 0.15913041E+04</pdfrwt>
<totfact> 0.12196214E+01</totfact>
</mgrwt>
</event>
<event>
12    4  0.4207946E-008  0.1692711E+04  0.7818608E-02  0.8765533E-01
          1   -1    0    0  501    0  0.00000000000E+00  0.00000000000E+00  0.37190004243E+04  0.37190004243E+04  0.00000000000E+00 0. -1.
         -2   -1    0    0    0  501 -0.00000000000E+00 -0.00000000000E+00 -0.19261016517E+03  0.19261016517E+03  0.00000000000E+00 0.  1.
        -24    2    1    2    0    0 -0.38183795541E+03  0.16525818274E+03  0.21745627112E+04  0.22155124665E+04  0.81621156093E+02 0.  0.
        254    2    1    2    0    0  0.38183795541E+03 -0.16525818274E+03  0.13518275479E+04  0.16960981229E+04  0.93605589160E+03 0.  0.
         23    2    4    4    0    0  0.28365412609E+03 -0.40766560268E+03  0.25567905245E+03  0.56555112157E+03  0.88461214074E+02 0.  0.
         23    2    4    4    0    0  0.98183829316E+02  0.24240741994E+03  0.10961484954E+04  0.11305470013E+04  0.90518377237E+02 0.  0.
          3    1    3    3  502    0 -0.18395528291E+03  0.98585337790E+02  0.12798848758E+04  0.12967898482E+04  0.00000000000E+00 0. -1.
         -2    1    3    3    0  502 -0.19788267250E+03  0.66672844947E+02  0.89467783539E+03  0.91872261835E+03  0.00000000000E+00 0.  1.
         11    1    5    5    0    0  0.19482559767E+03 -0.20720029621E+03  0.15993273195E+03  0.32629351051E+03  0.00000000000E+00 0.  1.
        -11    1    5    5    0    0  0.88828528426E+02 -0.20046530647E+03  0.95746320497E+02  0.23925761106E+03  0.00000000000E+00 0. -1.
          4    1    6    6  503    0  0.10624686827E+03  0.24549949825E+03  0.10729337120E+04  0.11057780749E+04  0.00000000000E+00 0. -1.
         -4    1    6    6    0  503 -0.80630389557E+01 -0.30920783118E+01  0.23214783461E+02  0.24768926432E+02  0.00000000000E+00 0.  1.
<mgrwt>
<rscale>  0 0.16927106E+04</rscale>
<asrwt>0</asrwt>
<pdfrwt beam="1">  1        1 0.57215386E+00 0.16927106E+04</pdfrwt>
<pdfrwt beam="2">  1       -2 0.29632336E-01 0.16927106E+04</pdfrwt>
<totfact> 0.14759301E+00</totfact>
</mgrwt>
</event>
<event>
12    4  0.4207946E-008  0.1934116E+04  0.7818608E-02  0.8638059E-01
          1   -1    0    0  501    0  0.00000000000E+00  0.00000000000E+00  0.11250993659E+04  0.11250993659E+04  0.00000000000E+00 0. -1.
         -2   -1    0    0    0  501 -0.00000000000E+00 -0.00000000000E+00 -0.83121661780E+03  0.83121661780E+03  0.00000000000E+00 0.  1.
        -24    2    1    2    0    0  0.35914195920E+03  0.33143352646E+03  0.73033941912E+03  0.88266497958E+03  0.82889503275E+02 0.  0.
        254    2    1    2    0    0 -0.35914195920E+03 -0.33143352646E+03 -0.43645667099E+03  0.10736510041E+04  0.85052979003E+03 0.  0.
         23    2    4    4    0    0  0.49278476749E+02  0.13142523415E+03 -0.41677646026E+03  0.44955261737E+03  0.93241501035E+02 0.  0.
         23    2    4    4    0    0 -0.40842043595E+03 -0.46285876061E+03 -0.19680210731E+02  0.62409838677E+03  0.89810917497E+02 0.  0.
          1    1    3    3  502    0  0.23019059843E+03  0.22750864865E+03  0.54718349238E+03  0.63573396256E+03  0.00000000000E+00 0. -1.
         -4    1    3    3    0  502  0.12895136077E+03  0.10392487781E+03  0.18315592674E+03  0.24693101703E+03  0.00000000000E+00 0.  1.
         11    1    5    5    0    0  0.11690148297E+02  0.92987008903E+02 -0.35726527948E+03  0.36935311467E+03  0.00000000000E+00 0. -1.
        -11    1    5    5    0    0  0.37588328452E+02  0.38438225251E+02 -0.59511180782E+02  0.80199502706E+02  0.00000000000E+00 0.  1.
          1    1    6    6  503    0 -0.12050543013E+03 -0.10767696506E+03  0.29386282603E+02  0.16425419660E+03  0.00000000000E+00 0. -1.
         -1    1    6    6    0  503 -0.28791500581E+03 -0.35518179555E+03 -0.49066493333E+02  0.45984419017E+03  0.00000000000E+00 0.  1.
<mgrwt>
<rscale>  0 0.19341161E+04</rscale>
<asrwt>0</asrwt>
<pdfrwt beam="1">  1        1 0.17309221E+00 0.19341161E+04</pdfrwt>
<pdfrwt beam="2">  1       -2 0.12787948E+00 0.19341161E+04</pdfrwt>
<totfact> 0.44968991E+00</totfact>
</mgrwt>
</event>
<event>
12    4  0.4207946E-008  0.2217641E+04  0.7818608E-02  0.8511121E-01
         -2   -1    0    0    0  501 -0.00000000000E+00  0.00000000000E+00  0.11213718978E+04  0.11213718978E+04  0.00000000000E+00 0.  1.
          1   -1    0    0  501    0  0.00000000000E+00 -0.00000000000E+00 -0.10964093353E+04  0.10964093353E+04  0.00000000000E+00 0. -1.
        -24    2    1    2    0    0 -0.14097476425E+03 -0.78899562993E+03  0.46912265324E+03  0.93226527210E+03  0.81575030305E+02 0.  0.
        254    2    1    2    0    0  0.14097476425E+03  0.78899562993E+03 -0.44416009073E+03  0.12855159610E+04  0.90160141503E+03 0.  0.
         23    2    4    4    0    0 -0.61110490962E+02  0.33789084280E+03  0.24575583061E+03  0.43201739779E+03  0.91314784992E+02 0.  0.
         23    2    4    4    0    0  0.20208525522E+03  0.45110478713E+03 -0.68991592134E+03  0.85349856321E+03  0.90232142478E+02 0.  0.
          1    1    3    3  502    0 -0.76883321034E+02 -0.61860993676E+03  0.35388156090E+03  0.71681340533E+03  0.00000000000E+00 0. -1.
         -2    1    3    3    0  502 -0.64091443220E+02 -0.17038569318E+03  0.11524109234E+03  0.21545186677E+03  0.00000000000E+00 0.  1.
         11    1    5    5    0    0 -0.48372440312E+02  0.33628931624E+03  0.22462436035E+03  0.40729166510E+03  0.00000000000E+00 0.  1.
        -11    1    5    5    0    0 -0.12738050650E+02  0.16015265685E+01  0.21131470266E+02  0.24725732695E+02  0.00000000000E+00 0. -1.
          3    1    6    6  503    0  0.12349177894E+03  0.29716516442E+03 -0.37398588552E+03  0.49337895879E+03  0.00000000000E+00 0. -1.
         -3    1    6    6    0  503  0.78593476279E+02  0.15393962271E+03 -0.31593003582E+03  0.36011960442E+03  0.00000000000E+00 0.  1.
<mgrwt>
<rscale>  0 0.22176407E+04</rscale>
<asrwt>0</asrwt>
<pdfrwt beam="1">  1        1 0.16867836E+00 0.22176407E+04</pdfrwt>
<pdfrwt beam="2">  1       -2 0.17251875E+00 0.22176407E+04</pdfrwt>
<totfact> 0.20833746E+00</totfact>
</mgrwt>
</event>
<event>
12    4  0.4207946E-008  0.2322161E+04  0.7818608E-02  0.8469234E-01
          1   -1    0    0  501    0  0.00000000000E+00  0.00000000000E+00  0.20724244813E+04  0.20724244813E+04  0.00000000000E+00 0. -1.
         -2   -1    0    0    0  501 -0.00000000000E+00 -0.00000000000E+00 -0.65049811376E+03  0.65049811376E+03  0.00000000000E+00 0.  1.
        -24    2    1    2    0    0 -0.24310838136E+03  0.87030762283E+03  0.15377788027E+03  0.92192015438E+03  0.98752676683E+02 0.  0.
        254    2    1    2    0    0  0.24310838136E+03 -0.87030762283E+03  0.12681484873E+04  0.18010024407E+04  0.90491555528E+03 0.  0.
         23    2    4    4    0    0 -0.32506736571E+03 -0.19185012505E+03  0.40692890052E+03  0.56268803893E+03  0.92473976638E+02 0.  0.
         23    2    4    4    0    0  0.56817574707E+03 -0.67845749778E+03  0.86121958680E+03  0.12383144018E+04  0.92709897819E+02 0.  0.
          1    1    3    3  502    0 -0.25837340272E+02  0.37081079379E+02 -0.76309455133E+01  0.45834549520E+02  0.00000000000E+00 0. -1.
         -2    1    3    3    0  502 -0.21727104109E+03  0.83322654345E+03  0.16140882578E+03  0.87608560486E+03  0.00000000000E+00 0.  1.
         11    1    5    5    0    0 -0.42629579554E+02  0.61024337043E+01  0.56003840017E+02  0.70646661965E+02  0.00000000000E+00 0.  1.
        -11    1    5    5    0    0 -0.28243778615E+03 -0.19795255875E+03  0.35092506050E+03  0.49204137697E+03  0.00000000000E+00 0. -1.
          1    1    6    6  503    0  0.24418223889E+03 -0.24093902864E+03  0.37699732621E+03  0.50970929487E+03  0.00000000000E+00 0. -1.
         -1    1    6    6    0  503  0.32399350818E+03 -0.43751846914E+03  0.48422226059E+03  0.72860510692E+03  0.00000000000E+00 0.  1.
<mgrwt>
<rscale>  0 0.23221612E+04</rscale>
<asrwt>0</asrwt>
<pdfrwt beam="1">  1        1 0.31883453E+00 0.23221612E+04</pdfrwt>
<pdfrwt beam="2">  1       -2 0.10007663E+00 0.23221612E+04</pdfrwt>
<totfact> 0.17389164E+00</totfact>
</mgrwt>
</event>
<event>
12    4  0.4207946E-008  0.1636171E+04  0.7818608E-02  0.8798630E-01
          1   -1    0    0  501    0  0.00000000000E+00  0.00000000000E+00  0.78115232103E+03  0.78115232103E+03  0.00000000000E+00 0. -1.
         -2   -1    0    0    0  501 -0.00000000000E+00 -0.00000000000E+00 -0.85676462638E+03  0.85676462638E+03  0.00000000000E+00 0.  1.
        -24    2    1    2    0    0  0.45491924320E+03 -0.28295937384E+03  0.14586546876E+03  0.56156082280E+03  0.84001771689E+02 0.  0.
        254    2    1    2    0    0 -0.45491924320E+03  0.28295937384E+03 -0.22147777411E+03  0.10763561246E+04  0.90690273871E+03 0.  0.
         23    2    4    4    0    0 -0.19997000774E+03 -0.22484405251E+03  0.19177108628E+03  0.36832090210E+03  0.91330638052E+02 0.  0.
         23    2    4    4    0    0 -0.25494923547E+03  0.50780342635E+03 -0.41324886039E+03  0.70803522251E+03  0.87611775574E+02 0.  0.
          1    1    3    3  502    0  0.31803515800E+03 -0.20597444288E+03  0.14145326809E+03  0.40445130720E+03  0.00000000000E+00 0. -1.
         -2    1    3    3    0  502  0.13688408521E+03 -0.76984930963E+02  0.44122006714E+01  0.15710951560E+03  0.00000000000E+00 0.  1.
         11    1    5    5    0    0 -0.83060227130E+02 -0.96529828927E+02  0.13524127531E+03  0.18576116858E+03  0.00000000000E+00 0.  1.
        -11    1    5    5    0    0 -0.11690978061E+03 -0.12831422358E+03  0.56529810968E+02  0.18255973352E+03  0.00000000000E+00 0. -1.
          4    1    6    6  503    0 -0.25594950331E+03  0.45832205128E+03 -0.38554621093E+03  0.65131799583E+03  0.00000000000E+00 0.  1.
         -4    1    6    6    0  503  0.10002678385E+01  0.49481375075E+02 -0.27702649461E+02  0.56717226679E+02  0.00000000000E+00 0. -1.
<mgrwt>
<rscale>  0 0.16361707E+04</rscale>
<asrwt>0</asrwt>
<pdfrwt beam="1">  1        1 0.12017728E+00 0.16361707E+04</pdfrwt>
<pdfrwt beam="2">  1       -2 0.13180994E+00 0.16361707E+04</pdfrwt>
<totfact> 0.80688658E+00</totfact>
</mgrwt>
</event>
<event>
12    4  0.4207946E-008  0.1875708E+04  0.7818608E-02  0.8667044E-01
         -2   -1    0    0    0  501 -0.00000000000E+00  0.00000000000E+00  0.52298675568E+03  0.52298675568E+03  0.00000000000E+00 0.  1.
          1   -1    0    0  501    0  0.00000000000E+00 -0.00000000000E+00 -0.16818201705E+04  0.16818201705E+04  0.00000000000E+00 0. -1.
        -24    2    1    2    0    0  0.37790787501E+03  0.39027083640E+03  0.10636665754E+03  0.55901047708E+03  0.77802055971E+02 0.  0.
        254    2    1    2    0    0 -0.37790787501E+03 -0.39027083640E+03 -0.12652000724E+04  0.16457964491E+04  0.90154813571E+03 0.  0.
         23    2    4    4    0    0 -0.18558632864E+03 -0.33180167534E+03 -0.31284426205E+02  0.39210721539E+03  0.90745335455E+02 0.  0.
         23    2    4    4    0    0 -0.19232154637E+03 -0.58469161060E+02 -0.12339156462E+04  0.12536892337E+04  0.93715808963E+02 0.  0.
          3    1    3    3  502    0  0.24388629010E+03  0.26417611154E+03  0.33517246846E+02  0.36109963479E+03  0.00000000000E+00 0. -1.
         -4    1    3    3    0  502  0.13402158492E+03  0.12609472485E+03  0.72849410699E+02  0.19791084230E+03  0.00000000000E+00 0.  1.
         11    1    5    5    0    0 -0.48128272760E+02 -0.28901319267E+02  0.96650047150E+01  0.56965157863E+02  0.00000000000E+00 0.  1.
        -11    1    5    5    0    0 -0.13745805588E+03 -0.30290035607E+03 -0.40949430920E+02  0.33514205753E+03  0.00000000000E+00 0. -1.
          3    1    6    6  503    0 -0.17623806543E+03 -0.24768163380E+02 -0.88047748849E+03  0.89828387793E+03  0.00000000000E+00 0. -1.
         -3    1    6    6    0  503 -0.16083480941E+02 -0.33700997679E+02 -0.35343815770E+03  0.35540535579E+03  0.00000000000E+00 0.  1.
<mgrwt>
<rscale>  0 0.18757075E+04</rscale>
<asrwt>0</asrwt>
<pdfrwt beam="1">  1        1 0.25874156E+00 0.18757075E+04</pdfrwt>
<pdfrwt beam="2">  1       -2 0.80459501E-01 0.18757075E+04</pdfrwt>
<totfact> 0.55076580E+00</totfact>
</mgrwt>
</event>
<event>
12    4  0.4207946E-008  0.2114296E+04  0.7818608E-02  0.8554972E-01
         -2   -1    0    0    0  501 -0.00000000000E+00  0.00000000000E+00  0.10685614298E+04  0.10685614298E+04  0.00000000000E+00 0.  1.
          1   -1    0    0  501    0  0.00000000000E+00 -0.00000000000E+00 -0.10458568894E+04  0.10458568894E+04  0.00000000000E+00 0. -1.
        -24    2    1    2    0    0  0.11674464141E+03  0.68863078530E+03 -0.49737979711E+03  0.86116032519E+03  0.79804594857E+02 0.  0.
        254    2    1    2    0    0 -0.11674464141E+03 -0.68863078530E+03  0.52008433749E+03  0.12532579940E+04  0.90129141330E+03 0.  0.
         23    2    4    4    0    0  0.16976869681E+03  0.15107643403E+03  0.15390896417E+03  0.28901038749E+03  0.90518150056E+02 0.  0.
         23    2    4    4    0    0 -0.28651333822E+03 -0.83970721933E+03  0.36617537333E+03  0.96424760652E+03  0.92146272149E+02 0.  0.
          1    1    3    3  502    0  0.23266288654E+02  0.10632184451E+03 -0.44545762996E+02  0.11760093456E+03  0.00000000000E+00 0. -1.
         -2    1    3    3    0  502  0.93478352757E+02  0.58230894079E+03 -0.45283403411E+03  0.74355939063E+03  0.00000000000E+00 0.  1.
         11    1    5    5    0    0  0.67702124746E+02  0.23042416435E+02  0.85733805213E+02  0.11164594039E+03  0.00000000000E+00 0.  1.
        -11    1    5    5    0    0  0.10206657207E+03  0.12803401760E+03  0.68175158956E+02  0.17736444710E+03  0.00000000000E+00 0. -1.
          1    1    6    6  503    0 -0.28180481630E+03 -0.80159299821E+03  0.36765278441E+03  0.92581524029E+03  0.00000000000E+00 0. -1.
         -1    1    6    6    0  503 -0.47085219287E+01 -0.38114221119E+02 -0.14774110893E+01  0.38432366227E+02  0.00000000000E+00 0.  1.
<mgrwt>
<rscale>  0 0.21142964E+04</rscale>
<asrwt>0</asrwt>
<pdfrwt beam="1">  1        1 0.16090106E+00 0.21142964E+04</pdfrwt>
<pdfrwt beam="2">  1       -2 0.16439407E+00 0.21142964E+04</pdfrwt>
<totfact> 0.26257920E+00</totfact>
</mgrwt>
</event>
<event>
12    4  0.4207946E-008  0.1488692E+04  0.7818608E-02  0.8892008E-01
          1   -1    0    0  501    0  0.00000000000E+00  0.00000000000E+00  0.15799081744E+04  0.15799081744E+04  0.00000000000E+00 0. -1.
         -2   -1    0    0    0  501 -0.00000000000E+00 -0.00000000000E+00 -0.35068533582E+03  0.35068533582E+03  0.00000000000E+00 0.  1.
        -24    2    1    2    0    0  0.75973136960E+02 -0.44901881012E+03  0.23565878784E+03  0.51873153761E+03  0.78469958889E+02 0.  0.
        254    2    1    2    0    0 -0.75973136960E+02  0.44901881012E+03  0.99356405073E+03  0.14118619726E+04  0.89375326425E+03 0.  0.
         23    2    4    4    0    0  0.30862602921E+02  0.70182179758E+03  0.75869936712E+03  0.10380368813E+04  0.91594221377E+02 0.  0.
         23    2    4    4    0    0 -0.10683573988E+03 -0.25280298746E+03  0.23486468361E+03  0.37382509132E+03  0.96231769754E+02 0.  0.
          3    1    3    3  502    0  0.50725887413E+02 -0.23708047781E+03  0.16748332717E+03  0.29467089013E+03  0.00000000000E+00 0. -1.
         -4    1    3    3    0  502  0.25247249547E+02 -0.21193833231E+03  0.68175460672E+02  0.22406064748E+03  0.00000000000E+00 0.  1.
         11    1    5    5    0    0  0.16930078929E+02  0.26191996798E+03  0.22053356117E+03  0.34281736945E+03  0.00000000000E+00 0. -1.
        -11    1    5    5    0    0  0.13932523992E+02  0.43990182960E+03  0.53816580595E+03  0.69521951181E+03  0.00000000000E+00 0.  1.
          1    1    6    6  503    0 -0.24166848357E+02 -0.11333043828E+03  0.15376916752E+03  0.19254293464E+03  0.00000000000E+00 0. -1.
         -1    1    6    6    0  503 -0.82668891524E+02 -0.13947254918E+03  0.81095516086E+02  0.18128215668E+03  0.00000000000E+00 0.  1.
<mgrwt>
<rscale>  0 0.14886915E+04</rscale>
<asrwt>0</asrwt>
<pdfrwt beam="1">  1        1 0.24306279E+00 0.14886915E+04</pdfrwt>
<pdfrwt beam="2">  1       -2 0.53951591E-01 0.14886915E+04</pdfrwt>
<totfact> 0.15838204E+01</totfact>
</mgrwt>
</event>
<event>
12    4  0.4207946E-008  0.1893729E+04  0.7818608E-02  0.8657984E-01
         -2   -1    0    0    0  501 -0.00000000000E+00  0.00000000000E+00  0.45930489867E+03  0.45930489867E+03  0.00000000000E+00 0.  1.
          1   -1    0    0  501    0  0.00000000000E+00 -0.00000000000E+00 -0.19519772164E+04  0.19519772164E+04  0.00000000000E+00 0. -1.
        -24    2    1    2    0    0  0.32785217676E+02 -0.15323905176E+03 -0.14908047493E+04  0.15011078586E+04  0.79176543722E+02 0.  0.
        254    2    1    2    0    0 -0.32785217676E+02  0.15323905176E+03 -0.18675683392E+01  0.91017425640E+03  0.89658051045E+03 0.  0.
         23    2    4    4    0    0 -0.11335465188E+02 -0.15480804120E+03 -0.37565339449E+03  0.41648982597E+03  0.90853067947E+02 0.  0.
         23    2    4    4    0    0 -0.21449752487E+02  0.30804709296E+03  0.37378582615E+03  0.49368443043E+03  0.93034239154E+02 0.  0.
          1    1    3    3  502    0  0.36049767191E+02 -0.12825020224E+03 -0.14142725089E+04  0.14205331498E+04  0.00000000000E+00 0. -1.
         -2    1    3    3    0  502 -0.32645495150E+01 -0.24988849519E+02 -0.76532240426E+02  0.80574708863E+02  0.00000000000E+00 0.  1.
         11    1    5    5    0    0 -0.16958965742E+01 -0.15899851167E+03 -0.37324937234E+03  0.40570740285E+03  0.00000000000E+00 0.  1.
        -11    1    5    5    0    0 -0.96395686141E+01  0.41904704706E+01 -0.24040221521E+01  0.10782423120E+02  0.00000000000E+00 0. -1.
          3    1    6    6  503    0  0.14323453937E+02  0.32491270756E+01  0.10135419601E+02  0.17845024234E+02  0.00000000000E+00 0. -1.
         -3    1    6    6    0  503 -0.35773206424E+02  0.30479796588E+03  0.36365040655E+03  0.47583940620E+03  0.00000000000E+00 0.  1.
<mgrwt>
<rscale>  0 0.18937293E+04</rscale>
<asrwt>0</asrwt>
<pdfrwt beam="1">  1        1 0.30030418E+00 0.18937293E+04</pdfrwt>
<pdfrwt beam="2">  1       -2 0.70662293E-01 0.18937293E+04</pdfrwt>
<totfact> 0.48083807E+00</totfact>
</mgrwt>
</event>
<event>
12    4  0.4207946E-008  0.1707395E+04  0.7818608E-02  0.8757158E-01
         -2   -1    0    0    0  501 -0.00000000000E+00  0.00000000000E+00  0.67178366277E+03  0.67178366277E+03  0.00000000000E+00 0.  1.
          1   -1    0    0  501    0  0.00000000000E+00 -0.00000000000E+00 -0.10848721992E+04  0.10848721992E+04  0.00000000000E+00 0. -1.
        -24    2    1    2    0    0  0.86687226121E+02  0.48842645680E+03  0.22075069980E+03  0.54878791431E+03  0.79763554025E+02 0.  0.
        254    2    1    2    0    0 -0.86687226121E+02 -0.48842645680E+03 -0.63383923626E+03  0.12078679477E+04  0.90062074303E+03 0.  0.
         23    2    4    4    0    0  0.30770048164E+03  0.76172189997E+02 -0.15629803001E+03  0.36496321476E+03  0.91034526494E+02 0.  0.
         23    2    4    4    0    0 -0.39438770776E+03 -0.56459864680E+03 -0.47754120625E+03  0.84290473294E+03  0.90163679695E+02 0.  0.
          3    1    3    3  502    0  0.28054697820E+02  0.12279150178E+03  0.19897480424E+02  0.12751756234E+03  0.00000000000E+00 0. -1.
         -4    1    3    3    0  502  0.58632528300E+02  0.36563495503E+03  0.20085321938E+03  0.42127035197E+03  0.00000000000E+00 0.  1.
         11    1    5    5    0    0  0.42148386821E+02 -0.16007107914E+02 -0.41671858470E+02  0.61394281523E+02  0.00000000000E+00 0. -1.
        -11    1    5    5    0    0  0.26555209482E+03  0.92179297911E+02 -0.11462617154E+03  0.30356893324E+03  0.00000000000E+00 0.  1.
          2    1    6    6  503    0 -0.15591322148E+03 -0.30122767746E+03 -0.24039824828E+03  0.41573833607E+03  0.00000000000E+00 0. -1.
         -2    1    6    6    0  503 -0.23847448628E+03 -0.26337096934E+03 -0.23714295797E+03  0.42716639686E+03  0.00000000000E+00 0.  1.
<mgrwt>
<rscale>  0 0.17073950E+04</rscale>
<asrwt>0</asrwt>
<pdfrwt beam="1">  1        1 0.16690341E+00 0.17073950E+04</pdfrwt>
<pdfrwt beam="2">  1       -2 0.10335133E+00 0.17073950E+04</pdfrwt>
<totfact> 0.82882997E+00</totfact>
</mgrwt>
</event>
<event>
12    4  0.4207946E-008  0.2203820E+04  0.7818608E-02  0.8516840E-01
          3   -1    0    0  501    0  0.00000000000E+00  0.00000000000E+00  0.16209831506E+04  0.16209831506E+04  0.00000000000E+00 0. -1.
         -4   -1    0    0    0  501 -0.00000000000E+00 -0.00000000000E+00 -0.74905518635E+03  0.74905518635E+03  0.00000000000E+00 0.  1.
        -24    2    1    2    0    0  0.67714361990E+03 -0.99258475609E+02 -0.27695200408E+03  0.74202254446E+03  0.74292105694E+02 0.  0.
        254    2    1    2    0    0 -0.67714361990E+03  0.99258475609E+02  0.11488799683E+04  0.16280157925E+04  0.92851198811E+03 0.  0.
         23    2    4    4    0    0 -0.95727403530E+02  0.44751827246E+03  0.52619383573E+03  0.70326237299E+03  0.90893743063E+02 0.  0.
         23    2    4    4    0    0 -0.58141621637E+03 -0.34825979685E+03  0.62268613262E+03  0.92475341953E+03  0.90006468714E+02 0.  0.
          1    1    3    3  502    0  0.56461977909E+03 -0.93787883557E+02 -0.20312958490E+03  0.60733293201E+03  0.00000000000E+00 0. -1.
         -2    1    3    3    0  502  0.11252384081E+03 -0.54705920521E+01 -0.73822419177E+02  0.13468961245E+03  0.00000000000E+00 0.  1.
         11    1    5    5    0    0 -0.21675829580E+02  0.30609609929E+03  0.33984846725E+03  0.45788824431E+03  0.00000000000E+00 0.  1.
        -11    1    5    5    0    0 -0.74051573950E+02  0.14142217317E+03  0.18634536848E+03  0.24537412868E+03  0.00000000000E+00 0. -1.
          4    1    6    6  503    0 -0.21724296144E+03 -0.17500416902E+03  0.28433107705E+03  0.39832791120E+03  0.00000000000E+00 0. -1.
         -4    1    6    6    0  503 -0.36417325493E+03 -0.17325562784E+03  0.33835505557E+03  0.52642550832E+03  0.00000000000E+00 0.  1.
<mgrwt>
<rscale>  0 0.22038202E+04</rscale>
<asrwt>0</asrwt>
<pdfrwt beam="1">  1        3 0.24938202E+00 0.22038202E+04</pdfrwt>
<pdfrwt beam="2">  1       -4 0.11523926E+00 0.22038202E+04</pdfrwt>
<totfact> 0.91172383E-02</totfact>
</mgrwt>
</event>
<event>
12    4  0.4207946E-008  0.1228774E+04  0.7818608E-02  0.9088037E-01
         -2   -1    0    0    0  501 -0.00000000000E+00  0.00000000000E+00  0.22149518061E+03  0.22149518061E+03  0.00000000000E+00 0.  1.
          1   -1    0    0  501    0  0.00000000000E+00 -0.00000000000E+00 -0.17041962964E+04  0.17041962964E+04  0.00000000000E+00 0. -1.
        -24    2    1    2    0    0  0.16304203507E+03 -0.22713744155E+03 -0.35399330752E+03  0.45798009532E+03  0.79122584581E+02 0.  0.
        254    2    1    2    0    0 -0.16304203507E+03  0.22713744155E+03 -0.11287078083E+04  0.14677113817E+04  0.89555639740E+03 0.  0.
         23    2    4    4    0    0 -0.40927353611E+03 -0.13933309258E+03 -0.33273642264E+03  0.55291088110E+03  0.89879794412E+02 0.  0.
         23    2    4    4    0    0  0.24623150104E+03  0.36647053413E+03 -0.79597138565E+03  0.91480050060E+03  0.91427045393E+02 0.  0.
          3    1    3    3  502    0  0.71464764747E+02 -0.62257260911E+02 -0.16917768389E+03  0.19391819890E+03  0.00000000000E+00 0. -1.
         -4    1    3    3    0  502  0.91577270323E+02 -0.16488018064E+03 -0.18481562362E+03  0.26406189642E+03  0.00000000000E+00 0.  1.
         11    1    5    5    0    0 -0.87041420707E+02 -0.51279041271E+02 -0.12005937927E+03  0.15690762743E+03  0.00000000000E+00 0.  1.
        -11    1    5    5    0    0 -0.32223211540E+03 -0.88054051306E+02 -0.21267704336E+03  0.39600325367E+03  0.00000000000E+00 0. -1.
          4    1    6    6  503    0  0.64537782838E+02  0.15835164955E+03 -0.24966354668E+03  0.30260908260E+03  0.00000000000E+00 0.  1.
         -4    1    6    6    0  503  0.18169371820E+03  0.20811888457E+03 -0.54630783897E+03  0.61219141800E+03  0.00000000000E+00 0. -1.
<mgrwt>
<rscale>  0 0.12287738E+04</rscale>
<asrwt>0</asrwt>
<pdfrwt beam="1">  1        1 0.26218404E+00 0.12287738E+04</pdfrwt>
<pdfrwt beam="2">  1       -2 0.34076182E-01 0.12287738E+04</pdfrwt>
<totfact> 0.33103037E+01</totfact>
</mgrwt>
</event>
<event>
12    4  0.4207946E-008  0.2391762E+04  0.7818608E-02  0.8442594E-01
          1   -1    0    0  501    0  0.00000000000E+00  0.00000000000E+00  0.20823708077E+04  0.20823708077E+04  0.00000000000E+00 0. -1.
         -2   -1    0    0    0  501 -0.00000000000E+00 -0.00000000000E+00 -0.68678058487E+03  0.68678058487E+03  0.00000000000E+00 0.  1.
        -24    2    1    2    0    0  0.27968387216E+03 -0.55888397033E+03  0.15445579309E+04  0.16681916323E+04  0.81423334284E+02 0.  0.
        254    2    1    2    0    0 -0.27968387216E+03  0.55888397033E+03 -0.14896770808E+03  0.11009597603E+04  0.89406188550E+03 0.  0.
         23    2    4    4    0    0 -0.51243702198E+03  0.61547964689E+03 -0.56795631503E+01  0.80609332313E+03  0.91363509765E+02 0.  0.
         23    2    4    4    0    0  0.23275314982E+03 -0.56595676555E+02 -0.14328814493E+03  0.29486643717E+03  0.95066418558E+02 0.  0.
          3    1    3    3  502    0  0.25679886683E+03 -0.54738711717E+03  0.14818899504E+04  0.16004924677E+04  0.00000000000E+00 0. -1.
         -4    1    3    3    0  502  0.22885005337E+02 -0.11496853161E+02  0.62667980534E+02  0.67699164589E+02  0.00000000000E+00 0.  1.
         11    1    5    5    0    0 -0.41471144170E+03  0.44186257900E+03 -0.20231545828E+02  0.60633112574E+03  0.00000000000E+00 0.  1.
        -11    1    5    5    0    0 -0.97725580287E+02  0.17361706788E+03  0.14551982678E+02  0.19976219738E+03  0.00000000000E+00 0. -1.
          2    1    6    6  503    0  0.16110903393E+03 -0.81760332692E+02 -0.11311067395E+03  0.21315463255E+03  0.00000000000E+00 0. -1.
         -2    1    6    6    0  503  0.71644115886E+02  0.25164656137E+02 -0.30177470983E+02  0.81711804621E+02  0.00000000000E+00 0.  1.
<mgrwt>
<rscale>  0 0.23917624E+04</rscale>
<asrwt>0</asrwt>
<pdfrwt beam="1">  1        1 0.32036474E+00 0.23917624E+04</pdfrwt>
<pdfrwt beam="2">  1       -2 0.10565855E+00 0.23917624E+04</pdfrwt>
<totfact> 0.14947162E+00</totfact>
</mgrwt>
</event>
<event>
12    4  0.4207946E-008  0.2574872E+04  0.7818608E-02  0.8376787E-01
         -2   -1    0    0    0  501 -0.00000000000E+00  0.00000000000E+00  0.61546643189E+03  0.61546643189E+03  0.00000000000E+00 0.  1.
          1   -1    0    0  501    0  0.00000000000E+00 -0.00000000000E+00 -0.26930663353E+04  0.26930663353E+04  0.00000000000E+00 0. -1.
        -24    2    1    2    0    0  0.50113076313E+03 -0.54187839816E+03 -0.20034299226E+04  0.21365097592E+04  0.78601884532E+02 0.  0.
        254    2    1    2    0    0 -0.50113076313E+03  0.54187839816E+03 -0.74169980800E+02  0.11720230080E+04  0.90739875746E+03 0.  0.
         23    2    4    4    0    0 -0.49254554828E+03  0.70669491381E+03 -0.26292779711E+03  0.90532097699E+03  0.91957743209E+02 0.  0.
         23    2    4    4    0    0 -0.85852148425E+01 -0.16481651565E+03  0.18875781631E+03  0.26670203099E+03  0.90897031687E+02 0.  0.
          1    1    3    3  502    0  0.31402141267E+03 -0.39328647564E+03 -0.13697837686E+04  0.14593119174E+04  0.00000000000E+00 0. -1.
         -2    1    3    3    0  502  0.18710935046E+03 -0.14859192252E+03 -0.63364615400E+03  0.67719784180E+03  0.00000000000E+00 0.  1.
         11    1    5    5    0    0 -0.39877814076E+02  0.35586788009E+02 -0.36587199835E+02  0.64771002216E+02  0.00000000000E+00 0.  1.
        -11    1    5    5    0    0 -0.45266773421E+03  0.67110812581E+03 -0.22634059728E+03  0.84054997477E+03  0.00000000000E+00 0. -1.
          2    1    6    6  503    0  0.18949545650E+02 -0.15396275746E+03  0.17562033890E+03  0.23432054840E+03  0.00000000000E+00 0. -1.
         -2    1    6    6    0  503 -0.27534760493E+02 -0.10853758193E+02  0.13137477414E+02  0.32381482596E+02  0.00000000000E+00 0.  1.
<mgrwt>
<rscale>  0 0.25748724E+04</rscale>
<asrwt>0</asrwt>
<pdfrwt beam="1">  1        1 0.41431790E+00 0.25748724E+04</pdfrwt>
<pdfrwt beam="2">  1       -2 0.94687143E-01 0.25748724E+04</pdfrwt>
<totfact> 0.72331886E-01</totfact>
</mgrwt>
</event>
<event>
12    4  0.4207946E-008  0.2313346E+04  0.7818608E-02  0.8472677E-01
          1   -1    0    0  501    0  0.00000000000E+00  0.00000000000E+00  0.19855265213E+04  0.19855265213E+04  0.00000000000E+00 0. -1.
         -2   -1    0    0    0  501 -0.00000000000E+00 -0.00000000000E+00 -0.67382273282E+03  0.67382273282E+03  0.00000000000E+00 0.  1.
        -24    2    1    2    0    0 -0.14004755050E+03  0.43010996216E+03  0.15640282848E+04  0.16300321629E+04  0.78819291020E+02 0.  0.
        254    2    1    2    0    0  0.14004755050E+03 -0.43010996216E+03 -0.25232449625E+03  0.10293170913E+04  0.88950442775E+03 0.  0.
         23    2    4    4    0    0 -0.21440879987E+02  0.47851128221E+02  0.27485503421E+03  0.29371710313E+03  0.89302883698E+02 0.  0.
         23    2    4    4    0    0  0.16148843048E+03 -0.47796109038E+03 -0.52717953045E+03  0.73559998812E+03  0.93079364530E+02 0.  0.
          3    1    3    3  502    0 -0.58552189667E+02  0.29972262662E+03  0.10429518287E+04  0.10867430831E+04  0.00000000000E+00 0. -1.
         -4    1    3    3    0  502 -0.81495360829E+02  0.13038733554E+03  0.52107645608E+03  0.54328907976E+03  0.00000000000E+00 0.  1.
         11    1    5    5    0    0  0.14719633889E+02 -0.19503987857E+02  0.98868975497E+02  0.10184374050E+03  0.00000000000E+00 0. -1.
        -11    1    5    5    0    0 -0.36160513876E+02  0.67355116078E+02  0.17598605871E+03  0.19187336263E+03  0.00000000000E+00 0.  1.
          4    1    6    6  503    0  0.15675119370E+03 -0.46235156894E+03 -0.47585777702E+03  0.68174814557E+03  0.00000000000E+00 0.  1.
         -4    1    6    6    0  503  0.47372367878E+01 -0.15609521439E+02 -0.51321753427E+02  0.53851842557E+02  0.00000000000E+00 0. -1.
<mgrwt>
<rscale>  0 0.23133464E+04</rscale>
<asrwt>0</asrwt>
<pdfrwt beam="1">  1        1 0.30546562E+00 0.23133464E+04</pdfrwt>
<pdfrwt beam="2">  1       -2 0.10366504E+00 0.23133464E+04</pdfrwt>
<totfact> 0.18325942E+00</totfact>
</mgrwt>
</event>
<event>
12    4  0.4207946E-008  0.1463904E+04  0.7818608E-02  0.8908818E-01
         -2   -1    0    0    0  501 -0.00000000000E+00  0.00000000000E+00  0.33321719586E+03  0.33321719586E+03  0.00000000000E+00 0.  1.
          1   -1    0    0  501    0  0.00000000000E+00 -0.00000000000E+00 -0.16078212923E+04  0.16078212923E+04  0.00000000000E+00 0. -1.
        -24    2    1    2    0    0 -0.34201757002E+03 -0.29464485159E+03 -0.29641207798E+03  0.54578073452E+03  0.78897930432E+02 0.  0.
        254    2    1    2    0    0  0.34201757002E+03  0.29464485159E+03 -0.97819201843E+03  0.13952577536E+04  0.88661883993E+03 0.  0.
         23    2    4    4    0    0  0.33758857020E+03  0.58815979803E+03 -0.63180135950E+03  0.93129007623E+03  0.90720766534E+02 0.  0.
         23    2    4    4    0    0  0.44289998219E+01 -0.29351494644E+03 -0.34639065894E+03  0.46396767738E+03  0.95440438158E+02 0.  0.
          1    1    3    3  502    0 -0.90266682078E+02 -0.62436146320E+02 -0.35921494014E+02  0.11548463098E+03  0.00000000000E+00 0. -1.
         -2    1    3    3    0  502 -0.25175088794E+03 -0.23220870527E+03 -0.26049058397E+03  0.43029610354E+03  0.00000000000E+00 0.  1.
         11    1    5    5    0    0  0.35843104842E+02  0.12854870397E+03 -0.14324004708E+03  0.19577336015E+03  0.00000000000E+00 0.  1.
        -11    1    5    5    0    0  0.30174546536E+03  0.45961109406E+03 -0.48856131242E+03  0.73551671608E+03  0.00000000000E+00 0. -1.
          1    1    6    6  503    0 -0.11104357925E+02 -0.16027491451E+03 -0.25591486304E+03  0.30216514046E+03  0.00000000000E+00 0. -1.
         -1    1    6    6    0  503  0.15533357747E+02 -0.13324003193E+03 -0.90475795899E+02  0.16180253692E+03  0.00000000000E+00 0.  1.
<mgrwt>
<rscale>  0 0.14639040E+04</rscale>
<asrwt>0</asrwt>
<pdfrwt beam="1">  1        1 0.24735712E+00 0.14639040E+04</pdfrwt>
<pdfrwt beam="2">  1       -2 0.51264185E-01 0.14639040E+04</pdfrwt>
<totfact> 0.16872633E+01</totfact>
</mgrwt>
</event>
<event>
12    4  0.4207946E-008  0.1689352E+04  0.7818608E-02  0.8767461E-01
         -2   -1    0    0    0  501 -0.00000000000E+00  0.00000000000E+00  0.60304539295E+03  0.60304539295E+03  0.00000000000E+00 0.  1.
          1   -1    0    0  501    0  0.00000000000E+00 -0.00000000000E+00 -0.11831242454E+04  0.11831242454E+04  0.00000000000E+00 0. -1.
        -24    2    1    2    0    0 -0.57750034878E+03  0.17151998426E+03 -0.11116207568E+03  0.61696724201E+03  0.73251708567E+02 0.  0.
        254    2    1    2    0    0  0.57750034878E+03 -0.17151998426E+03 -0.46891677672E+03  0.11692023963E+04  0.88556509764E+03 0.  0.
         23    2    4    4    0    0  0.41892511147E+03 -0.52212110388E+03 -0.28408803929E+03  0.73279812573E+03  0.90434412024E+02 0.  0.
         23    2    4    4    0    0  0.15857523732E+03  0.35060111962E+03 -0.18482873743E+03  0.43640427056E+03  0.90662970484E+02 0.  0.
          1    1    3    3  502    0 -0.81463355497E+02  0.18085290645E+02 -0.41155645763E+02  0.93043770370E+02  0.00000000000E+00 0. -1.
         -2    1    3    3    0  502 -0.49603699328E+03  0.15343469361E+03 -0.70006429916E+02  0.52392347164E+03  0.00000000000E+00 0.  1.
         11    1    5    5    0    0  0.20612211915E+03 -0.30278674525E+03 -0.11710644519E+03  0.38455176584E+03  0.00000000000E+00 0.  1.
        -11    1    5    5    0    0  0.21280299231E+03 -0.21933435863E+03 -0.16698159410E+03  0.34824635989E+03  0.00000000000E+00 0. -1.
          2    1    6    6  503    0  0.15149976048E+03  0.29606596463E+03 -0.18666677968E+03  0.38138133079E+03  0.00000000000E+00 0. -1.
         -2    1    6    6    0  503  0.70754768398E+01  0.54535154985E+02  0.18380422515E+01  0.55022939771E+02  0.00000000000E+00 0.  1.
<mgrwt>
<rscale>  0 0.16893521E+04</rscale>
<asrwt>0</asrwt>
<pdfrwt beam="1">  1        1 0.18201911E+00 0.16893521E+04</pdfrwt>
<pdfrwt beam="2">  1       -2 0.92776215E-01 0.16893521E+04</pdfrwt>
<totfact> 0.90466786E+00</totfact>
</mgrwt>
</event>
<event>
12    4  0.4207946E-008  0.1191846E+04  0.7818608E-02  0.9120023E-01
          1   -1    0    0  501    0  0.00000000000E+00  0.00000000000E+00  0.80618395504E+03  0.80618395504E+03  0.00000000000E+00 0. -1.
         -2   -1    0    0    0  501 -0.00000000000E+00 -0.00000000000E+00 -0.44050054807E+03  0.44050054807E+03  0.00000000000E+00 0.  1.
        -24    2    1    2    0    0  0.19509374702E+03 -0.14709869359E+03  0.16807337615E+03  0.30774665156E+03  0.82217674451E+02 0.  0.
        254    2    1    2    0    0 -0.19509374702E+03  0.14709869359E+03  0.19761003082E+03  0.93893785155E+03  0.88479091824E+03 0.  0.
         23    2    4    4    0    0  0.89552138823E+02 -0.18473061711E+03  0.39186517870E+03  0.45184657377E+03  0.91989246554E+02 0.  0.
         23    2    4    4    0    0 -0.28464588584E+03  0.33182931071E+03 -0.19425514788E+03  0.48709127778E+03  0.91590821793E+02 0.  0.
          1    1    3    3  502    0  0.37746555779E+02 -0.59924484236E+02  0.81945009118E+02  0.10830849830E+03  0.00000000000E+00 0. -1.
         -2    1    3    3    0  502  0.15734719124E+03 -0.87174209357E+02  0.86128367027E+02  0.19943815326E+03  0.00000000000E+00 0.  1.
         11    1    5    5    0    0  0.90162927968E+02 -0.11498056019E+03  0.31955702363E+03  0.35137810711E+03  0.00000000000E+00 0. -1.
        -11    1    5    5    0    0 -0.61078914475E+00 -0.69750056922E+02  0.72308155071E+02  0.10046846666E+03  0.00000000000E+00 0.  1.
          1    1    6    6  503    0 -0.16879953153E+03  0.17680168729E+03 -0.60441290061E+02  0.25180402701E+03  0.00000000000E+00 0. -1.
         -1    1    6    6    0  503 -0.11584635432E+03  0.15502762342E+03 -0.13381385782E+03  0.23528725077E+03  0.00000000000E+00 0.  1.
<mgrwt>
<rscale>  0 0.11918464E+04</rscale>
<asrwt>0</asrwt>
<pdfrwt beam="1">  1        1 0.12402830E+00 0.11918464E+04</pdfrwt>
<pdfrwt beam="2">  1       -2 0.67769315E-01 0.11918464E+04</pdfrwt>
<totfact> 0.37803787E+01</totfact>
</mgrwt>
</event>
<event>
12    4  0.4207946E-008  0.1119716E+04  0.7818608E-02  0.9186186E-01
         -2   -1    0    0    0  501 -0.00000000000E+00  0.00000000000E+00  0.43993197926E+03  0.43993197926E+03  0.00000000000E+00 0.  1.
          1   -1    0    0  501    0  0.00000000000E+00 -0.00000000000E+00 -0.71247597702E+03  0.71247597702E+03  0.00000000000E+00 0. -1.
        -24    2    1    2    0    0  0.53369750869E+02 -0.15250287665E+03 -0.10286549985E+03  0.20808129188E+03  0.81308396089E+02 0.  0.
        254    2    1    2    0    0 -0.53369750869E+02  0.15250287665E+03 -0.16967849792E+03  0.94432666441E+03  0.91479866570E+03 0.  0.
         23    2    4    4    0    0 -0.20744213769E+03  0.27600562379E+03 -0.45918751310E+03  0.58167908228E+03  0.91027675582E+02 0.  0.
         23    2    4    4    0    0  0.15407238682E+03 -0.12350274714E+03  0.28950901518E+03  0.36264758213E+03  0.93309002909E+02 0.  0.
          3    1    3    3  502    0  0.49176772935E+02 -0.15534609328E+03 -0.74325360804E+02  0.17909501096E+03  0.00000000000E+00 0. -1.
         -4    1    3    3    0  502  0.41929779341E+01  0.28432166230E+01 -0.28540139041E+02  0.28986280914E+02  0.00000000000E+00 0.  1.
         11    1    5    5    0    0 -0.59827783671E+02  0.54471661440E+02 -0.17204193573E+03  0.19011826122E+03  0.00000000000E+00 0. -1.
        -11    1    5    5    0    0 -0.14761435402E+03  0.22153396235E+03 -0.28714557737E+03  0.39156082106E+03  0.00000000000E+00 0.  1.
          1    1    6    6  503    0  0.14423747334E+03 -0.10018026142E+03  0.28796430017E+03  0.33728915142E+03  0.00000000000E+00 0. -1.
         -1    1    6    6    0  503  0.98349134823E+01 -0.23322485719E+02  0.15447150005E+01  0.25358430704E+02  0.00000000000E+00 0.  1.
<mgrwt>
<rscale>  0 0.11197160E+04</rscale>
<asrwt>0</asrwt>
<pdfrwt beam="1">  1        1 0.10961169E+00 0.11197160E+04</pdfrwt>
<pdfrwt beam="2">  1       -2 0.67681844E-01 0.11197160E+04</pdfrwt>
<totfact> 0.46252664E+01</totfact>
</mgrwt>
</event>
<event>
12    4  0.4207946E-008  0.3634073E+04  0.7818608E-02  0.8082731E-01
          1   -1    0    0  501    0  0.00000000000E+00  0.00000000000E+00  0.30089334978E+04  0.30089334978E+04  0.00000000000E+00 0. -1.
         -2   -1    0    0    0  501 -0.00000000000E+00 -0.00000000000E+00 -0.10972729104E+04  0.10972729104E+04  0.00000000000E+00 0.  1.
        -24    2    1    2    0    0 -0.13149163803E+04  0.51443390023E+03 -0.17784604003E+03  0.14252786480E+04  0.78375286884E+02 0.  0.
        254    2    1    2    0    0  0.13149163803E+04 -0.51443390023E+03  0.20895066275E+04  0.26809277601E+04  0.90977380918E+03 0.  0.
         23    2    4    4    0    0  0.52011148892E+03 -0.26425914325E+03  0.16106887711E+04  0.17156198455E+04  0.93189492009E+02 0.  0.
         23    2    4    4    0    0  0.79480489140E+03 -0.25017475698E+03  0.47881785641E+03  0.96530791461E+03  0.90832846328E+02 0.  0.
          3    1    3    3  502    0 -0.12007571127E+04  0.47377003920E+03 -0.14048648838E+03  0.12984653046E+04  0.00000000000E+00 0. -1.
         -4    1    3    3    0  502 -0.11415926762E+03  0.40663861037E+02 -0.37359551651E+02  0.12681334345E+03  0.00000000000E+00 0.  1.
         11    1    5    5    0    0  0.18932263667E+03 -0.10663568863E+03  0.47638512495E+03  0.52360005550E+03  0.00000000000E+00 0.  1.
        -11    1    5    5    0    0  0.33078885225E+03 -0.15762345462E+03  0.11343036461E+04  0.11920197900E+04  0.00000000000E+00 0. -1.
          2    1    6    6  503    0  0.76281819116E+03 -0.22386245202E+03  0.46794958476E+03  0.92248729209E+03  0.00000000000E+00 0. -1.
         -2    1    6    6    0  503  0.31986700241E+02 -0.26312304962E+02  0.10868271651E+02  0.42820622525E+02  0.00000000000E+00 0.  1.
<mgrwt>
<rscale>  0 0.36340728E+04</rscale>
<asrwt>0</asrwt>
<pdfrwt beam="1">  1        1 0.46291284E+00 0.36340728E+04</pdfrwt>
<pdfrwt beam="2">  1       -2 0.16881122E+00 0.36340728E+04</pdfrwt>
<totfact> 0.90852218E-02</totfact>
</mgrwt>
</event>
<event>
12    4  0.4207946E-008  0.1826355E+04  0.7818608E-02  0.8692408E-01
         -2   -1    0    0    0  501 -0.00000000000E+00  0.00000000000E+00  0.62980209836E+03  0.62980209836E+03  0.00000000000E+00 0.  1.
          1   -1    0    0  501    0  0.00000000000E+00 -0.00000000000E+00 -0.13240556100E+04  0.13240556100E+04  0.00000000000E+00 0. -1.
        -24    2    1    2    0    0 -0.15627774841E+03 -0.66868518601E+03 -0.41324546014E+03  0.80521826006E+03  0.77730453312E+02 0.  0.
        254    2    1    2    0    0  0.15627774841E+03  0.66868518601E+03 -0.28100805145E+03  0.11486394483E+04  0.87683775266E+03 0.  0.
         23    2    4    4    0    0 -0.25959953729E+03  0.62756187687E+03 -0.16264831817E+03  0.70421136264E+03  0.90737747404E+02 0.  0.
         23    2    4    4    0    0  0.41587728570E+03  0.41123309139E+02 -0.11835973328E+03  0.44442808562E+03  0.94139542764E+02 0.  0.
          3    1    3    3  502    0 -0.60153051190E+02 -0.17663938044E+03 -0.78810455877E+02  0.20256097415E+03  0.00000000000E+00 0. -1.
         -4    1    3    3    0  502 -0.96124697219E+02 -0.49204580556E+03 -0.33443500427E+03  0.60265728591E+03  0.00000000000E+00 0.  1.
         11    1    5    5    0    0 -0.26477604318E+03  0.59538790708E+03 -0.16274213155E+03  0.67162349148E+03  0.00000000000E+00 0. -1.
        -11    1    5    5    0    0  0.51765058831E+01  0.32173969789E+02  0.93813382805E-01  0.32587871151E+02  0.00000000000E+00 0.  1.
          3    1    6    6  503    0  0.40919077793E+03  0.39797240233E+02 -0.97558319447E+02  0.42253820983E+03  0.00000000000E+00 0. -1.
         -3    1    6    6    0  503  0.66865077769E+01  0.13260689066E+01 -0.20801413834E+02  0.21889875799E+02  0.00000000000E+00 0.  1.
<mgrwt>
<rscale>  0 0.18263548E+04</rscale>
<asrwt>0</asrwt>
<pdfrwt beam="1">  1        1 0.20370086E+00 0.18263548E+04</pdfrwt>
<pdfrwt beam="2">  1       -2 0.96892632E-01 0.18263548E+04</pdfrwt>
<totfact> 0.63914126E+00</totfact>
</mgrwt>
</event>
<event>
12    4  0.5001523E-008  0.1385073E+04  0.7818608E-02  0.8964695E-01
          1   -1    0    0  501    0  0.00000000000E+00  0.00000000000E+00  0.21382810902E+04  0.21382810902E+04  0.00000000000E+00 0. -1.
         -2   -1    0    0    0  501 -0.00000000000E+00 -0.00000000000E+00 -0.22429559424E+03  0.22429559424E+03  0.00000000000E+00 0.  1.
        -24    2    1    2    0    0  0.74641215122E+02 -0.10744647102E+03  0.12173345927E+04  0.12267173750E+04  0.76262391519E+02 0.  0.
        254    2    1    2    0    0 -0.74641215122E+02  0.10744647102E+03  0.69665090321E+03  0.11358593094E+04  0.88754596204E+03 0.  0.
         23    2    4    4    0    0  0.87018460214E+02 -0.36238856487E+03  0.37973172520E+03  0.53985927046E+03  0.91401118184E+02 0.  0.
         23    2    4    4    0    0 -0.16165967534E+03  0.46983503589E+03  0.31691917801E+03  0.59600003897E+03  0.88878959722E+02 0.  0.
          3    1    3    3  502    0  0.75155230650E+02 -0.10497314905E+03  0.12173643689E+04  0.12241910298E+04  0.00000000000E+00 0. -1.
         -4    1    3    3    0  502 -0.51401552810E+00 -0.24733219643E+01 -0.29776191595E-01  0.25263452107E+01  0.00000000000E+00 0.  1.
         11    1    5    5    0    0  0.96654508970E+02 -0.32570966517E+03  0.36635737646E+03  0.49964648241E+03  0.00000000000E+00 0. -1.
        -11    1    5    5    0    0 -0.96360487560E+01 -0.36678899696E+02  0.13374348740E+02  0.40212788050E+02  0.00000000000E+00 0.  1.
          1    1    6    6  503    0 -0.14780842657E+03  0.43145303718E+03  0.25696930870E+03  0.52348092599E+03  0.00000000000E+00 0. -1.
         -1    1    6    6    0  503 -0.13851248762E+02  0.38381998701E+02  0.59949869308E+02  0.72519112974E+02  0.00000000000E+00 0.  1.
<mgrwt>
<rscale>  0 0.13850733E+04</rscale>
<asrwt>0</asrwt>
<pdfrwt beam="1">  1        1 0.32896631E+00 0.13850733E+04</pdfrwt>
<pdfrwt beam="2">  1       -2 0.34507016E-01 0.13850733E+04</pdfrwt>
<totfact> 0.16216467E+01</totfact>
</mgrwt>
</event>
<event>
12    4  0.4207946E-008  0.1335269E+04  0.7818608E-02  0.9002055E-01
         -2   -1    0    0    0  501 -0.00000000000E+00  0.00000000000E+00  0.42519735004E+03  0.42519735004E+03  0.00000000000E+00 0.  1.
          1   -1    0    0  501    0  0.00000000000E+00 -0.00000000000E+00 -0.10483036789E+04  0.10483036789E+04  0.00000000000E+00 0. -1.
        -24    2    1    2    0    0  0.18937116923E+03  0.87033097083E+01  0.16522354924E+03  0.26365413045E+03  0.79230625050E+02 0.  0.
        254    2    1    2    0    0 -0.18937116923E+03 -0.87033097083E+01 -0.78832987811E+03  0.12098468985E+04  0.89795786859E+03 0.  0.
         23    2    4    4    0    0 -0.13930612988E+03 -0.40550727268E+03 -0.17667491595E+03  0.47255632952E+03  0.90846643422E+02 0.  0.
         23    2    4    4    0    0 -0.50065039345E+02  0.39680396297E+03 -0.61165496216E+03  0.73729056898E+03  0.97548435029E+02 0.  0.
          3    1    3    3  502    0  0.13428096197E+03 -0.25936951251E+02  0.13402611688E+03  0.19148655878E+03  0.00000000000E+00 0. -1.
         -4    1    3    3    0  502  0.55090207256E+02  0.34640260959E+02  0.31197432363E+02  0.72167571671E+02  0.00000000000E+00 0.  1.
         11    1    5    5    0    0 -0.13711218779E+03 -0.36057753830E+03 -0.12840552509E+03  0.40657581339E+03  0.00000000000E+00 0. -1.
        -11    1    5    5    0    0 -0.21939420940E+01 -0.44929734386E+02 -0.48269390861E+02  0.65980516125E+02  0.00000000000E+00 0.  1.
          2    1    6    6  503    0 -0.75972157064E+02  0.33600505119E+03 -0.49226530418E+03  0.60082967035E+03  0.00000000000E+00 0. -1.
         -2    1    6    6    0  503  0.25907117718E+02  0.60798911790E+02 -0.11938965798E+03  0.13646089863E+03  0.00000000000E+00 0.  1.
<mgrwt>
<rscale>  0 0.13352692E+04</rscale>
<asrwt>0</asrwt>
<pdfrwt beam="1">  1        1 0.16127749E+00 0.13352692E+04</pdfrwt>
<pdfrwt beam="2">  1       -2 0.65414977E-01 0.13352692E+04</pdfrwt>
<totfact> 0.25682982E+01</totfact>
</mgrwt>
</event>
<event>
12    4  0.4207946E-008  0.2115254E+04  0.7818608E-02  0.8554554E-01
          1   -1    0    0  501    0  0.00000000000E+00  0.00000000000E+00  0.95578315626E+03  0.95578315626E+03  0.00000000000E+00 0. -1.
         -2   -1    0    0    0  501 -0.00000000000E+00 -0.00000000000E+00 -0.11703227773E+04  0.11703227773E+04  0.00000000000E+00 0.  1.
        -24    2    1    2    0    0  0.11098441310E+03  0.57541523110E+02  0.76635557602E+03  0.78066314901E+03  0.80656782042E+02 0.  0.
        254    2    1    2    0    0 -0.11098441310E+03 -0.57541523110E+02 -0.98089519705E+03  0.13454427845E+04  0.91237729698E+03 0.  0.
         23    2    4    4    0    0  0.11856025058E+03  0.38194663724E+03 -0.36242995751E+03  0.54763332220E+03  0.92773998388E+02 0.  0.
         23    2    4    4    0    0 -0.22954466368E+03 -0.43948816035E+03 -0.61846523954E+03  0.79780946233E+03  0.90333216248E+02 0.  0.
          3    1    3    3  502    0  0.60432540615E+02  0.31049514230E+02  0.61774574724E+03  0.62147081391E+03  0.00000000000E+00 0. -1.
         -4    1    3    3    0  502  0.50551872488E+02  0.26492008881E+02  0.14860982878E+03  0.15919233510E+03  0.00000000000E+00 0.  1.
         11    1    5    5    0    0  0.86789958940E+02  0.35723411467E+03 -0.30597080070E+03  0.47829576680E+03  0.00000000000E+00 0.  1.
        -11    1    5    5    0    0  0.31770291636E+02  0.24712522569E+02 -0.56459156811E+02  0.69337555409E+02  0.00000000000E+00 0. -1.
          3    1    6    6  503    0 -0.66351807910E+02 -0.75391823320E+02 -0.17081621014E+03  0.19815314048E+03  0.00000000000E+00 0. -1.
         -3    1    6    6    0  503 -0.16319285577E+03 -0.36409633703E+03 -0.44764902940E+03  0.59965632185E+03  0.00000000000E+00 0.  1.
<mgrwt>
<rscale>  0 0.21152539E+04</rscale>
<asrwt>0</asrwt>
<pdfrwt beam="1">  1        1 0.14704356E+00 0.21152539E+04</pdfrwt>
<pdfrwt beam="2">  1       -2 0.18004966E+00 0.21152539E+04</pdfrwt>
<totfact> 0.23918212E+00</totfact>
</mgrwt>
</event>
<event>
12    4  0.4207946E-008  0.1889598E+04  0.7818608E-02  0.8660051E-01
         -2   -1    0    0    0  501 -0.00000000000E+00  0.00000000000E+00  0.66447344416E+03  0.66447344416E+03  0.00000000000E+00 0.  1.
          1   -1    0    0  501    0  0.00000000000E+00 -0.00000000000E+00 -0.13433876008E+04  0.13433876008E+04  0.00000000000E+00 0. -1.
        -24    2    1    2    0    0 -0.40277635842E+01 -0.52330478394E+03 -0.79853801701E+03  0.95818115469E+03  0.81142102602E+02 0.  0.
        254    2    1    2    0    0  0.40277635842E+01  0.52330478394E+03  0.11962386041E+03  0.10496798902E+04  0.90202765158E+03 0.  0.
         23    2    4    4    0    0 -0.99385340765E+02  0.75059726265E+03  0.16662985672E+03  0.78068028039E+03  0.91774148791E+02 0.  0.
         23    2    4    4    0    0  0.10341310435E+03 -0.22729247871E+03 -0.47005996316E+02  0.26899960984E+03  0.88289780705E+02 0.  0.
          3    1    3    3  502    0 -0.39334753161E+02 -0.25601428636E+03 -0.36272599878E+03  0.44571368368E+03  0.00000000000E+00 0. -1.
         -4    1    3    3    0  502  0.35306989576E+02 -0.26729049758E+03 -0.43581201824E+03  0.51246747101E+03  0.00000000000E+00 0.  1.
         11    1    5    5    0    0 -0.12805441045E+02  0.22877654760E+02 -0.78048347825E+01  0.27354740972E+02  0.00000000000E+00 0.  1.
        -11    1    5    5    0    0 -0.86579899720E+02  0.72771960789E+03  0.17443469151E+03  0.75332553942E+03  0.00000000000E+00 0. -1.
          1    1    6    6  503    0  0.37356418433E+02 -0.26845196094E+02 -0.34641680305E+02  0.57586565844E+02  0.00000000000E+00 0. -1.
         -1    1    6    6    0  503  0.66056685917E+02 -0.20044728261E+03 -0.12364316012E+02  0.21141304400E+03  0.00000000000E+00 0.  1.
<mgrwt>
<rscale>  0 0.18895982E+04</rscale>
<asrwt>0</asrwt>
<pdfrwt beam="1">  1        1 0.20667501E+00 0.18895982E+04</pdfrwt>
<pdfrwt beam="2">  1       -2 0.10222669E+00 0.18895982E+04</pdfrwt>
<totfact> 0.54251133E+00</totfact>
</mgrwt>
</event>
<event>
12    4  0.4207946E-008  0.3379948E+04  0.7818608E-02  0.8142845E-01
          1   -1    0    0  501    0  0.00000000000E+00  0.00000000000E+00  0.18532758453E+04  0.18532758453E+04  0.00000000000E+00 0. -1.
         -2   -1    0    0    0  501 -0.00000000000E+00 -0.00000000000E+00 -0.15410614327E+04  0.15410614327E+04  0.00000000000E+00 0.  1.
        -24    2    1    2    0    0 -0.14186028601E+04 -0.11170450600E+03 -0.50930414051E+03  0.15135008991E+04  0.79889253752E+02 0.  0.
        254    2    1    2    0    0  0.14186028601E+04  0.11170450600E+03  0.82151855307E+03  0.18808363788E+04  0.91528180338E+03 0.  0.
         23    2    4    4    0    0  0.74009665979E+03 -0.24072601417E+03  0.41357205952E+02  0.78476749856E+03  0.91964822507E+02 0.  0.
         23    2    4    4    0    0  0.67850620027E+03  0.35243052017E+03  0.78016134712E+03  0.10960688803E+04  0.90207135873E+02 0.  0.
          3    1    3    3  502    0 -0.48093804314E+03 -0.67743295117E+02 -0.14891949820E+03  0.50800351605E+03  0.00000000000E+00 0. -1.
         -2    1    3    3    0  502 -0.93766481692E+03 -0.43961210881E+02 -0.36038464231E+03  0.10054973831E+04  0.00000000000E+00 0.  1.
         11    1    5    5    0    0  0.48087074515E+03 -0.17215475467E+03 -0.14091319274E+02  0.51095254024E+03  0.00000000000E+00 0. -1.
        -11    1    5    5    0    0  0.25922591465E+03 -0.68571259502E+02  0.55448525225E+02  0.27381495833E+03  0.00000000000E+00 0.  1.
          2    1    6    6  503    0  0.67089817857E+03  0.33443052871E+03  0.75221427273E+03  0.10619672578E+04  0.00000000000E+00 0. -1.
         -2    1    6    6    0  503  0.76080216991E+01  0.17999991460E+02  0.27947074391E+02  0.34101622451E+02  0.00000000000E+00 0.  1.
<mgrwt>
<rscale>  0 0.33799479E+04</rscale>
<asrwt>0</asrwt>
<pdfrwt beam="1">  1        1 0.28511936E+00 0.33799479E+04</pdfrwt>
<pdfrwt beam="2">  1       -2 0.23708637E+00 0.33799479E+04</pdfrwt>
<totfact> 0.20966664E-01</totfact>
</mgrwt>
</event>
<event>
12    4  0.4207946E-008  0.2121469E+04  0.7818608E-02  0.8551845E-01
         -2   -1    0    0    0  501 -0.00000000000E+00  0.00000000000E+00  0.13446746732E+04  0.13446746732E+04  0.00000000000E+00 0.  1.
          1   -1    0    0  501    0  0.00000000000E+00 -0.00000000000E+00 -0.83675059697E+03  0.83675059697E+03  0.00000000000E+00 0. -1.
        -24    2    1    2    0    0 -0.62294774304E+03 -0.10268900858E+03 -0.43631594196E+03  0.77160771635E+03  0.79987146929E+02 0.  0.
        254    2    1    2    0    0  0.62294774304E+03  0.10268900858E+03  0.94424001820E+03  0.14098175538E+04  0.83509723990E+03 0.  0.
         23    2    4    4    0    0  0.15894952604E+03 -0.32520884069E+03  0.18102089617E+03  0.41510526505E+03  0.92293414377E+02 0.  0.
         23    2    4    4    0    0  0.46399821700E+03  0.42789784927E+03  0.76321912203E+03  0.99471228878E+03  0.92510509827E+02 0.  0.
          1    1    3    3  502    0 -0.53376233354E+03 -0.10014428068E+03 -0.34206994184E+03  0.64182782019E+03  0.00000000000E+00 0. -1.
         -2    1    3    3    0  502 -0.89185409503E+02 -0.25447278979E+01 -0.94246000119E+02  0.12977989616E+03  0.00000000000E+00 0.  1.
         11    1    5    5    0    0  0.15846452820E+03 -0.31800782684E+03  0.19053222618E+03  0.40316561590E+03  0.00000000000E+00 0. -1.
        -11    1    5    5    0    0  0.48499784087E+00 -0.72010138477E+01 -0.95113300145E+01  0.11939649157E+02  0.00000000000E+00 0.  1.
          2    1    6    6  503    0  0.14507156301E+03  0.79527938620E+02  0.20834476204E+03  0.26604133379E+03  0.00000000000E+00 0.  1.
         -2    1    6    6    0  503  0.31892665399E+03  0.34836991064E+03  0.55487435999E+03  0.72867095499E+03  0.00000000000E+00 0. -1.
<mgrwt>
<rscale>  0 0.21214687E+04</rscale>
<asrwt>0</asrwt>
<pdfrwt beam="1">  1        1 0.12873086E+00 0.21214687E+04</pdfrwt>
<pdfrwt beam="2">  1       -2 0.20687303E+00 0.21214687E+04</pdfrwt>
<totfact> 0.19827207E+00</totfact>
</mgrwt>
</event>
<event>
12    4  0.4207946E-008  0.3539823E+04  0.7818608E-02  0.8104417E-01
          1   -1    0    0  501    0  0.00000000000E+00  0.00000000000E+00  0.34454666940E+04  0.34454666940E+04  0.00000000000E+00 0. -1.
         -2   -1    0    0    0  501 -0.00000000000E+00 -0.00000000000E+00 -0.90919077535E+03  0.90919077535E+03  0.00000000000E+00 0.  1.
        -24    2    1    2    0    0  0.15745271765E+04 -0.29161219791E+03  0.67276335827E+03  0.17387108859E+04  0.79570754971E+02 0.  0.
        254    2    1    2    0    0 -0.15745271765E+04  0.29161219791E+03  0.18635125604E+04  0.26159465835E+04  0.89795543409E+03 0.  0.
         23    2    4    4    0    0 -0.32896007902E+03  0.42952351836E+03  0.35755194546E+03  0.65455728847E+03  0.88863174484E+02 0.  0.
         23    2    4    4    0    0 -0.12455670974E+04 -0.13791132045E+03  0.15059606149E+04  0.19613892950E+04  0.93132520605E+02 0.  0.
          1    1    3    3  502    0  0.27765481121E+03 -0.61201248264E+02  0.15122529627E+03  0.32203552166E+03  0.00000000000E+00 0. -1.
         -2    1    3    3    0  502  0.12968723652E+04 -0.23041094964E+03  0.52153806200E+03  0.14166753642E+04  0.00000000000E+00 0.  1.
         11    1    5    5    0    0 -0.55689940934E+02  0.11775741540E+03  0.55387097381E+02  0.14154825664E+03  0.00000000000E+00 0. -1.
        -11    1    5    5    0    0 -0.27327013809E+03  0.31176610296E+03  0.30216484808E+03  0.51300903183E+03  0.00000000000E+00 0.  1.
          3    1    6    6  503    0 -0.54814163613E+02  0.12498984233E+02  0.74817572841E+02  0.93586785100E+02  0.00000000000E+00 0. -1.
         -3    1    6    6    0  503 -0.11907529338E+04 -0.15041030469E+03  0.14311430421E+04  0.18678025099E+04  0.00000000000E+00 0.  1.
<mgrwt>
<rscale>  0 0.35398229E+04</rscale>
<asrwt>0</asrwt>
<pdfrwt beam="1">  1        1 0.53007179E+00 0.35398229E+04</pdfrwt>
<pdfrwt beam="2">  1       -2 0.13987551E+00 0.35398229E+04</pdfrwt>
<totfact> 0.71013675E-02</totfact>
</mgrwt>
</event>
<event>
12    4  0.4207946E-008  0.1235328E+04  0.7818608E-02  0.9082484E-01
          1   -1    0    0  501    0  0.00000000000E+00  0.00000000000E+00  0.19372712441E+04  0.19372712441E+04  0.00000000000E+00 0. -1.
         -2   -1    0    0    0  501 -0.00000000000E+00 -0.00000000000E+00 -0.19693092493E+03  0.19693092493E+03  0.00000000000E+00 0.  1.
        -24    2    1    2    0    0  0.18574749966E+02 -0.84543860916E+02  0.87425667853E+03  0.88180670248E+03  0.75931777483E+02 0.  0.
        254    2    1    2    0    0 -0.18574749966E+02  0.84543860916E+02  0.86608364063E+03  0.12523954665E+04  0.90050033109E+03 0.  0.
         23    2    4    4    0    0 -0.86969304748E+02  0.43634347719E+03  0.72714403384E+03  0.85719144813E+03  0.89885720509E+02 0.  0.
         23    2    4    4    0    0  0.68394554783E+02 -0.35179961627E+03  0.13893960679E+03  0.39520401841E+03  0.91876094298E+02 0.  0.
          1    1    3    3  502    0  0.42022686256E+02 -0.41114530083E+02  0.62164064907E+03  0.62441445156E+03  0.00000000000E+00 0. -1.
         -2    1    3    3    0  502 -0.23447936290E+02 -0.43429330833E+02  0.25261602946E+03  0.25739225092E+03  0.00000000000E+00 0.  1.
         11    1    5    5    0    0 -0.53460700496E+02  0.40265056609E+03  0.64269089013E+03  0.76028751478E+03  0.00000000000E+00 0. -1.
        -11    1    5    5    0    0 -0.33508604253E+02  0.33692911091E+02  0.84453143709E+02  0.96903933352E+02  0.00000000000E+00 0.  1.
          4    1    6    6  503    0  0.64786971277E+02 -0.35741446145E+03  0.13738243167E+03  0.38835084838E+03  0.00000000000E+00 0. -1.
         -4    1    6    6    0  503  0.36075835054E+01  0.56148451837E+01  0.15571751157E+01  0.68531700348E+01  0.00000000000E+00 0.  1.
<mgrwt>
<rscale>  0 0.12353277E+04</rscale>
<asrwt>0</asrwt>
<pdfrwt beam="1">  1        1 0.29804172E+00 0.12353277E+04</pdfrwt>
<pdfrwt beam="2">  1       -2 0.30297067E-01 0.12353277E+04</pdfrwt>
<totfact> 0.28713624E+01</totfact>
</mgrwt>
</event>
<event>
12    4  0.4207946E-008  0.1709760E+04  0.7818608E-02  0.8755817E-01
          1   -1    0    0  501    0  0.00000000000E+00  0.00000000000E+00  0.33198210146E+04  0.33198210146E+04  0.00000000000E+00 0. -1.
         -2   -1    0    0    0  501 -0.00000000000E+00 -0.00000000000E+00 -0.22013837030E+03  0.22013837030E+03  0.00000000000E+00 0.  1.
        -24    2    1    2    0    0  0.13405999887E+03 -0.34127801991E+03  0.11204856813E+03  0.39150421594E+03  0.79233195724E+02 0.  0.
        254    2    1    2    0    0 -0.13405999887E+03  0.34127801991E+03  0.29876340762E+04  0.31484551690E+04  0.92323875983E+03 0.  0.
         23    2    4    4    0    0 -0.35070140574E+03 -0.56301024719E+02  0.22365343213E+04  0.22668872288E+04  0.10261898658E+03 0.  0.
         23    2    4    4    0    0  0.21664140687E+03  0.39757904463E+03  0.75109975490E+03  0.88156794018E+03  0.89490756131E+02 0.  0.
          3    1    3    3  502    0  0.97689455645E+02 -0.18237744688E+03  0.94819997139E+02  0.22758645551E+03  0.00000000000E+00 0. -1.
         -2    1    3    3    0  502  0.36370543225E+02 -0.15890057304E+03  0.17228570987E+02  0.16391776043E+03  0.00000000000E+00 0.  1.
         11    1    5    5    0    0 -0.23287546543E+03  0.12113933987E+02  0.14538398334E+04  0.14724224906E+04  0.00000000000E+00 0. -1.
        -11    1    5    5    0    0 -0.11782594031E+03 -0.68414958706E+02  0.78269448793E+03  0.79446473818E+03  0.00000000000E+00 0.  1.
          1    1    6    6  503    0  0.15255773345E+03  0.33140463598E+03  0.64523138468E+03  0.74123305010E+03  0.00000000000E+00 0. -1.
         -1    1    6    6    0  503  0.64083673420E+02  0.66174408650E+02  0.10586837022E+03  0.14033489007E+03  0.00000000000E+00 0.  1.
<mgrwt>
<rscale>  0 0.17097602E+04</rscale>
<asrwt>0</asrwt>
<pdfrwt beam="1">  1        1 0.51074166E+00 0.17097602E+04</pdfrwt>
<pdfrwt beam="2">  1       -2 0.33867444E-01 0.17097602E+04</pdfrwt>
<totfact> 0.23644001E+00</totfact>
</mgrwt>
</event>
<event>
12    4  0.4207946E-008  0.1789780E+04  0.7818608E-02  0.8711754E-01
         -2   -1    0    0    0  501 -0.00000000000E+00  0.00000000000E+00  0.60029397640E+03  0.60029397640E+03  0.00000000000E+00 0.  1.
          1   -1    0    0  501    0  0.00000000000E+00 -0.00000000000E+00 -0.13340592560E+04  0.13340592560E+04  0.00000000000E+00 0. -1.
        -24    2    1    2    0    0 -0.51667402282E+03  0.28232064520E+03 -0.59905468850E+03  0.84372566273E+03  0.79683634288E+02 0.  0.
        254    2    1    2    0    0  0.51667402282E+03 -0.28232064520E+03 -0.13471059109E+03  0.10906275697E+04  0.90811043371E+03 0.  0.
         23    2    4    4    0    0 -0.19685861988E+03  0.57049609328E+02 -0.18782694537E+03  0.29347471530E+03  0.94023789357E+02 0.  0.
         23    2    4    4    0    0  0.71353264270E+03 -0.33937025453E+03  0.53116354286E+02  0.79715285437E+03  0.91270610171E+02 0.  0.
          1    1    3    3  502    0 -0.48632642899E+03  0.24320045496E+03 -0.56109833731E+03  0.78133936351E+03  0.00000000000E+00 0. -1.
         -2    1    3    3    0  502 -0.30347593829E+02  0.39120190239E+02 -0.37956351189E+02  0.62386299227E+02  0.00000000000E+00 0.  1.
         11    1    5    5    0    0 -0.15447606768E+02  0.29526442395E+02 -0.36933670140E+01  0.33527307009E+02  0.00000000000E+00 0. -1.
        -11    1    5    5    0    0 -0.18141101311E+03  0.27523166933E+02 -0.18413357836E+03  0.25994740829E+03  0.00000000000E+00 0.  1.
          3    1    6    6  503    0  0.18194201893E+03 -0.74905485053E+02  0.51587054706E+02  0.20340834338E+03  0.00000000000E+00 0. -1.
         -3    1    6    6    0  503  0.53159062377E+03 -0.26446476947E+03  0.15292995794E+01  0.59374451099E+03  0.00000000000E+00 0.  1.
<mgrwt>
<rscale>  0 0.17897796E+04</rscale>
<asrwt>0</asrwt>
<pdfrwt beam="1">  1        1 0.20523988E+00 0.17897796E+04</pdfrwt>
<pdfrwt beam="2">  1       -2 0.92352921E-01 0.17897796E+04</pdfrwt>
<totfact> 0.70554769E+00</totfact>
</mgrwt>
</event>
<event>
12    4  0.4207946E-008  0.3035060E+04  0.7818608E-02  0.8233790E-01
         -2   -1    0    0    0  501 -0.00000000000E+00  0.00000000000E+00  0.20553936212E+04  0.20553936212E+04  0.00000000000E+00 0.  1.
          1   -1    0    0  501    0  0.00000000000E+00 -0.00000000000E+00 -0.11204164075E+04  0.11204164075E+04  0.00000000000E+00 0. -1.
        -24    2    1    2    0    0  0.85656692091E+03  0.68947480133E+03  0.13039153527E+04  0.17075548867E+04  0.80411768406E+02 0.  0.
        254    2    1    2    0    0 -0.85656692091E+03 -0.68947480133E+03 -0.36893813900E+03  0.14682551419E+04  0.90031962084E+03 0.  0.
         23    2    4    4    0    0 -0.83577305639E+03 -0.13363889492E+03 -0.15758460974E+03  0.86625789539E+03  0.95884701960E+02 0.  0.
         23    2    4    4    0    0 -0.20793864513E+02 -0.55583590641E+03 -0.21135352926E+03  0.60199724652E+03  0.91347856212E+02 0.  0.
          1    1    3    3  502    0  0.14196071631E+03  0.11176768722E+03  0.26272068154E+03  0.31885265780E+03  0.00000000000E+00 0. -1.
         -2    1    3    3    0  502  0.71460620459E+03  0.57770711411E+03  0.10411946712E+04  0.13887022289E+04  0.00000000000E+00 0.  1.
         11    1    5    5    0    0 -0.27527998576E+03 -0.70983418643E+01 -0.24587033743E+02  0.27646695868E+03  0.00000000000E+00 0.  1.
        -11    1    5    5    0    0 -0.56049307063E+03 -0.12654055306E+03 -0.13299757600E+03  0.58979093670E+03  0.00000000000E+00 0. -1.
          3    1    6    6  503    0  0.10947060499E+02 -0.49345748635E+03 -0.18120245741E+03  0.52578936803E+03  0.00000000000E+00 0. -1.
         -3    1    6    6    0  503 -0.31740925012E+02 -0.62378420059E+02 -0.30151071843E+02  0.76207878484E+02  0.00000000000E+00 0.  1.
<mgrwt>
<rscale>  0 0.30350596E+04</rscale>
<asrwt>0</asrwt>
<pdfrwt beam="1">  1        1 0.17237176E+00 0.30350596E+04</pdfrwt>
<pdfrwt beam="2">  1       -2 0.31621440E+00 0.30350596E+04</pdfrwt>
<totfact> 0.23026085E-01</totfact>
</mgrwt>
</event>
<event>
12    4  0.4207946E-008  0.1867237E+04  0.7818608E-02  0.8671339E-01
          1   -1    0    0  501    0  0.00000000000E+00  0.00000000000E+00  0.13288068721E+04  0.13288068721E+04  0.00000000000E+00 0. -1.
         -2   -1    0    0    0  501 -0.00000000000E+00 -0.00000000000E+00 -0.65595960556E+03  0.65595960556E+03  0.00000000000E+00 0.  1.
        -24    2    1    2    0    0 -0.54708394172E+03 -0.46597546793E+03  0.20289566232E+03  0.75095630000E+03  0.79591071864E+02 0.  0.
        254    2    1    2    0    0  0.54708394172E+03  0.46597546793E+03  0.46995160424E+03  0.12338101777E+04  0.88600173150E+03 0.  0.
         23    2    4    4    0    0  0.20111895442E+03  0.60649732689E+03  0.25650628059E+02  0.64612557517E+03  0.92371331153E+02 0.  0.
         23    2    4    4    0    0  0.34596498730E+03 -0.14052185896E+03  0.44430097618E+03  0.58768460251E+03  0.92367035829E+02 0.  0.
          1    1    3    3  502    0 -0.49288161869E+03 -0.40838993070E+03  0.15531329544E+03  0.65866292235E+03  0.00000000000E+00 0. -1.
         -2    1    3    3    0  502 -0.54202323031E+02 -0.57585537224E+02  0.47582366880E+02  0.92293377646E+02  0.00000000000E+00 0.  1.
         11    1    5    5    0    0  0.18145473276E+03  0.46347129774E+03  0.47995874848E+02  0.50003506664E+03  0.00000000000E+00 0. -1.
        -11    1    5    5    0    0  0.19664221659E+02  0.14302602916E+03 -0.22345246790E+02  0.14609050853E+03  0.00000000000E+00 0.  1.
          3    1    6    6  503    0  0.17551743779E+03 -0.11856971093E+03  0.26621785526E+03  0.34020154876E+03  0.00000000000E+00 0. -1.
         -3    1    6    6    0  503  0.17044754951E+03 -0.21952148034E+02  0.17808312092E+03  0.24748305375E+03  0.00000000000E+00 0.  1.
<mgrwt>
<rscale>  0 0.18672371E+04</rscale>
<asrwt>0</asrwt>
<pdfrwt beam="1">  1        1 0.20443183E+00 0.18672371E+04</pdfrwt>
<pdfrwt beam="2">  1       -2 0.10091686E+00 0.18672371E+04</pdfrwt>
<totfact> 0.57404103E+00</totfact>
</mgrwt>
</event>
<event>
12    4  0.4207946E-008  0.1387063E+04  0.7818608E-02  0.8963237E-01
          1   -1    0    0  501    0  0.00000000000E+00  0.00000000000E+00  0.11357388972E+04  0.11357388972E+04  0.00000000000E+00 0. -1.
         -2   -1    0    0    0  501 -0.00000000000E+00 -0.00000000000E+00 -0.42350019251E+03  0.42350019251E+03  0.00000000000E+00 0.  1.
        -24    2    1    2    0    0 -0.32773254656E+03  0.15921939753E+03  0.28862595551E+03  0.46796839235E+03  0.54129801566E+02 0.  0.
        254    2    1    2    0    0  0.32773254656E+03 -0.15921939753E+03  0.42361274919E+03  0.10912706974E+04  0.93737107649E+03 0.  0.
         23    2    4    4    0    0  0.29568253403E+03 -0.52423027490E+03  0.15637471642E+03  0.62852737526E+03  0.91367759410E+02 0.  0.
         23    2    4    4    0    0  0.32050012526E+02  0.36501087737E+03  0.26723803277E+03  0.46274332212E+03  0.91951466046E+02 0.  0.
          3    1    3    3  502    0 -0.44659611176E+02  0.14227710557E+02  0.60672143340E+02  0.76668230680E+02  0.00000000000E+00 0. -1.
         -4    1    3    3    0  502 -0.28307293538E+03  0.14499168698E+03  0.22795381217E+03  0.39130016167E+03  0.00000000000E+00 0.  1.
         11    1    5    5    0    0  0.98912269618E+02 -0.23780800823E+03  0.32463483914E+02  0.25959615491E+03  0.00000000000E+00 0.  1.
        -11    1    5    5    0    0  0.19677026441E+03 -0.28642226667E+03  0.12391123251E+03  0.36893122035E+03  0.00000000000E+00 0. -1.
          4    1    6    6  503    0 -0.99792293451E+01  0.29953892175E+02 -0.84572253145E+00  0.31583792067E+02  0.00000000000E+00 0. -1.
         -4    1    6    6    0  503  0.42029241871E+02  0.33505698519E+03  0.26808375530E+03  0.43115953005E+03  0.00000000000E+00 0.  1.
<mgrwt>
<rscale>  0 0.13870626E+04</rscale>
<asrwt>0</asrwt>
<pdfrwt beam="1">  1        1 0.17472906E+00 0.13870626E+04</pdfrwt>
<pdfrwt beam="2">  1       -2 0.65153876E-01 0.13870626E+04</pdfrwt>
<totfact> 0.22161277E+01</totfact>
</mgrwt>
</event>
<event>
12    4  0.4207946E-008  0.1847645E+04  0.7818608E-02  0.8681365E-01
         -2   -1    0    0    0  501 -0.00000000000E+00  0.00000000000E+00  0.45465891068E+03  0.45465891068E+03  0.00000000000E+00 0.  1.
          1   -1    0    0  501    0  0.00000000000E+00 -0.00000000000E+00 -0.18771163892E+04  0.18771163892E+04  0.00000000000E+00 0. -1.
        -24    2    1    2    0    0  0.15651627231E+02 -0.82663918099E+02 -0.13844285661E+04  0.13893223353E+04  0.80596525976E+02 0.  0.
        254    2    1    2    0    0 -0.15651627231E+02  0.82663918099E+02 -0.38028912508E+02  0.94245296465E+03  0.93791955711E+03 0.  0.
         23    2    4    4    0    0 -0.57324291819E+02  0.12040775046E+03  0.43100829277E+03  0.46063941596E+03  0.92932353317E+02 0.  0.
         23    2    4    4    0    0  0.41672664588E+02 -0.37743832358E+02 -0.46903720528E+03  0.48181354870E+03  0.94800780156E+02 0.  0.
          3    1    3    3  502    0 -0.32828477615E+02 -0.26017752064E+02 -0.51962983025E+03  0.52131544467E+03  0.00000000000E+00 0. -1.
         -4    1    3    3    0  502  0.48480104846E+02 -0.56646166034E+02 -0.86479873581E+03  0.86800689061E+03  0.00000000000E+00 0.  1.
         11    1    5    5    0    0 -0.36565792381E+02  0.11040391378E+03  0.41862386675E+03  0.43447902500E+03  0.00000000000E+00 0. -1.
        -11    1    5    5    0    0 -0.20758499438E+02  0.10003836673E+02  0.12384426017E+02  0.26160390954E+02  0.00000000000E+00 0.  1.
          3    1    6    6  503    0  0.51463260639E+02  0.92892507009E+00 -0.38894680077E+03  0.39233779314E+03  0.00000000000E+00 0. -1.
         -3    1    6    6    0  503 -0.97905960518E+01 -0.38672757428E+02 -0.80090404508E+02  0.89475755556E+02  0.00000000000E+00 0.  1.
<mgrwt>
<rscale>  0 0.18476447E+04</rscale>
<asrwt>0</asrwt>
<pdfrwt beam="1">  1        1 0.28878714E+00 0.18476447E+04</pdfrwt>
<pdfrwt beam="2">  1       -2 0.69947525E-01 0.18476447E+04</pdfrwt>
<totfact> 0.55478068E+00</totfact>
</mgrwt>
</event>
<event>
12    4  0.4207946E-008  0.1507632E+04  0.7818608E-02  0.8879394E-01
          1   -1    0    0  501    0  0.00000000000E+00  0.00000000000E+00  0.19235202606E+04  0.19235202606E+04  0.00000000000E+00 0. -1.
         -2   -1    0    0    0  501 -0.00000000000E+00 -0.00000000000E+00 -0.29541581835E+03  0.29541581835E+03  0.00000000000E+00 0.  1.
        -24    2    1    2    0    0 -0.86508671407E+02 -0.76355911637E+02  0.11766788521E+04  0.11849383423E+04  0.78687854186E+02 0.  0.
        254    2    1    2    0    0  0.86508671407E+02  0.76355911637E+02  0.45142559009E+03  0.10339977367E+04  0.92306678014E+03 0.  0.
         23    2    4    4    0    0 -0.22438336751E+03 -0.26860893220E+02 -0.18919428224E+03  0.30842329346E+03  0.90890309272E+02 0.  0.
         23    2    4    4    0    0  0.31089203891E+03  0.10321680486E+03  0.64061987233E+03  0.72557444322E+03  0.93578219486E+02 0.  0.
          1    1    3    3  502    0 -0.80520869073E+02 -0.42148047018E+02  0.10382318248E+04  0.10422021830E+04  0.00000000000E+00 0. -1.
         -2    1    3    3    0  502 -0.59878023344E+01 -0.34207864619E+02  0.13844702732E+03  0.14273615923E+03  0.00000000000E+00 0.  1.
         11    1    5    5    0    0  0.11921887571E+01  0.13023024289E+02 -0.34997114431E+01  0.13537668036E+02  0.00000000000E+00 0. -1.
        -11    1    5    5    0    0 -0.22557555626E+03 -0.39883917509E+02 -0.18569457079E+03  0.29488562542E+03  0.00000000000E+00 0.  1.
          3    1    6    6  503    0  0.23626251284E+03  0.11619543992E+03  0.46607364997E+03  0.53529991820E+03  0.00000000000E+00 0.  1.
         -3    1    6    6    0  503  0.74629526076E+02 -0.12978635060E+02  0.17454622235E+03  0.19027452501E+03  0.00000000000E+00 0. -1.
<mgrwt>
<rscale>  0 0.15076317E+04</rscale>
<asrwt>0</asrwt>
<pdfrwt beam="1">  1        1 0.29592619E+00 0.15076317E+04</pdfrwt>
<pdfrwt beam="2">  1       -2 0.45448589E-01 0.15076317E+04</pdfrwt>
<totfact> 0.13090485E+01</totfact>
</mgrwt>
</event>
<event>
12    4  0.4207946E-008  0.1159878E+04  0.7818608E-02  0.9148719E-01
         -2   -1    0    0    0  501 -0.00000000000E+00  0.00000000000E+00  0.11341633955E+03  0.11341633955E+03  0.00000000000E+00 0.  1.
          1   -1    0    0  501    0  0.00000000000E+00 -0.00000000000E+00 -0.29654397789E+04  0.29654397789E+04  0.00000000000E+00 0. -1.
        -24    2    1    2    0    0  0.45007223617E+02  0.18997058874E+03 -0.31913369317E+03  0.38253202043E+03  0.79812015249E+02 0.  0.
        254    2    1    2    0    0 -0.45007223617E+02 -0.18997058874E+03 -0.25328897462E+04  0.26963240981E+04  0.90361424318E+03 0.  0.
         23    2    4    4    0    0 -0.18485684326E+03  0.13937615913E+03 -0.16306311975E+03  0.29791765282E+03  0.92561226244E+02 0.  0.
         23    2    4    4    0    0  0.13984961964E+03 -0.32934674788E+03 -0.23698266265E+04  0.23984064452E+04  0.90818723764E+02 0.  0.
          3    1    3    3  502    0 -0.19768468506E+02  0.17979593594E+02 -0.48894889808E+02  0.55720448510E+02  0.00000000000E+00 0. -1.
         -4    1    3    3    0  502  0.64775692123E+02  0.17199099515E+03 -0.27023880336E+03  0.32681157192E+03  0.00000000000E+00 0.  1.
         11    1    5    5    0    0 -0.35681907162E+02 -0.34088177999E+01 -0.52825580630E+02  0.63838550316E+02  0.00000000000E+00 0.  1.
        -11    1    5    5    0    0 -0.14917493609E+03  0.14278497693E+03 -0.11023753912E+03  0.23407910250E+03  0.00000000000E+00 0. -1.
          4    1    6    6  503    0  0.26667206006E+02 -0.49691040150E+02 -0.63897778486E+03  0.64146157242E+03  0.00000000000E+00 0.  1.
         -4    1    6    6    0  503  0.11318241363E+03 -0.27965570773E+03 -0.17308488416E+04  0.17569448728E+04  0.00000000000E+00 0. -1.
<mgrwt>
<rscale>  0 0.11598781E+04</rscale>
<asrwt>0</asrwt>
<pdfrwt beam="1">  1        1 0.45622155E+00 0.11598781E+04</pdfrwt>
<pdfrwt beam="2">  1       -2 0.17448666E-01 0.11598781E+04</pdfrwt>
<totfact> 0.15178050E+01</totfact>
</mgrwt>
</event>
<event>
12    4  0.4207946E-008  0.1794691E+04  0.7818608E-02  0.8709128E-01
         -4   -1    0    0    0  501 -0.00000000000E+00  0.00000000000E+00  0.55956506565E+03  0.55956506565E+03  0.00000000000E+00 0.  1.
          3   -1    0    0  501    0  0.00000000000E+00 -0.00000000000E+00 -0.14390256790E+04  0.14390256790E+04  0.00000000000E+00 0. -1.
        -24    2    1    2    0    0  0.74208716571E+02  0.16662382375E+03  0.36669443291E+03  0.41690096383E+03  0.77917740325E+02 0.  0.
        254    2    1    2    0    0 -0.74208716571E+02 -0.16662382375E+03 -0.12461550462E+04  0.15816897808E+04  0.95685408040E+03 0.  0.
         23    2    4    4    0    0 -0.39904078834E+03 -0.21617400365E+03 -0.11304979641E+04  0.12216640091E+04  0.92046475666E+02 0.  0.
         23    2    4    4    0    0  0.32483207177E+03  0.49550179906E+02 -0.11565708214E+03  0.36002577170E+03  0.90944491068E+02 0.  0.
          1    1    3    3  502    0  0.57495296305E+02  0.61388848482E+02  0.10631286901E+03  0.13556078317E+03  0.00000000000E+00 0. -1.
         -2    1    3    3    0  502  0.16713420265E+02  0.10523497527E+03  0.26038156390E+03  0.28134018066E+03  0.00000000000E+00 0.  1.
         11    1    5    5    0    0 -0.13455284129E+03 -0.89802329585E+02 -0.29814056450E+03  0.33920012042E+03  0.00000000000E+00 0. -1.
        -11    1    5    5    0    0 -0.26448794706E+03 -0.12637167407E+03 -0.83235739962E+03  0.88246388869E+03  0.00000000000E+00 0.  1.
          3    1    6    6  503    0  0.26967669046E+03  0.71689258878E+02 -0.11134319953E+03  0.30043664107E+03  0.00000000000E+00 0. -1.
         -3    1    6    6    0  503  0.55155381310E+02 -0.22139078971E+02 -0.43138826031E+01  0.59589130622E+02  0.00000000000E+00 0.  1.
<mgrwt>
<rscale>  0 0.17946905E+04</rscale>
<asrwt>0</asrwt>
<pdfrwt beam="1">  1        3 0.22138856E+00 0.17946905E+04</pdfrwt>
<pdfrwt beam="2">  1       -4 0.86086934E-01 0.17946905E+04</pdfrwt>
<totfact> 0.27631376E-01</totfact>
</mgrwt>
</event>
<event>
12    4  0.4207946E-008  0.1338688E+04  0.7818608E-02  0.8999436E-01
          1   -1    0    0  501    0  0.00000000000E+00  0.00000000000E+00  0.13179043824E+04  0.13179043824E+04  0.00000000000E+00 0. -1.
         -2   -1    0    0    0  501 -0.00000000000E+00 -0.00000000000E+00 -0.33994962903E+03  0.33994962903E+03  0.00000000000E+00 0.  1.
        -24    2    1    2    0    0 -0.28567264345E+03 -0.22283198968E+03  0.24592420730E+03  0.44497602100E+03  0.79132728309E+02 0.  0.
        254    2    1    2    0    0  0.28567264345E+03  0.22283198968E+03  0.73203054604E+03  0.12128779904E+04  0.89662776247E+03 0.  0.
         23    2    4    4    0    0  0.19286978913E+03  0.38869029350E+03 -0.77055209046E+01  0.44369355111E+03  0.92334676164E+02 0.  0.
         23    2    4    4    0    0  0.92802854318E+02 -0.16585830383E+03  0.73973606695E+03  0.76918443929E+03  0.91180623982E+02 0.  0.
          1    1    3    3  502    0 -0.80648260394E+02 -0.67209093991E+02  0.11666551921E+03  0.15694600216E+03  0.00000000000E+00 0. -1.
         -2    1    3    3    0  502 -0.20502438306E+03 -0.15562289569E+03  0.12925868809E+03  0.28803001884E+03  0.00000000000E+00 0.  1.
         11    1    5    5    0    0  0.17655571664E+02  0.12580943783E+03 -0.13184680017E+02  0.12772458513E+03  0.00000000000E+00 0. -1.
        -11    1    5    5    0    0  0.17521421747E+03  0.26288085567E+03  0.54791591121E+01  0.31596896598E+03  0.00000000000E+00 0.  1.
          2    1    6    6  503    0  0.66786691224E+02 -0.61117601835E+02  0.21191132176E+03  0.23043921469E+03  0.00000000000E+00 0. -1.
         -2    1    6    6    0  503  0.26016163093E+02 -0.10474070199E+03  0.52782474519E+03  0.53874522460E+03  0.00000000000E+00 0.  1.
<mgrwt>
<rscale>  0 0.13386876E+04</rscale>
<asrwt>0</asrwt>
<pdfrwt beam="1">  1        1 0.20275452E+00 0.13386876E+04</pdfrwt>
<pdfrwt beam="2">  1       -2 0.52299944E-01 0.13386876E+04</pdfrwt>
<totfact> 0.26043670E+01</totfact>
</mgrwt>
</event>
<event>
12    4  0.4207946E-008  0.2193291E+04  0.7818608E-02  0.8521226E-01
         -2   -1    0    0    0  501 -0.00000000000E+00  0.00000000000E+00  0.49762501663E+03  0.49762501663E+03  0.00000000000E+00 0.  1.
          1   -1    0    0  501    0  0.00000000000E+00 -0.00000000000E+00 -0.24167421356E+04  0.24167421356E+04  0.00000000000E+00 0. -1.
        -24    2    1    2    0    0 -0.22097030427E+03  0.49951340309E+03  0.16708419391E+03  0.57697113189E+03  0.81468054738E+02 0.  0.
        254    2    1    2    0    0  0.22097030427E+03 -0.49951340309E+03 -0.20862013129E+04  0.23373960204E+04  0.90157790722E+03 0.  0.
         23    2    4    4    0    0  0.26932250021E+03 -0.33566629666E+03 -0.20980211093E+04  0.21437675709E+04  0.94023139881E+02 0.  0.
         23    2    4    4    0    0 -0.48352195937E+02 -0.16384710643E+03  0.11819796450E+02  0.19362844948E+03  0.90379531544E+02 0.  0.
          3    1    3    3  502    0 -0.16460170840E+03  0.27387336331E+03  0.90214781843E+02  0.33202266248E+03  0.00000000000E+00 0. -1.
         -4    1    3    3    0  502 -0.56368595866E+02  0.22564003979E+03  0.76869412067E+02  0.24494846941E+03  0.00000000000E+00 0.  1.
         11    1    5    5    0    0  0.26450566410E+03 -0.28424865498E+03 -0.18852394351E+04  0.19248086326E+04  0.00000000000E+00 0. -1.
        -11    1    5    5    0    0  0.48168361129E+01 -0.51417641687E+02 -0.21278167422E+03  0.21895893832E+03  0.00000000000E+00 0.  1.
          1    1    6    6  503    0 -0.31842318021E+02 -0.11115336461E+03  0.50538597275E+02  0.12618697831E+03  0.00000000000E+00 0. -1.
         -1    1    6    6    0  503 -0.16509877916E+02 -0.52693741817E+02 -0.38718800825E+02  0.67441471164E+02  0.00000000000E+00 0.  1.
<mgrwt>
<rscale>  0 0.21932910E+04</rscale>
<asrwt>0</asrwt>
<pdfrwt beam="1">  1        1 0.37180648E+00 0.21932910E+04</pdfrwt>
<pdfrwt beam="2">  1       -2 0.76557696E-01 0.21932910E+04</pdfrwt>
<totfact> 0.18916460E+00</totfact>
</mgrwt>
</event>
<event>
12    4  0.4207946E-008  0.1215577E+04  0.7818608E-02  0.9099330E-01
         -2   -1    0    0    0  501 -0.00000000000E+00  0.00000000000E+00  0.26193666068E+03  0.26193666068E+03  0.00000000000E+00 0.  1.
          1   -1    0    0  501    0  0.00000000000E+00 -0.00000000000E+00 -0.14102908422E+04  0.14102908422E+04  0.00000000000E+00 0. -1.
        -24    2    1    2    0    0 -0.13396840535E+03 -0.20308734405E+02  0.54431091893E+02  0.16901785127E+03  0.85113523953E+02 0.  0.
        254    2    1    2    0    0  0.13396840535E+03  0.20308734405E+02 -0.12027852734E+04  0.15032096516E+04  0.89139601997E+03 0.  0.
         23    2    4    4    0    0 -0.22627633201E+03  0.32378025727E+03 -0.69480108271E+03  0.80461342841E+03  0.92841753696E+02 0.  0.
         23    2    4    4    0    0  0.36024473736E+03 -0.30347152286E+03 -0.50798419067E+03  0.69859622316E+03  0.90097220062E+02 0.  0.
          1    1    3    3  502    0 -0.63560445159E+02  0.51490700929E+01 -0.16516196238E+02  0.65872815711E+02  0.00000000000E+00 0. -1.
         -2    1    3    3    0  502 -0.70407960190E+02 -0.25457804498E+02  0.70947288131E+02  0.10314503556E+03  0.00000000000E+00 0.  1.
         11    1    5    5    0    0 -0.18446579598E+03  0.18765845726E+03 -0.43760031169E+03  0.51062447969E+03  0.00000000000E+00 0. -1.
        -11    1    5    5    0    0 -0.41810536035E+02  0.13612180001E+03 -0.25720077101E+03  0.29398894872E+03  0.00000000000E+00 0.  1.
          1    1    6    6  503    0  0.29763384657E+03 -0.25861444731E+03 -0.37073873929E+03  0.54121580889E+03  0.00000000000E+00 0. -1.
         -1    1    6    6    0  503  0.62610890791E+02 -0.44857075548E+02 -0.13724545137E+03  0.15738041427E+03  0.00000000000E+00 0.  1.
<mgrwt>
<rscale>  0 0.12155770E+04</rscale>
<asrwt>0</asrwt>
<pdfrwt beam="1">  1        1 0.21696783E+00 0.12155770E+04</pdfrwt>
<pdfrwt beam="2">  1       -2 0.40297946E-01 0.12155770E+04</pdfrwt>
<totfact> 0.38193493E+01</totfact>
</mgrwt>
</event>
<event>
12    4  0.4207946E-008  0.1639960E+04  0.7818608E-02  0.8796368E-01
         -2   -1    0    0    0  501 -0.00000000000E+00  0.00000000000E+00  0.76557799977E+03  0.76557799977E+03  0.00000000000E+00 0.  1.
          1   -1    0    0  501    0  0.00000000000E+00 -0.00000000000E+00 -0.87824825877E+03  0.87824825877E+03  0.00000000000E+00 0. -1.
        -24    2    1    2    0    0  0.46509554036E+03 -0.24347503036E+03 -0.27281237141E+03  0.59699340965E+03  0.79878589764E+02 0.  0.
        254    2    1    2    0    0 -0.46509554036E+03  0.24347503036E+03  0.16014211241E+03  0.10468328489E+04  0.89141436228E+03 0.  0.
         23    2    4    4    0    0 -0.22458173321E+03  0.42737918859E+03  0.41377760826E+03  0.64222364097E+03  0.90273862133E+02 0.  0.
         23    2    4    4    0    0 -0.24051380714E+03 -0.18390415823E+03 -0.25363549586E+03  0.40460920792E+03  0.87806694152E+02 0.  0.
          3    1    3    3  502    0  0.14390134215E+03 -0.48791543651E+02 -0.11025687700E+03  0.18773595801E+03  0.00000000000E+00 0. -1.
         -4    1    3    3    0  502  0.32119419821E+03 -0.19468348671E+03 -0.16255549440E+03  0.40925745164E+03  0.00000000000E+00 0.  1.
         11    1    5    5    0    0 -0.18531010566E+03  0.40358681922E+03  0.36137623898E+03  0.57255125710E+03  0.00000000000E+00 0.  1.
        -11    1    5    5    0    0 -0.39271627551E+02  0.23792369366E+02  0.52401369280E+02  0.69672383861E+02  0.00000000000E+00 0. -1.
          4    1    6    6  503    0 -0.15777378695E+02 -0.17922197108E+02 -0.60290098974E+02  0.64846178468E+02  0.00000000000E+00 0. -1.
         -4    1    6    6    0  503 -0.22473642845E+03 -0.16598196112E+03 -0.19334539688E+03  0.33976302945E+03  0.00000000000E+00 0.  1.
<mgrwt>
<rscale>  0 0.16399604E+04</rscale>
<asrwt>0</asrwt>
<pdfrwt beam="1">  1        1 0.13511512E+00 0.16399604E+04</pdfrwt>
<pdfrwt beam="2">  1       -2 0.11778123E+00 0.16399604E+04</pdfrwt>
<totfact> 0.88380812E+00</totfact>
</mgrwt>
</event>
<event>
12    4  0.4207946E-008  0.2699598E+04  0.7818608E-02  0.8335135E-01
          1   -1    0    0  501    0  0.00000000000E+00  0.00000000000E+00  0.20792239003E+04  0.20792239003E+04  0.00000000000E+00 0. -1.
         -2   -1    0    0    0  501 -0.00000000000E+00 -0.00000000000E+00 -0.87626792513E+03  0.87626792513E+03  0.00000000000E+00 0.  1.
        -24    2    1    2    0    0  0.36300836304E+03  0.11342792198E+04  0.70265881801E+03  0.13851162655E+04  0.80332026017E+02 0.  0.
        254    2    1    2    0    0 -0.36300836304E+03 -0.11342792198E+04  0.50029715718E+03  0.15703755599E+04  0.89298249350E+03 0.  0.
         23    2    4    4    0    0 -0.49701573000E+02 -0.32625886401E+03 -0.24638298481E+03  0.42282703187E+03  0.95723722087E+02 0.  0.
         23    2    4    4    0    0 -0.31330679004E+03 -0.80802035577E+03  0.74668014199E+03  0.11475485281E+04  0.90985437266E+02 0.  0.
          1    1    3    3  502    0  0.12387298086E+03  0.40307516520E+03  0.29346501916E+03  0.51374684588E+03  0.00000000000E+00 0. -1.
         -2    1    3    3    0  502  0.23913538218E+03  0.73120405459E+03  0.40919379885E+03  0.87136941964E+03  0.00000000000E+00 0.  1.
         11    1    5    5    0    0  0.26292620579E+01 -0.22724718318E+03 -0.19566145017E+03  0.29988597560E+03  0.00000000000E+00 0.  1.
        -11    1    5    5    0    0 -0.52330835058E+02 -0.99011680834E+02 -0.50721534641E+02  0.12294105627E+03  0.00000000000E+00 0. -1.
          1    1    6    6  503    0 -0.52777470798E+02 -0.24213059516E+03  0.23194826267E+03  0.33942993842E+03  0.00000000000E+00 0. -1.
         -1    1    6    6    0  503 -0.26052931924E+03 -0.56588976061E+03  0.51473187932E+03  0.80811858965E+03  0.00000000000E+00 0.  1.
<mgrwt>
<rscale>  0 0.26995979E+04</rscale>
<asrwt>0</asrwt>
<pdfrwt beam="1">  1        1 0.31988060E+00 0.26995979E+04</pdfrwt>
<pdfrwt beam="2">  1       -2 0.13481045E+00 0.26995979E+04</pdfrwt>
<totfact> 0.80004123E-01</totfact>
</mgrwt>
</event>
<event>
12    4  0.4207946E-008  0.2073250E+04  0.7818608E-02  0.8573119E-01
          3   -1    0    0  501    0  0.00000000000E+00  0.00000000000E+00  0.77979898583E+03  0.77979898583E+03  0.00000000000E+00 0. -1.
         -4   -1    0    0    0  501 -0.00000000000E+00 -0.00000000000E+00 -0.13780366472E+04  0.13780366472E+04  0.00000000000E+00 0.  1.
        -24    2    1    2    0    0  0.54816564884E+03  0.63371725684E+03 -0.30008230550E+03  0.89364356843E+03  0.80413289607E+02 0.  0.
        254    2    1    2    0    0 -0.54816564884E+03 -0.63371725684E+03 -0.29815535591E+03  0.12641920646E+04  0.89844411058E+03 0.  0.
         23    2    4    4    0    0  0.17005581688E+03 -0.25579069847E+03 -0.31369860424E+03  0.44748188589E+03  0.86517984397E+02 0.  0.
         23    2    4    4    0    0 -0.71822146572E+03 -0.37792655837E+03  0.15543248332E+02  0.81671017874E+03  0.90018698853E+02 0.  0.
          1    1    3    3  502    0  0.53842484139E+03  0.61379672796E+03 -0.27843629029E+03  0.86265549371E+03  0.00000000000E+00 0. -1.
         -2    1    3    3    0  502  0.97408074558E+01  0.19920528878E+02 -0.21646015212E+02  0.30988074726E+02  0.00000000000E+00 0.  1.
         11    1    5    5    0    0 -0.92109091971E+01 -0.62367657739E+01 -0.17219196929E+02  0.20499727765E+02  0.00000000000E+00 0. -1.
        -11    1    5    5    0    0  0.17926672608E+03 -0.24955393269E+03 -0.29647940731E+03  0.42698215813E+03  0.00000000000E+00 0.  1.
          3    1    6    6  503    0 -0.13258807041E+03 -0.63343379139E+02  0.37208266174E+02  0.15157979802E+03  0.00000000000E+00 0. -1.
         -3    1    6    6    0  503 -0.58563339532E+03 -0.31458317923E+03 -0.21665017842E+02  0.66513038073E+03  0.00000000000E+00 0.  1.
<mgrwt>
<rscale>  0 0.20732502E+04</rscale>
<asrwt>0</asrwt>
<pdfrwt beam="1">  1        3 0.11996908E+00 0.20732502E+04</pdfrwt>
<pdfrwt beam="2">  1       -4 0.21200564E+00 0.20732502E+04</pdfrwt>
<totfact> 0.13130397E-01</totfact>
</mgrwt>
</event>
<event>
12    4  0.4207946E-008  0.1414610E+04  0.7818608E-02  0.8943311E-01
         -2   -1    0    0    0  501 -0.00000000000E+00  0.00000000000E+00  0.43178173850E+03  0.43178173850E+03  0.00000000000E+00 0.  1.
          1   -1    0    0  501    0  0.00000000000E+00 -0.00000000000E+00 -0.11586416232E+04  0.11586416232E+04  0.00000000000E+00 0. -1.
        -24    2    1    2    0    0  0.90015155537E+02 -0.38906295257E+03 -0.69983010095E+02  0.41288155362E+03  0.78107914638E+02 0.  0.
        254    2    1    2    0    0 -0.90015155537E+02  0.38906295257E+03 -0.65687687463E+03  0.11775418081E+04  0.89198922197E+03 0.  0.
         23    2    4    4    0    0  0.56589802434E+02  0.59175681283E+03 -0.17655119958E+03  0.62740226061E+03  0.95313898634E+02 0.  0.
         23    2    4    4    0    0 -0.14660495797E+03 -0.20269386027E+03 -0.48032567505E+03  0.55013954749E+03  0.96762352732E+02 0.  0.
          1    1    3    3  502    0  0.43989283390E+02 -0.25269412358E+03 -0.92365606462E+01  0.25666065378E+03  0.00000000000E+00 0. -1.
         -2    1    3    3    0  502  0.46025872147E+02 -0.13636882899E+03 -0.60746449449E+02  0.15622089984E+03  0.00000000000E+00 0.  1.
         11    1    5    5    0    0  0.47430990545E+02  0.54173175928E+03 -0.13153868014E+03  0.55948674895E+03  0.00000000000E+00 0. -1.
        -11    1    5    5    0    0  0.91588118881E+01  0.50025053556E+02 -0.45012519438E+02  0.67915511664E+02  0.00000000000E+00 0.  1.
          3    1    6    6  503    0 -0.78502809345E+01 -0.86446822980E+02 -0.14185771567E+03  0.16630782185E+03  0.00000000000E+00 0. -1.
         -3    1    6    6    0  503 -0.13875467704E+03 -0.11624703728E+03 -0.33846795938E+03  0.38383172564E+03  0.00000000000E+00 0.  1.
<mgrwt>
<rscale>  0 0.14146099E+04</rscale>
<asrwt>0</asrwt>
<pdfrwt beam="1">  1        1 0.17825256E+00 0.14146099E+04</pdfrwt>
<pdfrwt beam="2">  1       -2 0.66427961E-01 0.14146099E+04</pdfrwt>
<totfact> 0.20394419E+01</totfact>
</mgrwt>
</event>
<event>
12    4  0.4207946E-008  0.1415901E+04  0.7818608E-02  0.8942388E-01
          1   -1    0    0  501    0  0.00000000000E+00  0.00000000000E+00  0.34537224326E+04  0.34537224326E+04  0.00000000000E+00 0. -1.
         -2   -1    0    0    0  501 -0.00000000000E+00 -0.00000000000E+00 -0.14511698403E+03  0.14511698403E+03  0.00000000000E+00 0.  1.
        -24    2    1    2    0    0 -0.58531550970E+02 -0.42274003452E+03  0.11114480553E+04  0.11933369817E+04  0.81248341226E+02 0.  0.
        254    2    1    2    0    0  0.58531550970E+02  0.42274003452E+03  0.21971573933E+04  0.24055024349E+04  0.88136614100E+03 0.  0.
         23    2    4    4    0    0  0.34916387398E+03  0.25910024229E+03  0.48034398076E+03  0.65428709200E+03  0.91175174598E+02 0.  0.
         23    2    4    4    0    0 -0.29063232301E+03  0.16363979224E+03  0.17168134125E+04  0.17512153429E+04  0.89787277613E+02 0.  0.
          3    1    3    3  502    0 -0.34208428688E+02 -0.37002310961E+03  0.89129681191E+03  0.96565901081E+03  0.00000000000E+00 0. -1.
         -4    1    3    3    0  502 -0.24323122282E+02 -0.52716924914E+02  0.22015124341E+03  0.22767797088E+03  0.00000000000E+00 0.  1.
         11    1    5    5    0    0  0.43077015240E+02  0.26764758892E+01  0.65954388131E+02  0.78821152484E+02  0.00000000000E+00 0.  1.
        -11    1    5    5    0    0  0.30608685874E+03  0.25642376640E+03  0.41438959263E+03  0.57546593952E+03  0.00000000000E+00 0. -1.
          3    1    6    6  503    0 -0.24134571055E+03  0.91662026318E+02  0.12782956537E+04  0.13041048491E+04  0.00000000000E+00 0. -1.
         -3    1    6    6    0  503 -0.49286612460E+02  0.71977765919E+02  0.43851775877E+03  0.44711049385E+03  0.00000000000E+00 0.  1.
<mgrwt>
<rscale>  0 0.14159008E+04</rscale>
<asrwt>0</asrwt>
<pdfrwt beam="1">  1        1 0.53134185E+00 0.14159008E+04</pdfrwt>
<pdfrwt beam="2">  1       -2 0.22325692E-01 0.14159008E+04</pdfrwt>
<totfact> 0.41415924E+00</totfact>
</mgrwt>
</event>
<event>
12    4  0.4207946E-008  0.1522630E+04  0.7818608E-02  0.8869542E-01
          1   -1    0    0  501    0  0.00000000000E+00  0.00000000000E+00  0.67362855640E+03  0.67362855640E+03  0.00000000000E+00 0. -1.
         -2   -1    0    0    0  501 -0.00000000000E+00 -0.00000000000E+00 -0.86041561834E+03  0.86041561834E+03  0.00000000000E+00 0.  1.
        -24    2    1    2    0    0 -0.18561691001E+03  0.22501410032E+03  0.30955457464E+03  0.43261720633E+03  0.79048275786E+02 0.  0.
        254    2    1    2    0    0  0.18561691001E+03 -0.22501410032E+03 -0.49634163658E+03  0.11014269684E+04  0.93898954410E+03 0.  0.
         23    2    4    4    0    0 -0.29194176853E+03  0.14183696489E+03 -0.32718900016E+03  0.46931356009E+03  0.88627620040E+02 0.  0.
         23    2    4    4    0    0  0.47755867854E+03 -0.36685106521E+03 -0.16915263642E+03  0.63211340833E+03  0.91174289617E+02 0.  0.
          3    1    3    3  502    0 -0.11919453515E+03  0.17261966916E+03  0.26177881853E+03  0.33545944199E+03  0.00000000000E+00 0. -1.
         -4    1    3    3    0  502 -0.66422374864E+02  0.52394431164E+02  0.47775756115E+02  0.97157764342E+02  0.00000000000E+00 0.  1.
         11    1    5    5    0    0 -0.25559203500E+03  0.10453846559E+03 -0.30835706166E+03  0.41393194684E+03  0.00000000000E+00 0.  1.
        -11    1    5    5    0    0 -0.36349733522E+02  0.37298499305E+02 -0.18831938507E+02  0.55381613243E+02  0.00000000000E+00 0. -1.
          2    1    6    6  503    0  0.33223179209E+02 -0.61560745971E+02 -0.19322144227E+02  0.72573068963E+02  0.00000000000E+00 0. -1.
         -2    1    6    6    0  503  0.44433549933E+03 -0.30529031924E+03 -0.14983049219E+03  0.55954033937E+03  0.00000000000E+00 0.  1.
<mgrwt>
<rscale>  0 0.15226300E+04</rscale>
<asrwt>0</asrwt>
<pdfrwt beam="1">  1        1 0.10363516E+00 0.15226300E+04</pdfrwt>
<pdfrwt beam="2">  1       -2 0.13237163E+00 0.15226300E+04</pdfrwt>
<totfact> 0.10121031E+01</totfact>
</mgrwt>
</event>
<event>
12    4  0.4207946E-008  0.1422402E+04  0.7818608E-02  0.8937761E-01
         -4   -1    0    0    0  501 -0.00000000000E+00  0.00000000000E+00  0.10057406531E+03  0.10057406531E+03  0.00000000000E+00 0.  1.
          1   -1    0    0  501    0  0.00000000000E+00 -0.00000000000E+00 -0.50291985077E+04  0.50291985077E+04  0.00000000000E+00 0. -1.
        -24    2    1    2    0    0 -0.30146190194E+03  0.31637868076E+02 -0.25362213631E+04  0.25555057186E+04  0.79438292568E+02 0.  0.
        254    2    1    2    0    0  0.30146190194E+03 -0.31637868076E+02 -0.23924030793E+04  0.25742668544E+04  0.90076473660E+03 0.  0.
         23    2    4    4    0    0  0.13863324082E+03  0.14241811402E+03 -0.22930709227E+04  0.23035232951E+04  0.92429539488E+02 0.  0.
         23    2    4    4    0    0  0.16282866112E+03 -0.17405598210E+03 -0.99332156637E+02  0.27074355934E+03  0.81403561324E+02 0.  0.
          3    1    3    3  502    0 -0.28453838851E+03  0.28390292569E+02 -0.24863855199E+04  0.25027746716E+04  0.00000000000E+00 0. -1.
         -4    1    3    3    0  502 -0.16923513434E+02  0.32475755068E+01 -0.49835843133E+02  0.52731046969E+02  0.00000000000E+00 0.  1.
         11    1    5    5    0    0  0.12749950530E+03  0.74618147819E+02 -0.17244718379E+04  0.17307880031E+04  0.00000000000E+00 0. -1.
        -11    1    5    5    0    0  0.11133735520E+02  0.67799966201E+02 -0.56859908479E+03  0.57273529200E+03  0.00000000000E+00 0.  1.
          2    1    6    6  503    0  0.17183989048E+03 -0.16264361777E+03 -0.98148647706E+02  0.25615435075E+03  0.00000000000E+00 0. -1.
         -2    1    6    6    0  503 -0.90112293552E+01 -0.11412364322E+02 -0.11835089307E+01  0.14589208590E+02  0.00000000000E+00 0.  1.
<mgrwt>
<rscale>  0 0.14224021E+04</rscale>
<asrwt>0</asrwt>
<pdfrwt beam="1">  1        1 0.77372286E+00 0.14224021E+04</pdfrwt>
<pdfrwt beam="2">  1       -4 0.15472933E-01 0.14224021E+04</pdfrwt>
<totfact> 0.15141681E-01</totfact>
</mgrwt>
</event>
<event>
12    4  0.4207946E-008  0.1667685E+04  0.7818608E-02  0.8780013E-01
          1   -1    0    0  501    0  0.00000000000E+00  0.00000000000E+00  0.79650135294E+03  0.79650135294E+03  0.00000000000E+00 0. -1.
         -2   -1    0    0    0  501 -0.00000000000E+00 -0.00000000000E+00 -0.87293379234E+03  0.87293379234E+03  0.00000000000E+00 0.  1.
        -24    2    1    2    0    0  0.53120424734E+03 -0.14410291988E+03  0.17676647387E+03  0.58308818622E+03  0.76169828088E+02 0.  0.
        254    2    1    2    0    0 -0.53120424734E+03  0.14410291988E+03 -0.25319891326E+03  0.10863469591E+04  0.90171859350E+03 0.  0.
         23    2    4    4    0    0  0.27984085001E+02 -0.60351040154E+02  0.26707375369E+03  0.29048378105E+03  0.92882076204E+02 0.  0.
         23    2    4    4    0    0 -0.55918833234E+03  0.20445396004E+03 -0.52027266696E+03  0.79586317801E+03  0.90672693397E+02 0.  0.
          3    1    3    3  502    0  0.43496691954E+03 -0.10448654557E+03  0.17082113368E+03  0.47884602850E+03  0.00000000000E+00 0. -1.
         -4    1    3    3    0  502  0.96237327805E+02 -0.39616374311E+02  0.59453401948E+01  0.10424215772E+03  0.00000000000E+00 0.  1.
         11    1    5    5    0    0 -0.22011149542E+02 -0.59592652243E+02  0.13309867846E+03  0.14748231457E+03  0.00000000000E+00 0.  1.
        -11    1    5    5    0    0  0.49995234543E+02 -0.75838791126E+00  0.13397507524E+03  0.14300146648E+03  0.00000000000E+00 0. -1.
          3    1    6    6  503    0 -0.51534634896E+03  0.18220942075E+03 -0.43985511144E+03  0.70160861700E+03  0.00000000000E+00 0. -1.
         -3    1    6    6    0  503 -0.43841983387E+02  0.22244539286E+02 -0.80417555521E+02  0.94254561010E+02  0.00000000000E+00 0.  1.
<mgrwt>
<rscale>  0 0.16676846E+04</rscale>
<asrwt>0</asrwt>
<pdfrwt beam="1">  1        1 0.12253867E+00 0.16676846E+04</pdfrwt>
<pdfrwt beam="2">  1       -2 0.13429751E+00 0.16676846E+04</pdfrwt>
<totfact> 0.74387095E+00</totfact>
</mgrwt>
</event>
<event>
12    4  0.4207946E-008  0.1888219E+04  0.7818608E-02  0.8660743E-01
         -2   -1    0    0    0  501 -0.00000000000E+00  0.00000000000E+00  0.68425341655E+03  0.68425341655E+03  0.00000000000E+00 0.  1.
          1   -1    0    0  501    0  0.00000000000E+00 -0.00000000000E+00 -0.13026500913E+04  0.13026500913E+04  0.00000000000E+00 0. -1.
        -24    2    1    2    0    0  0.65174287884E+03  0.38021340648E+03 -0.32478220355E+03  0.82535212892E+03  0.79947747870E+02 0.  0.
        254    2    1    2    0    0 -0.65174287884E+03 -0.38021340648E+03 -0.29361447122E+03  0.11615513790E+04  0.83286321425E+03 0.  0.
         23    2    4    4    0    0 -0.68156143855E+03  0.15849323505E+02 -0.57028016926E+02  0.69037596129E+03  0.92679974308E+02 0.  0.
         23    2    4    4    0    0  0.29818559706E+02 -0.39606272998E+03 -0.23658645429E+03  0.47117541766E+03  0.90985115670E+02 0.  0.
          1    1    3    3  502    0  0.25082985711E+03  0.16009577766E+03 -0.16885352396E+03  0.34213708919E+03  0.00000000000E+00 0. -1.
         -2    1    3    3    0  502  0.40091302173E+03  0.22011762881E+03 -0.15592867959E+03  0.48321503973E+03  0.00000000000E+00 0.  1.
         11    1    5    5    0    0 -0.54925415304E+03 -0.98977019343E+01 -0.74829261113E+02  0.55441636651E+03  0.00000000000E+00 0. -1.
        -11    1    5    5    0    0 -0.13230728551E+03  0.25747025439E+02  0.17801244187E+02  0.13595959478E+03  0.00000000000E+00 0.  1.
          1    1    6    6  503    0  0.29584128268E+02 -0.62313844668E+02 -0.69565070522E+02  0.97967009342E+02  0.00000000000E+00 0. -1.
         -1    1    6    6    0  503  0.23443143830E+00 -0.33374888531E+03 -0.16702138377E+03  0.37320840832E+03  0.00000000000E+00 0.  1.
<mgrwt>
<rscale>  0 0.18882190E+04</rscale>
<asrwt>0</asrwt>
<pdfrwt beam="1">  1        1 0.20040770E+00 0.18882190E+04</pdfrwt>
<pdfrwt beam="2">  1       -2 0.10526976E+00 0.18882190E+04</pdfrwt>
<totfact> 0.54065581E+00</totfact>
</mgrwt>
</event>
<event>
12    4  0.4207946E-008  0.1410355E+04  0.7818608E-02  0.8946357E-01
          1   -1    0    0  501    0  0.00000000000E+00  0.00000000000E+00  0.15127571522E+04  0.15127571522E+04  0.00000000000E+00 0. -1.
         -2   -1    0    0    0  501 -0.00000000000E+00 -0.00000000000E+00 -0.32872096961E+03  0.32872096961E+03  0.00000000000E+00 0.  1.
        -24    2    1    2    0    0 -0.76497247513E+02 -0.16942743142E+03  0.81478537438E+03  0.83934785762E+03  0.77923914130E+02 0.  0.
        254    2    1    2    0    0  0.76497247513E+02  0.16942743142E+03  0.36925080819E+03  0.10021302642E+04  0.91288631473E+03 0.  0.
         23    2    4    4    0    0  0.18126604956E+03 -0.30470177115E+03  0.35237852444E+03  0.50779858554E+03  0.89376892537E+02 0.  0.
         23    2    4    4    0    0 -0.10476880204E+03  0.47412920257E+03  0.16872283743E+02  0.49433167863E+03  0.91127009853E+02 0.  0.
          3    1    3    3  502    0 -0.86846613394E+02 -0.16659247533E+03  0.72591377633E+03  0.74983077942E+03  0.00000000000E+00 0. -1.
         -4    1    3    3    0  502  0.10349365881E+02 -0.28349560899E+01  0.88871598052E+02  0.89517078206E+02  0.00000000000E+00 0.  1.
         11    1    5    5    0    0  0.16142717552E+03 -0.26867509663E+03  0.34480709696E+03  0.46597958610E+03  0.00000000000E+00 0. -1.
        -11    1    5    5    0    0  0.19838874036E+02 -0.36026674518E+02  0.75714274845E+01  0.41818999438E+02  0.00000000000E+00 0.  1.
          1    1    6    6  503    0 -0.24920666584E+02  0.13547910123E+03 -0.36056258698E+02  0.14239269744E+03  0.00000000000E+00 0. -1.
         -1    1    6    6    0  503 -0.79848135459E+02  0.33865010134E+03  0.52928542441E+02  0.35193898119E+03  0.00000000000E+00 0.  1.
<mgrwt>
<rscale>  0 0.14103546E+04</rscale>
<asrwt>0</asrwt>
<pdfrwt beam="1">  1        1 0.23273186E+00 0.14103546E+04</pdfrwt>
<pdfrwt beam="2">  1       -2 0.50572458E-01 0.14103546E+04</pdfrwt>
<totfact> 0.20258817E+01</totfact>
</mgrwt>
</event>
<event>
12    4  0.4207946E-008  0.1523181E+04  0.7818608E-02  0.8869182E-01
          1   -1    0    0  501    0  0.00000000000E+00  0.00000000000E+00  0.64779748309E+03  0.64779748309E+03  0.00000000000E+00 0. -1.
         -2   -1    0    0    0  501 -0.00000000000E+00 -0.00000000000E+00 -0.89537305223E+03  0.89537305223E+03  0.00000000000E+00 0.  1.
        -24    2    1    2    0    0 -0.43361981569E+03 -0.20575173125E+03 -0.17383819713E+03  0.51699837893E+03  0.81900461356E+02 0.  0.
        254    2    1    2    0    0  0.43361981569E+03  0.20575173125E+03 -0.73737372012E+02  0.10261721564E+04  0.90400894633E+03 0.  0.
         23    2    4    4    0    0  0.56306966473E+02  0.25781903922E+03 -0.41938236387E+03  0.50380256343E+03  0.91073181195E+02 0.  0.
         23    2    4    4    0    0  0.37731284921E+03 -0.52067307968E+02  0.34564499186E+03  0.52236959296E+03  0.91233439660E+02 0.  0.
          1    1    3    3  502    0 -0.43488989074E+03 -0.20918201146E+03 -0.17471577626E+03  0.51323672263E+03  0.00000000000E+00 0. -1.
         -2    1    3    3    0  502  0.12700750547E+01  0.34302802092E+01  0.87757913506E+00  0.37616562970E+01  0.00000000000E+00 0.  1.
         11    1    5    5    0    0  0.10645968459E+02  0.21851925972E+03 -0.32199610820E+03  0.38928844988E+03  0.00000000000E+00 0.  1.
        -11    1    5    5    0    0  0.45660998014E+02  0.39299779499E+02 -0.97386255668E+02  0.11451411355E+03  0.00000000000E+00 0. -1.
          3    1    6    6  503    0  0.25352475469E+03 -0.26405555881E+01  0.26415636263E+03  0.36614253740E+03  0.00000000000E+00 0. -1.
         -3    1    6    6    0  503  0.12378809452E+03 -0.49426752380E+02  0.81488629235E+02  0.15622705556E+03  0.00000000000E+00 0.  1.
<mgrwt>
<rscale>  0 0.15231814E+04</rscale>
<asrwt>0</asrwt>
<pdfrwt beam="1">  1        1 0.99661151E-01 0.15231814E+04</pdfrwt>
<pdfrwt beam="2">  1       -2 0.13774970E+00 0.15231814E+04</pdfrwt>
<totfact> 0.96863976E+00</totfact>
</mgrwt>
</event>
<event>
12    4  0.4207946E-008  0.1476961E+04  0.7818608E-02  0.8899920E-01
         -2   -1    0    0    0  501 -0.00000000000E+00  0.00000000000E+00  0.40649218670E+03  0.40649218670E+03  0.00000000000E+00 0.  1.
          1   -1    0    0  501    0  0.00000000000E+00 -0.00000000000E+00 -0.13416084456E+04  0.13416084456E+04  0.00000000000E+00 0. -1.
        -24    2    1    2    0    0  0.30237465564E+03  0.17632982712E+03  0.43628875349E+02  0.36043505416E+03  0.74076374081E+02 0.  0.
        254    2    1    2    0    0 -0.30237465564E+03 -0.17632982712E+03 -0.97874513423E+03  0.13876655781E+04  0.91932098779E+03 0.  0.
         23    2    4    4    0    0  0.73668848095E+01  0.30997488610E+03 -0.11204362492E+03  0.34241569397E+03  0.92498824788E+02 0.  0.
         23    2    4    4    0    0 -0.30974154045E+03 -0.48630471322E+03 -0.86670150931E+03  0.10452498841E+04  0.94571232815E+02 0.  0.
          3    1    3    3  502    0  0.87486963954E+02  0.68554132189E+02 -0.17170853698E+02  0.11246544411E+03  0.00000000000E+00 0. -1.
         -2    1    3    3    0  502  0.21488769169E+03  0.10777569493E+03  0.60799729046E+02  0.24796961005E+03  0.00000000000E+00 0.  1.
         11    1    5    5    0    0  0.17629541940E+01  0.30201198476E+03 -0.12444277870E+03  0.32665019840E+03  0.00000000000E+00 0. -1.
        -11    1    5    5    0    0  0.56039306155E+01  0.79629013418E+01  0.12399153778E+02  0.15765495569E+02  0.00000000000E+00 0.  1.
          4    1    6    6  503    0 -0.18876916722E+03 -0.24473217384E+03 -0.39368951627E+03  0.50051880148E+03  0.00000000000E+00 0. -1.
         -4    1    6    6    0  503 -0.12097237324E+03 -0.24157253937E+03 -0.47301199304E+03  0.54473108267E+03  0.00000000000E+00 0.  1.
<mgrwt>
<rscale>  0 0.14769609E+04</rscale>
<asrwt>0</asrwt>
<pdfrwt beam="1">  1        1 0.20640130E+00 0.14769609E+04</pdfrwt>
<pdfrwt beam="2">  1       -2 0.62537260E-01 0.14769609E+04</pdfrwt>
<totfact> 0.17034616E+01</totfact>
</mgrwt>
</event>
<event>
12    4  0.4207946E-008  0.1560663E+04  0.7818608E-02  0.8845085E-01
         -2   -1    0    0    0  501 -0.00000000000E+00  0.00000000000E+00  0.48479210765E+03  0.48479210765E+03  0.00000000000E+00 0.  1.
          1   -1    0    0  501    0  0.00000000000E+00 -0.00000000000E+00 -0.12560383435E+04  0.12560383435E+04  0.00000000000E+00 0. -1.
        -24    2    1    2    0    0 -0.31672670787E+03 -0.36377675470E+03 -0.26353880779E+03  0.55477053304E+03  0.75288155663E+02 0.  0.
        254    2    1    2    0    0  0.31672670787E+03  0.36377675470E+03 -0.50770742801E+03  0.11860599181E+04  0.95724707472E+03 0.  0.
         23    2    4    4    0    0  0.42847035534E+03  0.13730775741E+03  0.14361685603E+03  0.48054743058E+03  0.88655321607E+02 0.  0.
         23    2    4    4    0    0 -0.11174364747E+03  0.22646899728E+03 -0.65132428404E+03  0.70551248749E+03  0.98740556728E+02 0.  0.
          3    1    3    3  502    0 -0.18281029866E+03 -0.23806718346E+03 -0.12707717463E+03  0.32595121942E+03  0.00000000000E+00 0. -1.
         -4    1    3    3    0  502 -0.13391640921E+03 -0.12570957124E+03 -0.13646163316E+03  0.22881931361E+03  0.00000000000E+00 0.  1.
         11    1    5    5    0    0  0.91735167111E+02  0.56991964571E+02  0.64749593262E+01  0.10819126586E+03  0.00000000000E+00 0. -1.
        -11    1    5    5    0    0  0.33673518823E+03  0.80315792842E+02  0.13714189670E+03  0.37235616472E+03  0.00000000000E+00 0.  1.
          1    1    6    6  503    0 -0.46061749478E+02  0.70893986892E+02 -0.11173800777E+03  0.14011789508E+03  0.00000000000E+00 0. -1.
         -1    1    6    6    0  503 -0.65681897991E+02  0.15557501039E+03 -0.53958627627E+03  0.56539459241E+03  0.00000000000E+00 0.  1.
<mgrwt>
<rscale>  0 0.15606633E+04</rscale>
<asrwt>0</asrwt>
<pdfrwt beam="1">  1        1 0.19323667E+00 0.15606633E+04</pdfrwt>
<pdfrwt beam="2">  1       -2 0.74583401E-01 0.15606633E+04</pdfrwt>
<totfact> 0.13279944E+01</totfact>
</mgrwt>
</event>
<event>
12    4  0.4207946E-008  0.1951537E+04  0.7818608E-02  0.8629620E-01
          1   -1    0    0  501    0  0.00000000000E+00  0.00000000000E+00  0.79721561686E+03  0.79721561686E+03  0.00000000000E+00 0. -1.
         -2   -1    0    0    0  501 -0.00000000000E+00 -0.00000000000E+00 -0.11943124012E+04  0.11943124012E+04  0.00000000000E+00 0.  1.
        -24    2    1    2    0    0  0.58024375724E+03  0.26423986968E+03  0.26810094407E+03  0.69620011333E+03  0.79441519620E+02 0.  0.
        254    2    1    2    0    0 -0.58024375724E+03 -0.26423986968E+03 -0.66519772837E+03  0.12953279047E+04  0.91042892984E+03 0.  0.
         23    2    4    4    0    0 -0.36878890108E+03  0.30313782860E+03 -0.39475097788E+03  0.62550003804E+03  0.86741952753E+02 0.  0.
         23    2    4    4    0    0 -0.21145485616E+03 -0.56737769828E+03 -0.27044675050E+03  0.66982786665E+03  0.94325592434E+02 0.  0.
          1    1    3    3  502    0  0.25365692109E+03  0.84675603143E+02  0.14179017674E+03  0.30268175631E+03  0.00000000000E+00 0. -1.
         -2    1    3    3    0  502  0.32658683615E+03  0.17956426654E+03  0.12631076734E+03  0.39351835702E+03  0.00000000000E+00 0.  1.
         11    1    5    5    0    0 -0.14815450817E+03  0.16516648692E+03 -0.14667350009E+03  0.26597526637E+03  0.00000000000E+00 0. -1.
        -11    1    5    5    0    0 -0.22063439291E+03  0.13797134168E+03 -0.24807747779E+03  0.35952477167E+03  0.00000000000E+00 0.  1.
          2    1    6    6  503    0 -0.96674266032E+02 -0.18666982366E+03 -0.13465330200E+03  0.24964584618E+03  0.00000000000E+00 0. -1.
         -2    1    6    6    0  503 -0.11478059013E+03 -0.38070787462E+03 -0.13579344850E+03  0.42018202047E+03  0.00000000000E+00 0.  1.
<mgrwt>
<rscale>  0 0.19515373E+04</rscale>
<asrwt>0</asrwt>
<pdfrwt beam="1">  1        1 0.12264856E+00 0.19515373E+04</pdfrwt>
<pdfrwt beam="2">  1       -2 0.18374037E+00 0.19515373E+04</pdfrwt>
<totfact> 0.30995950E+00</totfact>
</mgrwt>
</event>
<event>
12    4  0.4207946E-008  0.2416680E+04  0.7818608E-02  0.8433285E-01
          1   -1    0    0  501    0  0.00000000000E+00  0.00000000000E+00  0.16067955561E+04  0.16067955561E+04  0.00000000000E+00 0. -1.
         -2   -1    0    0    0  501 -0.00000000000E+00 -0.00000000000E+00 -0.90869409864E+03  0.90869409864E+03  0.00000000000E+00 0.  1.
        -24    2    1    2    0    0 -0.75205666950E+02  0.21388811411E+02  0.13764922698E+04  0.13811187221E+04  0.81514306532E+02 0.  0.
        254    2    1    2    0    0  0.75205666950E+02 -0.21388811411E+02 -0.67839081232E+03  0.11343709326E+04  0.90579796035E+03 0.  0.
         23    2    4    4    0    0 -0.37951464235E+03 -0.40786498423E+02 -0.12483316864E+03  0.41191839238E+03  0.91643547372E+02 0.  0.
         23    2    4    4    0    0  0.45472030930E+03  0.19397687011E+02 -0.55355764369E+03  0.72245254026E+03  0.91459160829E+02 0.  0.
          3    1    3    3  502    0 -0.70954130112E+02  0.48077544462E+02  0.10085400335E+04  0.10121753494E+04  0.00000000000E+00 0. -1.
         -4    1    3    3    0  502 -0.42515368383E+01 -0.26688733051E+02  0.36795223631E+03  0.36894337268E+03  0.00000000000E+00 0.  1.
         11    1    5    5    0    0 -0.63486704071E+02 -0.23475611657E+02  0.90004155641E+01  0.68283771255E+02  0.00000000000E+00 0.  1.
        -11    1    5    5    0    0 -0.31602793828E+03 -0.17310886765E+02 -0.13383358420E+03  0.34363462112E+03  0.00000000000E+00 0. -1.
          4    1    6    6  503    0  0.19853936826E+03 -0.44255257129E+01 -0.17472711504E+03  0.26451281775E+03  0.00000000000E+00 0. -1.
         -4    1    6    6    0  503  0.25618094104E+03  0.23823212724E+02 -0.37883052865E+03  0.45793972251E+03  0.00000000000E+00 0.  1.
<mgrwt>
<rscale>  0 0.24166801E+04</rscale>
<asrwt>0</asrwt>
<pdfrwt beam="1">  1        1 0.24719932E+00 0.24166801E+04</pdfrwt>
<pdfrwt beam="2">  1       -2 0.13979909E+00 0.24166801E+04</pdfrwt>
<totfact> 0.15640023E+00</totfact>
</mgrwt>
</event>
<event>
12    4  0.4207946E-008  0.1410605E+04  0.7818608E-02  0.8946178E-01
         -2   -1    0    0    0  501 -0.00000000000E+00  0.00000000000E+00  0.27157049602E+03  0.27157049602E+03  0.00000000000E+00 0.  1.
          1   -1    0    0  501    0  0.00000000000E+00 -0.00000000000E+00 -0.18317591741E+04  0.18317591741E+04  0.00000000000E+00 0. -1.
        -24    2    1    2    0    0 -0.17602194351E+03  0.10039816275E+02  0.97214766092E+02  0.21119663477E+03  0.63787030666E+02 0.  0.
        254    2    1    2    0    0  0.17602194351E+03 -0.10039816275E+02 -0.16574034442E+04  0.18921330354E+04  0.89559852848E+03 0.  0.
         23    2    4    4    0    0 -0.15244471986E+03  0.25216148254E+03 -0.12881266763E+04  0.13244816181E+04  0.90312882449E+02 0.  0.
         23    2    4    4    0    0  0.32846666338E+03 -0.26220129881E+03 -0.36927676792E+03  0.56765141725E+03  0.96036087646E+02 0.  0.
          3    1    3    3  502    0 -0.16071818893E+02 -0.17869154605E+02  0.20634921465E+02  0.31676648066E+02  0.00000000000E+00 0. -1.
         -4    1    3    3    0  502 -0.15995012462E+03  0.27908970880E+02  0.76579844627E+02  0.17951998670E+03  0.00000000000E+00 0.  1.
         11    1    5    5    0    0 -0.12511717509E+03  0.17552568444E+03 -0.75447031826E+03  0.78465854646E+03  0.00000000000E+00 0. -1.
        -11    1    5    5    0    0 -0.27327544778E+02  0.76635798100E+02 -0.53365635800E+03  0.53982307165E+03  0.00000000000E+00 0.  1.
          2    1    6    6  503    0  0.30813338378E+03 -0.22295598862E+03 -0.29546324304E+03  0.48161611585E+03  0.00000000000E+00 0. -1.
         -2    1    6    6    0  503  0.20333279600E+02 -0.39245310194E+02 -0.73813524881E+02  0.86035301399E+02  0.00000000000E+00 0.  1.
<mgrwt>
<rscale>  0 0.14106052E+04</rscale>
<asrwt>0</asrwt>
<pdfrwt beam="1">  1        1 0.28180910E+00 0.14106052E+04</pdfrwt>
<pdfrwt beam="2">  1       -2 0.41780077E-01 0.14106052E+04</pdfrwt>
<totfact> 0.18003057E+01</totfact>
</mgrwt>
</event>
<event>
12    4  0.4207946E-008  0.1306810E+04  0.7818608E-02  0.9024182E-01
          1   -1    0    0  501    0  0.00000000000E+00  0.00000000000E+00  0.55084243040E+03  0.55084243040E+03  0.00000000000E+00 0. -1.
         -2   -1    0    0    0  501 -0.00000000000E+00 -0.00000000000E+00 -0.77506385201E+03  0.77506385201E+03  0.00000000000E+00 0.  1.
        -24    2    1    2    0    0  0.15543794843E+03  0.86146311837E+02 -0.35163522402E+03  0.40223510856E+03  0.81016102925E+02 0.  0.
        254    2    1    2    0    0 -0.15543794843E+03 -0.86146311837E+02  0.12741380241E+03  0.92367117385E+03  0.89741407249E+03 0.  0.
         23    2    4    4    0    0 -0.22996687541E+01 -0.31363731528E+03 -0.27460095060E+03  0.42863502823E+03  0.99742926287E+02 0.  0.
         23    2    4    4    0    0 -0.15313827968E+03  0.22749100344E+03  0.40201475301E+03  0.49503614562E+03  0.90782346783E+02 0.  0.
          3    1    3    3  502    0 -0.11910563575E+01  0.27386151834E+02 -0.39217989222E+02  0.47848412786E+02  0.00000000000E+00 0. -1.
         -4    1    3    3    0  502  0.15662900479E+03  0.58760160002E+02 -0.31241723480E+03  0.35438669578E+03  0.00000000000E+00 0.  1.
         11    1    5    5    0    0  0.46426037154E+02 -0.10407699357E+03 -0.93436145522E+02  0.14736930076E+03  0.00000000000E+00 0. -1.
        -11    1    5    5    0    0 -0.48725705908E+02 -0.20956032171E+03 -0.18116480507E+03  0.28126572747E+03  0.00000000000E+00 0.  1.
          3    1    6    6  503    0 -0.12657987802E+02  0.61566313817E+02  0.14733388311E+03  0.16018086266E+03  0.00000000000E+00 0. -1.
         -3    1    6    6    0  503 -0.14048029187E+03  0.16592468962E+03  0.25468086990E+03  0.33485528296E+03  0.00000000000E+00 0.  1.
<mgrwt>
<rscale>  0 0.13068099E+04</rscale>
<asrwt>0</asrwt>
<pdfrwt beam="1">  1        1 0.84744989E-01 0.13068099E+04</pdfrwt>
<pdfrwt beam="2">  1       -2 0.11924059E+00 0.13068099E+04</pdfrwt>
<totfact> 0.17933136E+01</totfact>
</mgrwt>
</event>
<event>
12    4  0.4207946E-008  0.2188556E+04  0.7818608E-02  0.8523206E-01
         -2   -1    0    0    0  501 -0.00000000000E+00  0.00000000000E+00  0.13426632991E+04  0.13426632991E+04  0.00000000000E+00 0.  1.
          1   -1    0    0  501    0  0.00000000000E+00 -0.00000000000E+00 -0.89184290249E+03  0.89184290249E+03  0.00000000000E+00 0. -1.
        -24    2    1    2    0    0  0.40719179994E+03  0.53673193410E+01 -0.63517785019E+03  0.75870378418E+03  0.79665304321E+02 0.  0.
        254    2    1    2    0    0 -0.40719179994E+03 -0.53673193410E+01  0.10859982468E+04  0.14758024174E+04  0.91256047094E+03 0.  0.
         23    2    4    4    0    0 -0.64066345073E+03 -0.68320887178E+02  0.45372197153E+03  0.79284598494E+03  0.87313960310E+02 0.  0.
         23    2    4    4    0    0  0.23347165079E+03  0.62953567837E+02  0.63227627526E+03  0.68295643246E+03  0.90465667295E+02 0.  0.
          1    1    3    3  502    0  0.29710760272E+03  0.30061511601E+02 -0.50257361632E+03  0.58459974503E+03  0.00000000000E+00 0. -1.
         -2    1    3    3    0  502  0.11008419722E+03 -0.24694192260E+02 -0.13260423387E+03  0.17410403915E+03  0.00000000000E+00 0.  1.
         11    1    5    5    0    0 -0.40840970458E+03 -0.57578355976E+02  0.33738440131E+03  0.53286207232E+03  0.00000000000E+00 0.  1.
        -11    1    5    5    0    0 -0.23225374615E+03 -0.10742531202E+02  0.11633757022E+03  0.25998391262E+03  0.00000000000E+00 0. -1.
          4    1    6    6  503    0  0.13140456141E+03  0.36938891835E+02  0.47060185506E+03  0.48999770048E+03  0.00000000000E+00 0. -1.
         -4    1    6    6    0  503  0.10206708937E+03  0.26014676002E+02  0.16167442020E+03  0.19295873198E+03  0.00000000000E+00 0.  1.
<mgrwt>
<rscale>  0 0.21885564E+04</rscale>
<asrwt>0</asrwt>
<pdfrwt beam="1">  1        1 0.13720660E+00 0.21885564E+04</pdfrwt>
<pdfrwt beam="2">  1       -2 0.20656358E+00 0.21885564E+04</pdfrwt>
<totfact> 0.17811027E+00</totfact>
</mgrwt>
</event>
<event>
12    4  0.4207946E-008  0.1266916E+04  0.7818608E-02  0.9056221E-01
         -2   -1    0    0    0  501 -0.00000000000E+00  0.00000000000E+00  0.11094368708E+04  0.11094368708E+04  0.00000000000E+00 0.  1.
          1   -1    0    0  501    0  0.00000000000E+00 -0.00000000000E+00 -0.36168706435E+03  0.36168706435E+03  0.00000000000E+00 0. -1.
        -24    2    1    2    0    0 -0.60401661454E+02 -0.24148335377E+03  0.42697757974E+03  0.50083557574E+03  0.81017587416E+02 0.  0.
        254    2    1    2    0    0  0.60401661454E+02  0.24148335377E+03  0.32077222669E+03  0.97028835940E+03  0.88125030956E+03 0.  0.
         23    2    4    4    0    0 -0.10204578134E+03 -0.23782665749E+03  0.36296846448E+03  0.45463392822E+03  0.89280692101E+02 0.  0.
         23    2    4    4    0    0  0.16244744279E+03  0.47931001126E+03 -0.42196237789E+02  0.51565443117E+03  0.89396372066E+02 0.  0.
          3    1    3    3  502    0  0.43531056211E+01 -0.81733191721E+02  0.85762115195E+02  0.11855127397E+03  0.00000000000E+00 0. -1.
         -4    1    3    3    0  502 -0.64754767075E+02 -0.15975016205E+03  0.34121546454E+03  0.38228430176E+03  0.00000000000E+00 0.  1.
         11    1    5    5    0    0 -0.14780434394E+02 -0.39178205396E+02  0.14837305024E+02  0.44424527452E+02  0.00000000000E+00 0.  1.
        -11    1    5    5    0    0 -0.87265346945E+02 -0.19864845210E+03  0.34813115945E+03  0.41020940077E+03  0.00000000000E+00 0. -1.
          1    1    6    6  503    0  0.51010850939E+02  0.18370553406E+03 -0.58188790553E+02  0.19933831921E+03  0.00000000000E+00 0. -1.
         -1    1    6    6    0  503  0.11143659185E+03  0.29560447720E+03  0.15992552764E+02  0.31631611196E+03  0.00000000000E+00 0.  1.
<mgrwt>
<rscale>  0 0.12669159E+04</rscale>
<asrwt>0</asrwt>
<pdfrwt beam="1">  1        1 0.55644164E-01 0.12669159E+04</pdfrwt>
<pdfrwt beam="2">  1       -2 0.17068259E+00 0.12669159E+04</pdfrwt>
<totfact> 0.12419833E+01</totfact>
</mgrwt>
</event>
<event>
12    4  0.4207946E-008  0.2458663E+04  0.7818608E-02  0.8417862E-01
         -2   -1    0    0    0  501 -0.00000000000E+00  0.00000000000E+00  0.22562526200E+04  0.22562526200E+04  0.00000000000E+00 0.  1.
          1   -1    0    0  501    0  0.00000000000E+00 -0.00000000000E+00 -0.66980780685E+03  0.66980780685E+03  0.00000000000E+00 0. -1.
        -24    2    1    2    0    0  0.34953554252E+02  0.57430077303E+03 -0.37520093689E+03  0.69162594708E+03  0.80793432803E+02 0.  0.
        254    2    1    2    0    0 -0.34953554252E+02 -0.57430077303E+03  0.19616457500E+04  0.22344344797E+04  0.90199793062E+03 0.  0.
         23    2    4    4    0    0 -0.99010999370E+02 -0.60007969492E+03  0.57189402089E+03  0.83982154557E+03  0.91316148712E+02 0.  0.
         23    2    4    4    0    0  0.64057445117E+02  0.25778921892E+02  0.13897517291E+04  0.13946129342E+04  0.93634707682E+02 0.  0.
          3    1    3    3  502    0  0.56622053620E+02  0.31464547299E+03 -0.18918740298E+03  0.37148311412E+03  0.00000000000E+00 0. -1.
         -4    1    3    3    0  502 -0.21668499368E+02  0.25965530004E+03 -0.18601353391E+03  0.32014283297E+03  0.00000000000E+00 0.  1.
         11    1    5    5    0    0  0.19829238600E+01 -0.25748660695E+03  0.25354173518E+03  0.36136781293E+03  0.00000000000E+00 0.  1.
        -11    1    5    5    0    0 -0.10099392323E+03 -0.34259308797E+03  0.31835228572E+03  0.47845373264E+03  0.00000000000E+00 0. -1.
          1    1    6    6  503    0 -0.59134747041E-01 -0.27243425903E+02  0.18542366006E+03  0.18741435767E+03  0.00000000000E+00 0. -1.
         -1    1    6    6    0  503  0.64116579865E+02  0.53022347795E+02  0.12043280690E+04  0.12071985765E+04  0.00000000000E+00 0.  1.
<mgrwt>
<rscale>  0 0.24586627E+04</rscale>
<asrwt>0</asrwt>
<pdfrwt beam="1">  1        1 0.10304736E+00 0.24586627E+04</pdfrwt>
<pdfrwt beam="2">  1       -2 0.34711578E+00 0.24586627E+04</pdfrwt>
<totfact> 0.36941385E-01</totfact>
</mgrwt>
</event>
<event>
12    4  0.4207946E-008  0.1280838E+04  0.7818608E-02  0.9044900E-01
         -4   -1    0    0    0  501 -0.00000000000E+00  0.00000000000E+00  0.10490086722E+04  0.10490086722E+04  0.00000000000E+00 0.  1.
          3   -1    0    0  501    0  0.00000000000E+00 -0.00000000000E+00 -0.39097538203E+03  0.39097538203E+03  0.00000000000E+00 0. -1.
        -24    2    1    2    0    0 -0.52122132824E+02  0.28181405744E+03  0.13163154880E+02  0.29759330133E+03  0.79073539536E+02 0.  0.
        254    2    1    2    0    0  0.52122132824E+02 -0.28181405744E+03  0.64487013526E+03  0.11423907529E+04  0.89836699694E+03 0.  0.
         23    2    4    4    0    0  0.94480736954E+02  0.31233826584E+03  0.23233375768E+03  0.41156940368E+03  0.94491254242E+02 0.  0.
         23    2    4    4    0    0 -0.42358604130E+02 -0.59415232327E+03  0.41253637757E+03  0.73082134918E+03  0.95406220995E+02 0.  0.
          3    1    3    3  502    0 -0.22907104454E+02  0.22563338146E+03 -0.17047445292E+02  0.22743300916E+03  0.00000000000E+00 0. -1.
         -4    1    3    3    0  502 -0.29215028370E+02  0.56180675978E+02  0.30210600172E+02  0.70160292180E+02  0.00000000000E+00 0.  1.
         11    1    5    5    0    0  0.94221074789E+01  0.30002625335E+02 -0.64967310813E+01  0.32111386626E+02  0.00000000000E+00 0.  1.
        -11    1    5    5    0    0  0.85058629475E+02  0.28233564050E+03  0.23883048876E+03  0.37945801706E+03  0.00000000000E+00 0. -1.
          1    1    6    6  503    0 -0.25768343627E+01 -0.16065475987E+03  0.63174009284E+02  0.17264862407E+03  0.00000000000E+00 0. -1.
         -1    1    6    6    0  503 -0.39781769767E+02 -0.43349756340E+03  0.34936236829E+03  0.55817272511E+03  0.00000000000E+00 0.  1.
<mgrwt>
<rscale>  0 0.12808381E+04</rscale>
<asrwt>0</asrwt>
<pdfrwt beam="1">  1        3 0.60150059E-01 0.12808381E+04</pdfrwt>
<pdfrwt beam="2">  1       -4 0.16138595E+00 0.12808381E+04</pdfrwt>
<totfact> 0.14812221E+00</totfact>
</mgrwt>
</event>
<event>
12    4  0.4207946E-008  0.1904891E+04  0.7818608E-02  0.8652426E-01
          1   -1    0    0  501    0  0.00000000000E+00  0.00000000000E+00  0.14896122615E+04  0.14896122615E+04  0.00000000000E+00 0. -1.
         -2   -1    0    0    0  501 -0.00000000000E+00 -0.00000000000E+00 -0.60898567512E+03  0.60898567512E+03  0.00000000000E+00 0.  1.
        -24    2    1    2    0    0  0.38896700664E+03  0.23543053802E+03  0.97586530444E+03  0.10805566976E+04  0.92557084283E+02 0.  0.
        254    2    1    2    0    0 -0.38896700664E+03 -0.23543053802E+03 -0.95238718044E+02  0.10180412390E+04  0.90587785075E+03 0.  0.
         23    2    4    4    0    0  0.15842273849E+03 -0.36908832892E+03 -0.16346705567E+03  0.44311638670E+03  0.91141073366E+02 0.  0.
         23    2    4    4    0    0 -0.54738974513E+03  0.13365779089E+03  0.68228337629E+02  0.57492485234E+03  0.91561682139E+02 0.  0.
          3    1    3    3  502    0  0.21701752655E+03  0.99127218195E+02  0.59427134676E+03  0.64037586291E+03  0.00000000000E+00 0. -1.
         -4    1    3    3    0  502  0.17194948009E+03  0.13630331983E+03  0.38159395768E+03  0.44018083470E+03  0.00000000000E+00 0.  1.
         11    1    5    5    0    0 -0.39528397031E+01 -0.16995569507E+02  0.79607069482E+01  0.19179342525E+02  0.00000000000E+00 0. -1.
        -11    1    5    5    0    0  0.16237557820E+03 -0.35209275941E+03 -0.17142776262E+03  0.42393704417E+03  0.00000000000E+00 0.  1.
          1    1    6    6  503    0 -0.24534828403E+03  0.64290631640E+02  0.76475714581E+02  0.26491055229E+03  0.00000000000E+00 0. -1.
         -1    1    6    6    0  503 -0.30204146110E+03  0.69367159254E+02 -0.82473769517E+01  0.31001430005E+03  0.00000000000E+00 0.  1.
<mgrwt>
<rscale>  0 0.19048911E+04</rscale>
<asrwt>0</asrwt>
<pdfrwt beam="1">  1        1 0.22917112E+00 0.19048911E+04</pdfrwt>
<pdfrwt beam="2">  1       -2 0.93690105E-01 0.19048911E+04</pdfrwt>
<totfact> 0.52557803E+00</totfact>
</mgrwt>
</event>
<event>
12    4  0.4207946E-008  0.1625887E+04  0.7818608E-02  0.8804801E-01
         -2   -1    0    0    0  501 -0.00000000000E+00  0.00000000000E+00  0.24208086998E+03  0.24208086998E+03  0.00000000000E+00 0.  1.
          1   -1    0    0  501    0  0.00000000000E+00 -0.00000000000E+00 -0.27299838315E+04  0.27299838315E+04  0.00000000000E+00 0. -1.
        -24    2    1    2    0    0 -0.36401530799E+03 -0.30366148437E+03 -0.10331263783E+04  0.11396238205E+04  0.81700044461E+02 0.  0.
        254    2    1    2    0    0  0.36401530799E+03  0.30366148437E+03 -0.14547765832E+04  0.18324408809E+04  0.10083388485E+04 0.  0.
         23    2    4    4    0    0  0.53971535033E+03  0.15239226135E+03 -0.14764485792E+04  0.15815174344E+04  0.82346388515E+02 0.  0.
         23    2    4    4    0    0 -0.17570004234E+03  0.15126922302E+03  0.21671995976E+02  0.25092344650E+03  0.93488062787E+02 0.  0.
          3    1    3    3  502    0 -0.17084202578E+03 -0.15566308955E+03 -0.59735638016E+03  0.64050967216E+03  0.00000000000E+00 0. -1.
         -2    1    3    3    0  502 -0.19317328221E+03 -0.14799839482E+03 -0.43576999815E+03  0.49911414838E+03  0.00000000000E+00 0.  1.
         11    1    5    5    0    0  0.51438539574E+03  0.12623611163E+03 -0.13594142337E+04  0.14589499477E+04  0.00000000000E+00 0. -1.
        -11    1    5    5    0    0  0.25329954595E+02  0.26156149728E+02 -0.11703434550E+03  0.12256748670E+03  0.00000000000E+00 0.  1.
          1    1    6    6  503    0 -0.59769045148E+02  0.71176719981E+00  0.99107322815E+00  0.59781498782E+02  0.00000000000E+00 0. -1.
         -1    1    6    6    0  503 -0.11593099720E+03  0.15055745582E+03  0.20680922748E+02  0.19114194772E+03  0.00000000000E+00 0.  1.
<mgrwt>
<rscale>  0 0.16258867E+04</rscale>
<asrwt>0</asrwt>
<pdfrwt beam="1">  1        1 0.41999751E+00 0.16258867E+04</pdfrwt>
<pdfrwt beam="2">  1       -2 0.37243211E-01 0.16258867E+04</pdfrwt>
<totfact> 0.53576778E+00</totfact>
</mgrwt>
</event>
<event>
12    4  0.4207946E-008  0.1858332E+04  0.7818608E-02  0.8675880E-01
          1   -1    0    0  501    0  0.00000000000E+00  0.00000000000E+00  0.15038110464E+04  0.15038110464E+04  0.00000000000E+00 0. -1.
         -2   -1    0    0    0  501 -0.00000000000E+00 -0.00000000000E+00 -0.57410762619E+03  0.57410762619E+03  0.00000000000E+00 0.  1.
        -24    2    1    2    0    0  0.44045494820E+03 -0.52575579382E+03  0.51965322735E+03  0.86414253516E+03  0.79266186075E+02 0.  0.
        254    2    1    2    0    0 -0.44045494820E+03  0.52575579382E+03  0.41005019285E+03  0.12137761374E+04  0.91361459872E+03 0.  0.
         23    2    4    4    0    0 -0.42631593429E+03  0.75596037182E+03  0.41042298164E+03  0.96549992667E+03  0.10257545984E+03 0.  0.
         23    2    4    4    0    0 -0.14139013912E+02 -0.23020457800E+03 -0.37278879584E+00  0.24827621075E+03  0.91906900751E+02 0.  0.
          3    1    3    3  502    0  0.26052519765E+03 -0.24986622616E+03  0.27824382979E+03  0.45576983051E+03  0.00000000000E+00 0. -1.
         -4    1    3    3    0  502  0.17992975055E+03 -0.27588956766E+03  0.24140939757E+03  0.40837270466E+03  0.00000000000E+00 0.  1.
         11    1    5    5    0    0 -0.27330432954E+03  0.43254004017E+03  0.19307734453E+03  0.54686836064E+03  0.00000000000E+00 0. -1.
        -11    1    5    5    0    0 -0.15301160475E+03  0.32342033164E+03  0.21734563711E+03  0.41863156603E+03  0.00000000000E+00 0.  1.
          4    1    6    6  503    0 -0.14574509149E+02 -0.10605956339E+03  0.44958070905E+02  0.11611320098E+03  0.00000000000E+00 0. -1.
         -4    1    6    6    0  503  0.43549523736E+00 -0.12414501461E+03 -0.45330859701E+02  0.13216300977E+03  0.00000000000E+00 0.  1.
<mgrwt>
<rscale>  0 0.18583319E+04</rscale>
<asrwt>0</asrwt>
<pdfrwt beam="1">  1        1 0.23135554E+00 0.18583319E+04</pdfrwt>
<pdfrwt beam="2">  1       -2 0.88324251E-01 0.18583319E+04</pdfrwt>
<totfact> 0.59127960E+00</totfact>
</mgrwt>
</event>
<event>
12    4  0.4207946E-008  0.1317614E+04  0.7818608E-02  0.9015713E-01
          1   -1    0    0  501    0  0.00000000000E+00  0.00000000000E+00  0.42308081855E+03  0.42308081855E+03  0.00000000000E+00 0. -1.
         -2   -1    0    0    0  501 -0.00000000000E+00 -0.00000000000E+00 -0.10258712273E+04  0.10258712273E+04  0.00000000000E+00 0.  1.
        -24    2    1    2    0    0 -0.10733114347E+03 -0.10675279183E+02  0.13787266163E+03  0.19502301297E+03  0.85971907157E+02 0.  0.
        254    2    1    2    0    0  0.10733114347E+03  0.10675279183E+02 -0.74066307036E+03  0.12539290329E+04  0.10060428916E+04 0.  0.
         23    2    4    4    0    0  0.31753495097E+03  0.26198239130E+03 -0.80420384442E+03  0.90812351326E+03  0.92093829941E+02 0.  0.
         23    2    4    4    0    0 -0.21020380750E+03 -0.25130711212E+03  0.63540774063E+02  0.34580551961E+03  0.90571088837E+02 0.  0.
          1    1    3    3  502    0 -0.10920858047E+03 -0.32548416315E+02  0.12663839612E+03  0.17036195827E+03  0.00000000000E+00 0. -1.
         -2    1    3    3    0  502  0.18774369979E+01  0.21873137132E+02  0.11234265504E+02  0.24661054703E+02  0.00000000000E+00 0.  1.
         11    1    5    5    0    0  0.15306354713E+03  0.18510500743E+03 -0.46731939527E+03  0.52543289812E+03  0.00000000000E+00 0. -1.
        -11    1    5    5    0    0  0.16447140385E+03  0.76877383870E+02 -0.33688444915E+03  0.38269061513E+03  0.00000000000E+00 0.  1.
          3    1    6    6  503    0 -0.19686269379E+02 -0.46470931371E+02  0.41243670188E+02  0.65177733890E+02  0.00000000000E+00 0. -1.
         -3    1    6    6    0  503 -0.19051753812E+03 -0.20483618075E+03  0.22297103876E+02  0.28062778572E+03  0.00000000000E+00 0.  1.
<mgrwt>
<rscale>  0 0.13176137E+04</rscale>
<asrwt>0</asrwt>
<pdfrwt beam="1">  1        1 0.65089358E-01 0.13176137E+04</pdfrwt>
<pdfrwt beam="2">  1       -2 0.15782634E+00 0.13176137E+04</pdfrwt>
<totfact> 0.12464013E+01</totfact>
</mgrwt>
</event>
<event>
12    4  0.4207946E-008  0.2053727E+04  0.7818608E-02  0.8581905E-01
          1   -1    0    0  501    0  0.00000000000E+00  0.00000000000E+00  0.66866000154E+03  0.66866000154E+03  0.00000000000E+00 0. -1.
         -2   -1    0    0    0  501 -0.00000000000E+00 -0.00000000000E+00 -0.15769579736E+04  0.15769579736E+04  0.00000000000E+00 0.  1.
        -24    2    1    2    0    0  0.49752110646E+03  0.40657762437E+03 -0.93419893897E+03  0.11365573015E+04  0.78754212521E+02 0.  0.
        254    2    1    2    0    0 -0.49752110646E+03 -0.40657762437E+03  0.25900966920E+02  0.11090606736E+04  0.90361059185E+03 0.  0.
         23    2    4    4    0    0  0.20622577800E+03  0.59350903515E+01 -0.14789461813E+03  0.27005302097E+03  0.92149439800E+02 0.  0.
         23    2    4    4    0    0 -0.70374688446E+03 -0.41251271472E+03  0.17379558505E+03  0.83900765267E+03  0.91118157678E+02 0.  0.
          3    1    3    3  502    0  0.22486731740E+03  0.16202415572E+03 -0.34142363438E+03  0.43975815579E+03  0.00000000000E+00 0. -1.
         -4    1    3    3    0  502  0.27265378906E+03  0.24455346866E+03 -0.59277530459E+03  0.69679914571E+03  0.00000000000E+00 0.  1.
         11    1    5    5    0    0  0.14939130962E+03  0.12247563293E+01 -0.51447554339E+02  0.15800669057E+03  0.00000000000E+00 0. -1.
        -11    1    5    5    0    0  0.56834468381E+02  0.47103340222E+01 -0.96447063790E+02  0.11204633040E+03  0.00000000000E+00 0.  1.
          2    1    6    6  503    0 -0.36371592622E+03 -0.25707549177E+03  0.68863729222E+02  0.45068758209E+03  0.00000000000E+00 0. -1.
         -2    1    6    6    0  503 -0.34003095824E+03 -0.15543722295E+03  0.10493185583E+03  0.38832007057E+03  0.00000000000E+00 0.  1.
<mgrwt>
<rscale>  0 0.20537271E+04</rscale>
<asrwt>0</asrwt>
<pdfrwt beam="1">  1        1 0.10287077E+00 0.20537271E+04</pdfrwt>
<pdfrwt beam="2">  1       -2 0.24260892E+00 0.20537271E+04</pdfrwt>
<totfact> 0.16849676E+00</totfact>
</mgrwt>
</event>
<event>
12    4  0.4207946E-008  0.1760416E+04  0.7818608E-02  0.8727638E-01
         -2   -1    0    0    0  501 -0.00000000000E+00  0.00000000000E+00  0.45401508039E+03  0.45401508039E+03  0.00000000000E+00 0.  1.
          1   -1    0    0  501    0  0.00000000000E+00 -0.00000000000E+00 -0.17064769474E+04  0.17064769474E+04  0.00000000000E+00 0. -1.
        -24    2    1    2    0    0  0.45211360616E+03 -0.16781388724E+03  0.70161271345E+02  0.49413925993E+03  0.81748336874E+02 0.  0.
        254    2    1    2    0    0 -0.45211360616E+03  0.16781388724E+03 -0.13226231384E+04  0.16663527679E+04  0.89153315544E+03 0.  0.
         23    2    4    4    0    0 -0.43962049767E+03 -0.15679285542E+03 -0.12262560604E+04  0.13150783751E+04  0.88752608241E+02 0.  0.
         23    2    4    4    0    0 -0.12493108491E+02  0.32460674266E+03 -0.96367078007E+02  0.35127439283E+03  0.92636225051E+02 0.  0.
          1    1    3    3  502    0  0.48971060309E+02  0.64469147289E+01  0.10511143701E+00  0.49393709172E+02  0.00000000000E+00 0. -1.
         -2    1    3    3    0  502  0.40314254585E+03 -0.17426080197E+03  0.70056159908E+02  0.44474555076E+03  0.00000000000E+00 0.  1.
         11    1    5    5    0    0 -0.30009162355E+03 -0.73558134810E+02 -0.87825587977E+03  0.93102050035E+03  0.00000000000E+00 0. -1.
        -11    1    5    5    0    0 -0.13952887411E+03 -0.83234720608E+02 -0.34800018061E+03  0.38405787471E+03  0.00000000000E+00 0.  1.
          1    1    6    6  503    0  0.31563709193E+02  0.12878748226E+03 -0.10658973856E+02  0.13302667795E+03  0.00000000000E+00 0. -1.
         -1    1    6    6    0  503 -0.44056817684E+02  0.19581926041E+03 -0.85708104152E+02  0.21824771487E+03  0.00000000000E+00 0.  1.
<mgrwt>
<rscale>  0 0.17604162E+04</rscale>
<asrwt>0</asrwt>
<pdfrwt beam="1">  1        1 0.26253492E+00 0.17604162E+04</pdfrwt>
<pdfrwt beam="2">  1       -2 0.69848473E-01 0.17604162E+04</pdfrwt>
<totfact> 0.73229165E+00</totfact>
</mgrwt>
</event>
<event>
12    4  0.4207946E-008  0.1728826E+04  0.7818608E-02  0.8745092E-01
         -4   -1    0    0    0  501 -0.00000000000E+00  0.00000000000E+00  0.76245717232E+03  0.76245717232E+03  0.00000000000E+00 0.  1.
          3   -1    0    0  501    0  0.00000000000E+00 -0.00000000000E+00 -0.98000283444E+03  0.98000283444E+03  0.00000000000E+00 0. -1.
        -24    2    1    2    0    0  0.39042910258E+03  0.46822071143E+03  0.57869206032E+02  0.62197107239E+03  0.10878258654E+03 0.  0.
        254    2    1    2    0    0 -0.39042910258E+03 -0.46822071143E+03 -0.27541486815E+03  0.11204889344E+04  0.89887517693E+03 0.  0.
         23    2    4    4    0    0 -0.36009764151E+03 -0.42446093219E+03 -0.57350503225E+03  0.80456377346E+03  0.92614519231E+02 0.  0.
         23    2    4    4    0    0 -0.30331461062E+02 -0.43759779244E+02  0.29809016409E+03  0.31592516092E+03  0.90089097900E+02 0.  0.
          3    1    3    3  502    0  0.37170354960E+03  0.39196367424E+03  0.41622741043E+02  0.54178547718E+03  0.00000000000E+00 0. -1.
         -4    1    3    3    0  502  0.18725552976E+02  0.76257037186E+02  0.16246464989E+02  0.80185595210E+02  0.00000000000E+00 0.  1.
         11    1    5    5    0    0 -0.14317703666E+03 -0.11742731375E+03 -0.15022943769E+03  0.23844857263E+03  0.00000000000E+00 0.  1.
        -11    1    5    5    0    0 -0.21692060486E+03 -0.30703361843E+03 -0.42327559456E+03  0.56611520083E+03  0.00000000000E+00 0. -1.
          2    1    6    6  503    0  0.56804572781E+01 -0.43129115742E+02  0.54722204770E+02  0.69906422556E+02  0.00000000000E+00 0.  1.
         -2    1    6    6    0  503 -0.36011918340E+02 -0.63066350134E+00  0.24336795932E+03  0.24601873836E+03  0.00000000000E+00 0. -1.
<mgrwt>
<rscale>  0 0.17288264E+04</rscale>
<asrwt>0</asrwt>
<pdfrwt beam="1">  1        3 0.15076967E+00 0.17288264E+04</pdfrwt>
<pdfrwt beam="2">  1       -4 0.11730110E+00 0.17288264E+04</pdfrwt>
<totfact> 0.38886941E-01</totfact>
</mgrwt>
</event>
<event>
12    4  0.4207946E-008  0.1442108E+04  0.7818608E-02  0.8923890E-01
         -2   -1    0    0    0  501 -0.00000000000E+00  0.00000000000E+00  0.53873587135E+03  0.53873587135E+03  0.00000000000E+00 0.  1.
          1   -1    0    0  501    0  0.00000000000E+00 -0.00000000000E+00 -0.96507177009E+03  0.96507177009E+03  0.00000000000E+00 0. -1.
        -24    2    1    2    0    0  0.41023552000E+02 -0.19475554679E+03 -0.54264682474E+03  0.58325950477E+03  0.78188353869E+02 0.  0.
        254    2    1    2    0    0 -0.41023552000E+02  0.19475554679E+03  0.11631092600E+03  0.92054813668E+03  0.89121713718E+03 0.  0.
         23    2    4    4    0    0 -0.32090538638E+03  0.95157975035E+02 -0.25898196756E+03  0.43313805091E+03  0.92204145254E+02 0.  0.
         23    2    4    4    0    0  0.27988183438E+03  0.99597571758E+02  0.37529289356E+03  0.48741008576E+03  0.92034331789E+02 0.  0.
          1    1    3    3  502    0 -0.18321678365E+01 -0.15516195694E+03 -0.37982932478E+03  0.41030343123E+03  0.00000000000E+00 0. -1.
         -2    1    3    3    0  502  0.42855719837E+02 -0.39593589857E+02 -0.16281749996E+03  0.17295607354E+03  0.00000000000E+00 0.  1.
         11    1    5    5    0    0 -0.13527234929E+03  0.40610196439E+02 -0.16756233383E+03  0.21914591544E+03  0.00000000000E+00 0. -1.
        -11    1    5    5    0    0 -0.18563303709E+03  0.54547778596E+02 -0.91419633736E+02  0.21399213547E+03  0.00000000000E+00 0.  1.
          2    1    6    6  503    0  0.27963773507E+03  0.96131360403E+02  0.33447176288E+03  0.44644133040E+03  0.00000000000E+00 0. -1.
         -2    1    6    6    0  503  0.24409931558E+00  0.34662113558E+01  0.40821130687E+02  0.40968755366E+02  0.00000000000E+00 0.  1.
<mgrwt>
<rscale>  0 0.14421079E+04</rscale>
<asrwt>0</asrwt>
<pdfrwt beam="1">  1        1 0.14847258E+00 0.14421079E+04</pdfrwt>
<pdfrwt beam="2">  1       -2 0.82882442E-01 0.14421079E+04</pdfrwt>
<totfact> 0.17526487E+01</totfact>
</mgrwt>
</event>
<event>
12    4  0.4207946E-008  0.1918823E+04  0.7818608E-02  0.8645543E-01
         -4   -1    0    0    0  501 -0.00000000000E+00  0.00000000000E+00  0.33614087855E+03  0.33614087855E+03  0.00000000000E+00 0.  1.
          3   -1    0    0  501    0  0.00000000000E+00 -0.00000000000E+00 -0.27383467278E+04  0.27383467278E+04  0.00000000000E+00 0. -1.
        -24    2    1    2    0    0 -0.83668114620E+02 -0.58446268797E+03 -0.16730229651E+04  0.17760409631E+04  0.81967515035E+02 0.  0.
        254    2    1    2    0    0  0.83668114620E+02  0.58446268797E+03 -0.72918288408E+03  0.12984466433E+04  0.89758510458E+03 0.  0.
         23    2    4    4    0    0  0.26788850320E+03  0.48701353350E+03 -0.86626055852E+03  0.10334974493E+04  0.93611913964E+02 0.  0.
         23    2    4    4    0    0 -0.18422038858E+03  0.97449154468E+02  0.13707767445E+03  0.26494919400E+03  0.89298921008E+02 0.  0.
          1    1    3    3  502    0 -0.31362093216E+02 -0.14558166794E+03 -0.53048550398E+03  0.55099226207E+03  0.00000000000E+00 0. -1.
         -2    1    3    3    0  502 -0.52306021403E+02 -0.43888102003E+03 -0.11425374612E+04  0.12250487010E+04  0.00000000000E+00 0.  1.
         11    1    5    5    0    0  0.19821426274E+01  0.40784136584E+02 -0.37720806998E+02  0.55588973429E+02  0.00000000000E+00 0.  1.
        -11    1    5    5    0    0  0.26590636058E+03  0.44622939692E+03 -0.82853975152E+03  0.97790847584E+03  0.00000000000E+00 0. -1.
          1    1    6    6  503    0 -0.15921230535E+03  0.10316421765E+03  0.14423420003E+03  0.23831684464E+03  0.00000000000E+00 0. -1.
         -1    1    6    6    0  503 -0.25008083231E+02 -0.57150631815E+01 -0.71565255874E+01  0.26632349362E+02  0.00000000000E+00 0.  1.
<mgrwt>
<rscale>  0 0.19188228E+04</rscale>
<asrwt>0</asrwt>
<pdfrwt beam="1">  1        3 0.42128411E+00 0.19188228E+04</pdfrwt>
<pdfrwt beam="2">  1       -4 0.51713982E-01 0.19188228E+04</pdfrwt>
<totfact> 0.66585601E-02</totfact>
</mgrwt>
</event>
<event>
12    4  0.4207946E-008  0.2498688E+04  0.7818608E-02  0.8403453E-01
          1   -1    0    0  501    0  0.00000000000E+00  0.00000000000E+00  0.19931411773E+04  0.19931411773E+04  0.00000000000E+00 0. -1.
         -2   -1    0    0    0  501 -0.00000000000E+00 -0.00000000000E+00 -0.78311588445E+03  0.78311588445E+03  0.00000000000E+00 0.  1.
        -24    2    1    2    0    0  0.63501113756E+03  0.51425242445E+03  0.13259049673E+04  0.15598092041E+04  0.85358479640E+02 0.  0.
        254    2    1    2    0    0 -0.63501113756E+03 -0.51425242445E+03 -0.11587967444E+03  0.12164478577E+04  0.89365686400E+03 0.  0.
         23    2    4    4    0    0 -0.70571877633E+03 -0.68437262296E+03 -0.17583400398E+03  0.10032189626E+04  0.95529114225E+02 0.  0.
         23    2    4    4    0    0  0.70707638772E+02  0.17012019851E+03  0.59954329543E+02  0.21322889505E+03  0.89059462896E+02 0.  0.
          1    1    3    3  502    0  0.54545941564E+03  0.42197804098E+03  0.11652719531E+04  0.13540495434E+04  0.00000000000E+00 0. -1.
         -4    1    3    3    0  502  0.89551721913E+02  0.92274383468E+02  0.16063301418E+03  0.20575966074E+03  0.00000000000E+00 0.  1.
         11    1    5    5    0    0 -0.55029824434E+03 -0.49221685198E+03 -0.10228192904E+03  0.74536379044E+03  0.00000000000E+00 0.  1.
        -11    1    5    5    0    0 -0.15542053199E+03 -0.19215577098E+03 -0.73552074947E+02  0.25785517217E+03  0.00000000000E+00 0. -1.
          4    1    6    6  503    0 -0.60234605534E+00  0.73953286318E+02  0.57167794876E+02  0.93475173971E+02  0.00000000000E+00 0. -1.
         -4    1    6    6    0  503  0.71309984827E+02  0.96166912189E+02  0.27865346674E+01  0.11975372108E+03  0.00000000000E+00 0.  1.
<mgrwt>
<rscale>  0 0.24986881E+04</rscale>
<asrwt>0</asrwt>
<pdfrwt beam="1">  1        1 0.30663710E+00 0.24986881E+04</pdfrwt>
<pdfrwt beam="2">  1       -2 0.12047937E+00 0.24986881E+04</pdfrwt>
<totfact> 0.12364196E+00</totfact>
</mgrwt>
</event>
<event>
12    4  0.4207946E-008  0.1436041E+04  0.7818608E-02  0.8928136E-01
          1   -1    0    0  501    0  0.00000000000E+00  0.00000000000E+00  0.61867842492E+03  0.61867842492E+03  0.00000000000E+00 0. -1.
         -2   -1    0    0    0  501 -0.00000000000E+00 -0.00000000000E+00 -0.83331417812E+03  0.83331417812E+03  0.00000000000E+00 0.  1.
        -24    2    1    2    0    0 -0.16606239242E+03  0.13136275351E+03  0.36636520613E+03  0.43059985827E+03  0.79748871433E+02 0.  0.
        254    2    1    2    0    0  0.16606239242E+03 -0.13136275351E+03 -0.58100095933E+03  0.10213927448E+04  0.81292566274E+03 0.  0.
         23    2    4    4    0    0 -0.99578483256E+02 -0.34880019318E+03 -0.40778052417E+02  0.37622614536E+03  0.91136237615E+02 0.  0.
         23    2    4    4    0    0  0.26564087568E+03  0.21743743967E+03 -0.54022290691E+03  0.64516659941E+03  0.80963182039E+02 0.  0.
          1    1    3    3  502    0 -0.15829001438E+03  0.14221897526E+03  0.34139364892E+03  0.40228297143E+03  0.00000000000E+00 0. -1.
         -2    1    3    3    0  502 -0.77723780355E+01 -0.10856221751E+02  0.24971557207E+02  0.28316886841E+02  0.00000000000E+00 0.  1.
         11    1    5    5    0    0 -0.91755090795E+02 -0.20806394593E+03 -0.56746430798E+02  0.23437098731E+03  0.00000000000E+00 0. -1.
        -11    1    5    5    0    0 -0.78233924618E+01 -0.14073624724E+03  0.15968378381E+02  0.14185515805E+03  0.00000000000E+00 0.  1.
          3    1    6    6  503    0  0.23675497437E+03  0.15252827296E+03 -0.43427089994E+03  0.51759927210E+03  0.00000000000E+00 0. -1.
         -3    1    6    6    0  503  0.28885901307E+02  0.64909166708E+02 -0.10595200697E+03  0.12756732732E+03  0.00000000000E+00 0.  1.
<mgrwt>
<rscale>  0 0.14360411E+04</rscale>
<asrwt>0</asrwt>
<pdfrwt beam="1">  1        1 0.95181296E-01 0.14360411E+04</pdfrwt>
<pdfrwt beam="2">  1       -2 0.12820218E+00 0.14360411E+04</pdfrwt>
<totfact> 0.12534592E+01</totfact>
</mgrwt>
</event>
<event>
12    4  0.4207946E-008  0.1182023E+04  0.7818608E-02  0.9128739E-01
          1   -1    0    0  501    0  0.00000000000E+00  0.00000000000E+00  0.74882008922E+03  0.74882008922E+03  0.00000000000E+00 0. -1.
         -2   -1    0    0    0  501 -0.00000000000E+00 -0.00000000000E+00 -0.46646018830E+03  0.46646018830E+03  0.00000000000E+00 0.  1.
        -24    2    1    2    0    0  0.18510842426E+03 -0.17760230710E+03  0.11351887198E+02  0.26878512901E+03  0.79428408124E+02 0.  0.
        254    2    1    2    0    0 -0.18510842426E+03  0.17760230710E+03  0.27100801372E+03  0.94649514852E+03  0.86982757742E+03 0.  0.
         23    2    4    4    0    0  0.31661582393E+03  0.11733868447E+03  0.25566641991E+03  0.43282925911E+03  0.89229493085E+02 0.  0.
         23    2    4    4    0    0 -0.50172424819E+03  0.60263622632E+02  0.15341593811E+02  0.51366588940E+03  0.90875497251E+02 0.  0.
          3    1    3    3  502    0  0.13540154115E+03 -0.77093279710E+02  0.15500445656E+02  0.15657973987E+03  0.00000000000E+00 0. -1.
         -4    1    3    3    0  502  0.49706883103E+02 -0.10050902739E+03 -0.41485584584E+01  0.11220538914E+03  0.00000000000E+00 0.  1.
         11    1    5    5    0    0  0.18810383639E+03  0.43722427888E+02  0.98179876352E+02  0.21664254449E+03  0.00000000000E+00 0.  1.
        -11    1    5    5    0    0  0.12851198755E+03  0.73616256579E+02  0.15748654356E+03  0.21618671462E+03  0.00000000000E+00 0. -1.
          2    1    6    6  503    0 -0.12816130384E+03 -0.15750410524E+02 -0.20594557060E+02  0.13075752756E+03  0.00000000000E+00 0. -1.
         -2    1    6    6    0  503 -0.37356294435E+03  0.76014033155E+02  0.35936150871E+02  0.38290836184E+03  0.00000000000E+00 0.  1.
<mgrwt>
<rscale>  0 0.11820233E+04</rscale>
<asrwt>0</asrwt>
<pdfrwt beam="1">  1        1 0.11520309E+00 0.11820233E+04</pdfrwt>
<pdfrwt beam="2">  1       -2 0.71763106E-01 0.11820233E+04</pdfrwt>
<totfact> 0.37526139E+01</totfact>
</mgrwt>
</event>
<event>
12    4  0.4207946E-008  0.1090895E+04  0.7818608E-02  0.9214112E-01
          1   -1    0    0  501    0  0.00000000000E+00  0.00000000000E+00  0.15039370286E+04  0.15039370286E+04  0.00000000000E+00 0. -1.
         -2   -1    0    0    0  501 -0.00000000000E+00 -0.00000000000E+00 -0.19782265176E+03  0.19782265176E+03  0.00000000000E+00 0.  1.
        -24    2    1    2    0    0 -0.79977241440E+02  0.47373152901E+02  0.37726464545E+03  0.39837757900E+03  0.87951736660E+02 0.  0.
        254    2    1    2    0    0  0.79977241440E+02 -0.47373152901E+02  0.92884973136E+03  0.13033821013E+04  0.90961667961E+03 0.  0.
         23    2    4    4    0    0  0.32070843207E+03  0.31581578918E+03  0.37734814202E+03  0.59451669297E+03  0.92005254462E+02 0.  0.
         23    2    4    4    0    0 -0.24073119063E+03 -0.36318894208E+03  0.55150158934E+03  0.70886540834E+03  0.92078500820E+02 0.  0.
          3    1    3    3  502    0 -0.20040568007E+02  0.57199536304E+02  0.25170593817E+03  0.25890015572E+03  0.00000000000E+00 0. -1.
         -4    1    3    3    0  502 -0.59936673433E+02 -0.98263834035E+01  0.12555870728E+03  0.13947742329E+03  0.00000000000E+00 0.  1.
         11    1    5    5    0    0  0.13617297026E+03  0.11777182791E+03  0.20852927506E+03  0.27549544431E+03  0.00000000000E+00 0. -1.
        -11    1    5    5    0    0  0.18453546180E+03  0.19804396127E+03  0.16881886696E+03  0.31902124866E+03  0.00000000000E+00 0.  1.
          1    1    6    6  503    0 -0.52161558303E+02 -0.11269024680E+03  0.10137745817E+03  0.16030380193E+03  0.00000000000E+00 0. -1.
         -1    1    6    6    0  503 -0.18856963232E+03 -0.25049869528E+03  0.45012413116E+03  0.54856160641E+03  0.00000000000E+00 0.  1.
<mgrwt>
<rscale>  0 0.10908947E+04</rscale>
<asrwt>0</asrwt>
<pdfrwt beam="1">  1        1 0.23137492E+00 0.10908947E+04</pdfrwt>
<pdfrwt beam="2">  1       -2 0.30434255E-01 0.10908947E+04</pdfrwt>
<totfact> 0.56771557E+01</totfact>
</mgrwt>
</event>
<event>
12    4  0.4207946E-008  0.2157051E+04  0.7818608E-02  0.8536520E-01
          1   -1    0    0  501    0  0.00000000000E+00  0.00000000000E+00  0.23530546689E+04  0.23530546689E+04  0.00000000000E+00 0. -1.
         -2   -1    0    0    0  501 -0.00000000000E+00 -0.00000000000E+00 -0.49434340460E+03  0.49434340460E+03  0.00000000000E+00 0.  1.
        -24    2    1    2    0    0 -0.27623843909E+03 -0.71115017579E+03  0.16810371320E+03  0.78534422118E+03  0.80401738692E+02 0.  0.
        254    2    1    2    0    0  0.27623843909E+03  0.71115017579E+03  0.16906075511E+04  0.20620538523E+04  0.90103826236E+03 0.  0.
         23    2    4    4    0    0  0.18539958531E+03 -0.14097724166E+03  0.73050330965E+03  0.77193817857E+03  0.89475567714E+02 0.  0.
         23    2    4    4    0    0  0.90838853785E+02  0.85212741746E+03  0.96010424141E+03  0.12901156737E+04  0.90694345197E+02 0.  0.
          3    1    3    3  502    0 -0.24387762921E+03 -0.65890925352E+03  0.17336826337E+03  0.72366722819E+03  0.00000000000E+00 0. -1.
         -4    1    3    3    0  502 -0.32360809880E+02 -0.52240922269E+02 -0.52645501768E+01  0.61676992989E+02  0.00000000000E+00 0.  1.
         11    1    5    5    0    0  0.17932616823E+03 -0.15000085133E+03  0.65126534216E+03  0.69195713445E+03  0.00000000000E+00 0.  1.
        -11    1    5    5    0    0  0.60734170798E+01  0.90236096691E+01  0.79237967490E+02  0.79981044119E+02  0.00000000000E+00 0. -1.
          1    1    6    6  503    0  0.33633974731E+02  0.30874962638E+03  0.41471080887E+03  0.51811449607E+03  0.00000000000E+00 0. -1.
         -1    1    6    6    0  503  0.57204879054E+02  0.54337779108E+03  0.54539343254E+03  0.77200117765E+03  0.00000000000E+00 0.  1.
<mgrwt>
<rscale>  0 0.21570508E+04</rscale>
<asrwt>0</asrwt>
<pdfrwt beam="1">  1        1 0.36200841E+00 0.21570508E+04</pdfrwt>
<pdfrwt beam="2">  1       -2 0.76052833E-01 0.21570508E+04</pdfrwt>
<totfact> 0.21303368E+00</totfact>
</mgrwt>
</event>
<event>
12    4  0.4207946E-008  0.1503035E+04  0.7818608E-02  0.8882437E-01
         -4   -1    0    0    0  501 -0.00000000000E+00  0.00000000000E+00  0.74261382557E+03  0.74261382557E+03  0.00000000000E+00 0.  1.
          3   -1    0    0  501    0  0.00000000000E+00 -0.00000000000E+00 -0.76052794491E+03  0.76052794491E+03  0.00000000000E+00 0. -1.
        -24    2    1    2    0    0 -0.17277507951E+03  0.41832626150E+03 -0.53031741526E+00  0.45867295644E+03  0.74380848186E+02 0.  0.
        254    2    1    2    0    0  0.17277507951E+03 -0.41832626150E+03 -0.17383801928E+02  0.10444688140E+04  0.94115079439E+03 0.  0.
         23    2    4    4    0    0  0.50205014180E+02 -0.11199988648E+03 -0.45998110934E+03  0.48479812785E+03  0.91553731734E+02 0.  0.
         23    2    4    4    0    0  0.12257006533E+03 -0.30632637502E+03  0.44259730741E+03  0.55967068620E+03  0.92084914687E+02 0.  0.
          1    1    3    3  502    0 -0.15778303438E+03  0.37675338108E+03 -0.22979117425E+02  0.40910467601E+03  0.00000000000E+00 0. -1.
         -2    1    3    3    0  502 -0.14992045125E+02  0.41572880417E+02  0.22448800010E+02  0.49568280433E+02  0.00000000000E+00 0.  1.
         11    1    5    5    0    0 -0.16786172218E+02 -0.73042599528E+02 -0.24901442290E+03  0.26004841807E+03  0.00000000000E+00 0. -1.
        -11    1    5    5    0    0  0.66991186398E+02 -0.38957286947E+02 -0.21096668643E+03  0.22474970978E+03  0.00000000000E+00 0.  1.
          3    1    6    6  503    0  0.45614503834E+01 -0.34598050793E+02  0.11790690670E+02  0.36835476579E+02  0.00000000000E+00 0. -1.
         -3    1    6    6    0  503  0.11800861494E+03 -0.27172832423E+03  0.43080661674E+03  0.52283520962E+03  0.00000000000E+00 0.  1.
<mgrwt>
<rscale>  0 0.15030350E+04</rscale>
<asrwt>0</asrwt>
<pdfrwt beam="1">  1        3 0.11700430E+00 0.15030350E+04</pdfrwt>
<pdfrwt beam="2">  1       -4 0.11424828E+00 0.15030350E+04</pdfrwt>
<totfact> 0.79634213E-01</totfact>
</mgrwt>
</event>
<event>
12    4  0.4207946E-008  0.1947090E+04  0.7818608E-02  0.8631765E-01
          1   -1    0    0  501    0  0.00000000000E+00  0.00000000000E+00  0.59991024036E+03  0.59991024036E+03  0.00000000000E+00 0. -1.
         -2   -1    0    0    0  501 -0.00000000000E+00 -0.00000000000E+00 -0.15798854398E+04  0.15798854398E+04  0.00000000000E+00 0.  1.
        -24    2    1    2    0    0  0.63824316869E+03 -0.34787399757E+03 -0.11814643920E+03  0.74077297263E+03  0.80095913255E+02 0.  0.
        254    2    1    2    0    0 -0.63824316869E+03  0.34787399757E+03 -0.86182876027E+03  0.14390227076E+04  0.89424095204E+03 0.  0.
         23    2    4    4    0    0 -0.48914606338E+03  0.79497321402E+02  0.16132329371E+02  0.50454180107E+03  0.93372809452E+02 0.  0.
         23    2    4    4    0    0 -0.14909710530E+03  0.26837667617E+03 -0.87796108964E+03  0.93448090649E+03  0.90459397336E+02 0.  0.
          3    1    3    3  502    0  0.52396798652E+03 -0.30518995929E+03 -0.73208453694E+02  0.61077233061E+03  0.00000000000E+00 0. -1.
         -4    1    3    3    0  502  0.11427518217E+03 -0.42684038280E+02 -0.44937985508E+02  0.13000064202E+03  0.00000000000E+00 0.  1.
         11    1    5    5    0    0 -0.46743559625E+03  0.55839637442E+02  0.57460660388E+01  0.47079413657E+03  0.00000000000E+00 0. -1.
        -11    1    5    5    0    0 -0.21710467131E+02  0.23657683960E+02  0.10386263333E+02  0.33747664503E+02  0.00000000000E+00 0.  1.
          2    1    6    6  503    0 -0.16037307797E+03  0.23438773832E+03 -0.76750800250E+03  0.81836768626E+03  0.00000000000E+00 0. -1.
         -2    1    6    6    0  503  0.11275972663E+02  0.33988937850E+02 -0.11045308714E+03  0.11611322024E+03  0.00000000000E+00 0.  1.
<mgrwt>
<rscale>  0 0.19470896E+04</rscale>
<asrwt>0</asrwt>
<pdfrwt beam="1">  1        1 0.92293885E-01 0.19470896E+04</pdfrwt>
<pdfrwt beam="2">  1       -2 0.24305929E+00 0.19470896E+04</pdfrwt>
<totfact> 0.19816320E+00</totfact>
</mgrwt>
</event>
<event>
12    4  0.4207946E-008  0.2818463E+04  0.7818608E-02  0.8297559E-01
          1   -1    0    0  501    0  0.00000000000E+00  0.00000000000E+00  0.37884175718E+04  0.37884175718E+04  0.00000000000E+00 0. -1.
         -2   -1    0    0    0  501 -0.00000000000E+00 -0.00000000000E+00 -0.52421186852E+03  0.52421186852E+03  0.00000000000E+00 0.  1.
        -24    2    1    2    0    0 -0.77639400995E+03 -0.40802773794E+03  0.74897472261E+02  0.88381184994E+03  0.78990259609E+02 0.  0.
        254    2    1    2    0    0  0.77639400995E+03  0.40802773794E+03  0.31893082310E+04  0.34288175904E+04  0.90323240754E+03 0.  0.
         23    2    4    4    0    0  0.25301974589E+03  0.40932414992E+03  0.25556943536E+04  0.26021742238E+04  0.90398067316E+02 0.  0.
         23    2    4    4    0    0  0.52337426406E+03 -0.12964119792E+01  0.63361387745E+03  0.82664336659E+03  0.89165065261E+02 0.  0.
          3    1    3    3  502    0 -0.30931642797E+02 -0.27251844088E+01  0.10797650859E+02  0.32875255440E+02  0.00000000000E+00 0. -1.
         -4    1    3    3    0  502 -0.74546236716E+03 -0.40530255354E+03  0.64099821402E+02  0.85093659450E+03  0.00000000000E+00 0.  1.
         11    1    5    5    0    0  0.17148510183E+03  0.31378228257E+03  0.16900569226E+04  0.17274718124E+04  0.00000000000E+00 0.  1.
        -11    1    5    5    0    0  0.81534644060E+02  0.95541867358E+02  0.86563743101E+03  0.87470241144E+03  0.00000000000E+00 0. -1.
          4    1    6    6  503    0  0.14378689483E+02  0.16115767673E+02  0.27413835472E+02  0.34899613956E+02  0.00000000000E+00 0. -1.
         -4    1    6    6    0  503  0.50899557458E+03 -0.17412179653E+02  0.60620004198E+03  0.79174375263E+03  0.00000000000E+00 0.  1.
<mgrwt>
<rscale>  0 0.28184630E+04</rscale>
<asrwt>0</asrwt>
<pdfrwt beam="1">  1        1 0.58283346E+00 0.28184630E+04</pdfrwt>
<pdfrwt beam="2">  1       -2 0.80647982E-01 0.28184630E+04</pdfrwt>
<totfact> 0.15045532E-01</totfact>
</mgrwt>
</event>
<event>
12    4  0.4207946E-008  0.2943187E+04  0.7818608E-02  0.8260143E-01
         -2   -1    0    0    0  501 -0.00000000000E+00  0.00000000000E+00  0.72220591151E+03  0.72220591151E+03  0.00000000000E+00 0.  1.
          1   -1    0    0  501    0  0.00000000000E+00 -0.00000000000E+00 -0.29985736773E+04  0.29985736773E+04  0.00000000000E+00 0. -1.
        -24    2    1    2    0    0 -0.13155280859E+04 -0.44819326748E+02 -0.77308391795E+03  0.15285938865E+04  0.79483385710E+02 0.  0.
        254    2    1    2    0    0  0.13155280859E+04  0.44819326748E+02 -0.15032838479E+04  0.21921857024E+04  0.90177209398E+03 0.  0.
         23    2    4    4    0    0 -0.70073015177E+02  0.62009411404E+02 -0.39304388368E+03  0.41428414648E+03  0.91610397732E+02 0.  0.
         23    2    4    4    0    0  0.13856011011E+04 -0.17190084655E+02 -0.11102399642E+04  0.17779015559E+04  0.90084704182E+02 0.  0.
          1    1    3    3  502    0 -0.78062245194E+03  0.58910038982E+01 -0.48299762289E+03  0.91798301734E+03  0.00000000000E+00 0. -1.
         -2    1    3    3    0  502 -0.53490563400E+03 -0.50710330647E+02 -0.29008629506E+03  0.61061086913E+03  0.00000000000E+00 0.  1.
         11    1    5    5    0    0 -0.44487318227E+01  0.56669638030E+02 -0.11161909510E+03  0.12525997557E+03  0.00000000000E+00 0.  1.
        -11    1    5    5    0    0 -0.65624283355E+02  0.53397733734E+01 -0.28142478857E+03  0.28902417091E+03  0.00000000000E+00 0. -1.
          4    1    6    6  503    0  0.78062342416E+03  0.29182833740E+02 -0.65304177878E+03  0.10181788315E+04  0.00000000000E+00 0. -1.
         -4    1    6    6    0  503  0.60497767695E+03 -0.46372918395E+02 -0.45719818541E+03  0.75972272437E+03  0.00000000000E+00 0.  1.
<mgrwt>
<rscale>  0 0.29431871E+04</rscale>
<asrwt>0</asrwt>
<pdfrwt beam="1">  1        1 0.46131903E+00 0.29431871E+04</pdfrwt>
<pdfrwt beam="2">  1       -2 0.11110860E+00 0.29431871E+04</pdfrwt>
<totfact> 0.28895849E-01</totfact>
</mgrwt>
</event>
<event>
12    4  0.4207946E-008  0.1812161E+04  0.7818608E-02  0.8699859E-01
         -2   -1    0    0    0  501 -0.00000000000E+00  0.00000000000E+00  0.18689359163E+03  0.18689359163E+03  0.00000000000E+00 0.  1.
          1   -1    0    0  501    0  0.00000000000E+00 -0.00000000000E+00 -0.43927754869E+04  0.43927754869E+04  0.00000000000E+00 0. -1.
        -24    2    1    2    0    0  0.19007891041E+03  0.60986992822E+03 -0.21468068025E+04  0.22412766240E+04  0.80437158227E+02 0.  0.
        254    2    1    2    0    0 -0.19007891041E+03 -0.60986992822E+03 -0.20590750928E+04  0.23383924545E+04  0.90565871732E+03 0.  0.
         23    2    4    4    0    0 -0.23247449043E+03 -0.82938058452E+03 -0.16432751311E+04  0.18575079406E+04  0.89811190686E+02 0.  0.
         23    2    4    4    0    0  0.42395580026E+02  0.21951065631E+03 -0.41579996165E+03  0.48088451399E+03  0.91531383946E+02 0.  0.
          3    1    3    3  502    0  0.19500448051E+03  0.55345059558E+03 -0.19795342491E+04  0.20646767671E+04  0.00000000000E+00 0. -1.
         -4    1    3    3    0  502 -0.49255701061E+01  0.56419332637E+02 -0.16727255337E+03  0.17659985687E+03  0.00000000000E+00 0.  1.
         11    1    5    5    0    0 -0.81054288710E+02 -0.20843975607E+03 -0.35855037354E+03  0.42258170807E+03  0.00000000000E+00 0.  1.
        -11    1    5    5    0    0 -0.15142020172E+03 -0.62094082845E+03 -0.12847247576E+04  0.14349262325E+04  0.00000000000E+00 0. -1.
          3    1    6    6  503    0  0.46308426286E+02  0.21939404956E+03 -0.41939234368E+03  0.47557140081E+03  0.00000000000E+00 0. -1.
         -3    1    6    6    0  503 -0.39128462596E+01  0.11660674554E+00  0.35923820324E+01  0.53131131789E+01  0.00000000000E+00 0.  1.
<mgrwt>
<rscale>  0 0.18121607E+04</rscale>
<asrwt>0</asrwt>
<pdfrwt beam="1">  1        1 0.67581151E+00 0.18121607E+04</pdfrwt>
<pdfrwt beam="2">  1       -2 0.28752865E-01 0.18121607E+04</pdfrwt>
<totfact> 0.38607005E-01</totfact>
</mgrwt>
</event>
<event>
12    4  0.4207946E-008  0.2209421E+04  0.7818608E-02  0.8514517E-01
         -2   -1    0    0    0  501 -0.00000000000E+00  0.00000000000E+00  0.67356714046E+03  0.67356714046E+03  0.00000000000E+00 0.  1.
          1   -1    0    0  501    0  0.00000000000E+00 -0.00000000000E+00 -0.18118241382E+04  0.18118241382E+04  0.00000000000E+00 0. -1.
        -24    2    1    2    0    0 -0.55291831654E+03 -0.66027779558E+03 -0.83634055466E+03  0.12031463926E+04  0.80064265862E+02 0.  0.
        254    2    1    2    0    0  0.55291831654E+03  0.66027779558E+03 -0.30191644306E+03  0.12822448860E+04  0.90072913629E+03 0.  0.
         23    2    4    4    0    0 -0.11419880807E+03  0.48558044279E+03  0.38157284863E+02  0.50822222406E+03  0.89465727819E+02 0.  0.
         23    2    4    4    0    0  0.66711712461E+03  0.17469735279E+03 -0.34007372792E+03  0.77402266193E+03  0.88862352765E+02 0.  0.
          1    1    3    3  502    0 -0.55495599469E+03 -0.65213085250E+03 -0.82528410614E+03  0.11892622338E+04  0.00000000000E+00 0. -1.
         -2    1    3    3    0  502  0.20376781530E+01 -0.81469430803E+01 -0.11056448516E+02  0.13884158872E+02  0.00000000000E+00 0.  1.
         11    1    5    5    0    0 -0.35800538800E+02  0.92841725602E+02 -0.25467599028E+02  0.10271252694E+03  0.00000000000E+00 0. -1.
        -11    1    5    5    0    0 -0.78398269270E+02  0.39273871719E+03  0.63624883891E+02  0.40550969712E+03  0.00000000000E+00 0.  1.
          3    1    6    6  503    0  0.38338579393E+03  0.99865378838E+02 -0.24387134625E+03  0.46522144662E+03  0.00000000000E+00 0. -1.
         -3    1    6    6    0  503  0.28373133068E+03  0.74831973952E+02 -0.96202381675E+02  0.30880121531E+03  0.00000000000E+00 0.  1.
<mgrwt>
<rscale>  0 0.22094209E+04</rscale>
<asrwt>0</asrwt>
<pdfrwt beam="1">  1        1 0.27874217E+00 0.22094209E+04</pdfrwt>
<pdfrwt beam="2">  1       -2 0.10362571E+00 0.22094209E+04</pdfrwt>
<totfact> 0.24276007E+00</totfact>
</mgrwt>
</event>
<event>
12    4  0.4207946E-008  0.2033785E+04  0.7818608E-02  0.8590986E-01
         -2   -1    0    0    0  501 -0.00000000000E+00  0.00000000000E+00  0.24336348506E+04  0.24336348506E+04  0.00000000000E+00 0.  1.
          1   -1    0    0  501    0  0.00000000000E+00 -0.00000000000E+00 -0.42490760524E+03  0.42490760524E+03  0.00000000000E+00 0. -1.
        -24    2    1    2    0    0  0.24362151208E+03  0.77270637453E+03  0.98001943920E+03  0.12739784332E+04  0.78462505586E+02 0.  0.
        254    2    1    2    0    0 -0.24362151208E+03 -0.77270637453E+03  0.10287078061E+04  0.15845640226E+04  0.89228740257E+03 0.  0.
         23    2    4    4    0    0 -0.93816109575E+02 -0.46925570992E+03  0.11209124663E+04  0.12220514172E+04  0.89232984287E+02 0.  0.
         23    2    4    4    0    0 -0.14980540250E+03 -0.30345066461E+03 -0.92204660156E+02  0.36251260536E+03  0.91595443199E+02 0.  0.
          1    1    3    3  502    0  0.91642203791E+01  0.30085452559E+02  0.66575096562E+02  0.73629891166E+02  0.00000000000E+00 0. -1.
         -4    1    3    3    0  502  0.23445729170E+03  0.74262092198E+03  0.91344434264E+03  0.12003485421E+04  0.00000000000E+00 0.  1.
         11    1    5    5    0    0 -0.21598333714E+02 -0.17495609993E+03  0.31377820195E+03  0.35990677257E+03  0.00000000000E+00 0. -1.
        -11    1    5    5    0    0 -0.72217775861E+02 -0.29429960999E+03  0.80713426435E+03  0.86214464464E+03  0.00000000000E+00 0.  1.
          3    1    6    6  503    0 -0.73618582241E+02 -0.12425134264E+03 -0.85163092355E+02  0.16766288826E+03  0.00000000000E+00 0. -1.
         -3    1    6    6    0  503 -0.76186820262E+02 -0.17919932197E+03 -0.70415678007E+01  0.19484971710E+03  0.00000000000E+00 0.  1.
<mgrwt>
<rscale>  0 0.20337846E+04</rscale>
<asrwt>0</asrwt>
<pdfrwt beam="1">  1        1 0.65370402E-01 0.20337846E+04</pdfrwt>
<pdfrwt beam="2">  1       -2 0.37440535E+00 0.20337846E+04</pdfrwt>
<totfact> 0.48849217E-01</totfact>
</mgrwt>
</event>
<event>
12    4  0.4207946E-008  0.1930966E+04  0.7818608E-02  0.8639594E-01
          1   -1    0    0  501    0  0.00000000000E+00  0.00000000000E+00  0.11583918690E+04  0.11583918690E+04  0.00000000000E+00 0. -1.
         -2   -1    0    0    0  501 -0.00000000000E+00 -0.00000000000E+00 -0.80469987641E+03  0.80469987641E+03  0.00000000000E+00 0.  1.
        -24    2    1    2    0    0  0.42866843596E+03  0.33422502723E+03 -0.39843112179E+03  0.67865251213E+03  0.79742564506E+02 0.  0.
        254    2    1    2    0    0 -0.42866843596E+03 -0.33422502723E+03  0.75212311434E+03  0.12844392332E+04  0.88804953013E+03 0.  0.
         23    2    4    4    0    0 -0.35362802025E+03 -0.28478056320E+03  0.94534617541E+03  0.10527552975E+04  0.91986842799E+02 0.  0.
         23    2    4    4    0    0 -0.75040415717E+02 -0.49444464028E+02 -0.19322306106E+03  0.23168393572E+03  0.90920161288E+02 0.  0.
          1    1    3    3  502    0 -0.35061192929E+01  0.19230627637E+01 -0.47325826715E+01  0.61958358299E+01  0.00000000000E+00 0. -1.
         -2    1    3    3    0  502  0.43217455526E+03  0.33230196446E+03 -0.39369853912E+03  0.67245667630E+03  0.00000000000E+00 0.  1.
         11    1    5    5    0    0 -0.98578582568E+02 -0.99575638743E+02  0.38697843801E+03  0.41156452260E+03  0.00000000000E+00 0.  1.
        -11    1    5    5    0    0 -0.25504943768E+03 -0.18520492446E+03  0.55836773739E+03  0.64119077494E+03  0.00000000000E+00 0. -1.
          3    1    6    6  503    0 -0.33581785804E+02 -0.67957287953E+02 -0.15416056505E+03  0.17178885045E+03  0.00000000000E+00 0. -1.
         -3    1    6    6    0  503 -0.41458629913E+02  0.18512823925E+02 -0.39062496016E+02  0.59895085265E+02  0.00000000000E+00 0.  1.
<mgrwt>
<rscale>  0 0.19309664E+04</rscale>
<asrwt>0</asrwt>
<pdfrwt beam="1">  1        1 0.17821413E+00 0.19309664E+04</pdfrwt>
<pdfrwt beam="2">  1       -2 0.12379998E+00 0.19309664E+04</pdfrwt>
<totfact> 0.46101763E+00</totfact>
</mgrwt>
</event>
<event>
12    4  0.4207946E-008  0.1495189E+04  0.7818608E-02  0.8887659E-01
         -2   -1    0    0    0  501 -0.00000000000E+00  0.00000000000E+00  0.57693704029E+03  0.57693704029E+03  0.00000000000E+00 0.  1.
          1   -1    0    0  501    0  0.00000000000E+00 -0.00000000000E+00 -0.96873200318E+03  0.96873200318E+03  0.00000000000E+00 0. -1.
        -24    2    1    2    0    0 -0.13062299285E+03  0.40484268794E+03  0.85674473943E+02  0.44073037230E+03  0.77092005700E+02 0.  0.
        254    2    1    2    0    0  0.13062299285E+03 -0.40484268794E+03 -0.47746943683E+03  0.11049386712E+04  0.90108403366E+03 0.  0.
         23    2    4    4    0    0  0.40982735364E+03 -0.38003582849E+03 -0.56251360612E+03  0.79756233210E+03  0.85430824530E+02 0.  0.
         23    2    4    4    0    0 -0.27920436079E+03 -0.24806859441E+02  0.85044169291E+02  0.30737633908E+03  0.93151745739E+02 0.  0.
          1    1    3    3  502    0 -0.57269105217E+02  0.75476127711E+02  0.14107312836E+02  0.95788373731E+02  0.00000000000E+00 0. -1.
         -2    1    3    3    0  502 -0.73353887635E+02  0.32936656023E+03  0.71567161107E+02  0.34494199857E+03  0.00000000000E+00 0.  1.
         11    1    5    5    0    0  0.31651246325E+03 -0.31186250180E+03 -0.39806727528E+03  0.59657012586E+03  0.00000000000E+00 0. -1.
        -11    1    5    5    0    0  0.93314890396E+02 -0.68173326691E+02 -0.16444633083E+03  0.20099220623E+03  0.00000000000E+00 0.  1.
          3    1    6    6  503    0 -0.19490778694E+03  0.49369699000E+00  0.98430537117E+02  0.21835260426E+03  0.00000000000E+00 0. -1.
         -3    1    6    6    0  503 -0.84296573845E+02 -0.25300556431E+02 -0.13386367826E+02  0.89023734820E+02  0.00000000000E+00 0.  1.
<mgrwt>
<rscale>  0 0.14951888E+04</rscale>
<asrwt>0</asrwt>
<pdfrwt beam="1">  1        1 0.14903569E+00 0.14951888E+04</pdfrwt>
<pdfrwt beam="2">  1       -2 0.88759545E-01 0.14951888E+04</pdfrwt>
<totfact> 0.14824347E+01</totfact>
</mgrwt>
</event>
<event>
12    4  0.4207946E-008  0.1246015E+04  0.7818608E-02  0.9073506E-01
          1   -1    0    0  501    0  0.00000000000E+00  0.00000000000E+00  0.81605805731E+03  0.81605805731E+03  0.00000000000E+00 0. -1.
         -2   -1    0    0    0  501 -0.00000000000E+00 -0.00000000000E+00 -0.47562610434E+03  0.47562610434E+03  0.00000000000E+00 0.  1.
        -24    2    1    2    0    0 -0.11316646742E+03 -0.96035159380E+02  0.33883521325E+03  0.37842295240E+03  0.79782378870E+02 0.  0.
        254    2    1    2    0    0  0.11316646742E+03  0.96035159380E+02  0.15967397178E+01  0.91326120924E+03  0.90111824171E+03 0.  0.
         23    2    4    4    0    0  0.29260001732E+03  0.19215680429E+03 -0.34571032770E+03  0.50028223869E+03  0.90706560404E+02 0.  0.
         23    2    4    4    0    0 -0.17943354991E+03 -0.96121644906E+02  0.34730706742E+03  0.41297897055E+03  0.92161063304E+02 0.  0.
          3    1    3    3  502    0 -0.90171971773E+02 -0.10950845012E+03  0.28545118704E+03  0.31875612201E+03  0.00000000000E+00 0. -1.
         -4    1    3    3    0  502 -0.22994495642E+02  0.13473290739E+02  0.53384026219E+02  0.59666830387E+02  0.00000000000E+00 0.  1.
         11    1    5    5    0    0  0.20244778196E+03  0.85027751290E+02 -0.23645245152E+03  0.32268341256E+03  0.00000000000E+00 0.  1.
        -11    1    5    5    0    0  0.90152235364E+02  0.10712905299E+03 -0.10925787618E+03  0.17759882613E+03  0.00000000000E+00 0. -1.
          1    1    6    6  503    0 -0.12508439667E+02  0.15001296972E+02  0.14120510190E+02  0.24101634421E+02  0.00000000000E+00 0. -1.
         -1    1    6    6    0  503 -0.16692511024E+03 -0.11112294188E+03  0.33318655723E+03  0.38887733613E+03  0.00000000000E+00 0.  1.
<mgrwt>
<rscale>  0 0.12460153E+04</rscale>
<asrwt>0</asrwt>
<pdfrwt beam="1">  1        1 0.12554739E+00 0.12460153E+04</pdfrwt>
<pdfrwt beam="2">  1       -2 0.73173247E-01 0.12460153E+04</pdfrwt>
<totfact> 0.31213259E+01</totfact>
</mgrwt>
</event>
<event>
12    4  0.4207946E-008  0.1435019E+04  0.7818608E-02  0.8928853E-01
         -2   -1    0    0    0  501 -0.00000000000E+00  0.00000000000E+00  0.14610904455E+03  0.14610904455E+03  0.00000000000E+00 0.  1.
          1   -1    0    0  501    0  0.00000000000E+00 -0.00000000000E+00 -0.35235321915E+04  0.35235321915E+04  0.00000000000E+00 0. -1.
        -24    2    1    2    0    0 -0.20044097913E+03 -0.30536320035E+02 -0.21042483470E+04  0.21156104824E+04  0.82689506520E+02 0.  0.
        254    2    1    2    0    0  0.20044097913E+03  0.30536320035E+02 -0.12731748000E+04  0.15540307536E+04  0.86771450321E+03 0.  0.
         23    2    4    4    0    0  0.10735719317E+03 -0.37166099711E+03 -0.31590266800E+03  0.50765416389E+03  0.90888892416E+02 0.  0.
         23    2    4    4    0    0  0.93083785957E+02  0.40219731715E+03 -0.95727213196E+03  0.10463765898E+04  0.90037546807E+02 0.  0.
          1    1    3    3  502    0 -0.17918405261E+03  0.27839053751E+01 -0.16845789701E+04  0.16940841128E+04  0.00000000000E+00 0. -1.
         -2    1    3    3    0  502 -0.21256926517E+02 -0.33320225410E+02 -0.41966937693E+03  0.42152636961E+03  0.00000000000E+00 0.  1.
         11    1    5    5    0    0  0.10345164499E+03 -0.22259034394E+03 -0.16673025907E+03  0.29672829888E+03  0.00000000000E+00 0.  1.
        -11    1    5    5    0    0  0.39055481796E+01 -0.14907065317E+03 -0.14917240893E+03  0.21092586501E+03  0.00000000000E+00 0. -1.
          2    1    6    6  503    0  0.49396362044E+02  0.34358444072E+03 -0.82894582289E+03  0.89868873687E+03  0.00000000000E+00 0.  1.
         -2    1    6    6    0  503  0.43687423913E+02  0.58612876426E+02 -0.12832630908E+03  0.14768785289E+03  0.00000000000E+00 0. -1.
<mgrwt>
<rscale>  0 0.14350191E+04</rscale>
<asrwt>0</asrwt>
<pdfrwt beam="1">  1        1 0.54208182E+00 0.14350191E+04</pdfrwt>
<pdfrwt beam="2">  1       -2 0.22478317E-01 0.14350191E+04</pdfrwt>
<totfact> 0.36014255E+00</totfact>
</mgrwt>
</event>
<event>
12    4  0.4207946E-008  0.1099723E+04  0.7818608E-02  0.9205462E-01
          3   -1    0    0  501    0  0.00000000000E+00  0.00000000000E+00  0.45819179350E+03  0.45819179350E+03  0.00000000000E+00 0. -1.
         -4   -1    0    0    0  501 -0.00000000000E+00 -0.00000000000E+00 -0.65987101514E+03  0.65987101514E+03  0.00000000000E+00 0.  1.
        -24    2    1    2    0    0 -0.31271167068E+02  0.19210772630E+02 -0.20690015468E+03  0.22338316623E+03  0.75798583593E+02 0.  0.
        254    2    1    2    0    0  0.31271167068E+02 -0.19210772630E+02  0.52209330409E+01  0.89467964241E+03  0.89391132935E+03 0.  0.
         23    2    4    4    0    0 -0.36393172519E+03 -0.14945610568E+02 -0.21555372231E+03  0.43302299053E+03  0.91519567567E+02 0.  0.
         23    2    4    4    0    0  0.39520289226E+03 -0.42651620627E+01  0.22077465535E+03  0.46165665189E+03  0.90453845290E+02 0.  0.
          1    1    3    3  502    0 -0.24011667324E+02 -0.16466276781E+02 -0.26577067699E+02  0.39421300919E+02  0.00000000000E+00 0. -1.
         -4    1    3    3    0  502 -0.72594997439E+01  0.35677049411E+02 -0.18032308698E+03  0.18396186531E+03  0.00000000000E+00 0.  1.
         11    1    5    5    0    0 -0.20311192726E+03  0.28143101537E+02 -0.87314269192E+02  0.22286828120E+03  0.00000000000E+00 0. -1.
        -11    1    5    5    0    0 -0.16081979793E+03 -0.43088712105E+02 -0.12823945312E+03  0.21015470933E+03  0.00000000000E+00 0.  1.
          3    1    6    6  503    0  0.29578243651E+03 -0.40562931883E+02  0.14808065111E+03  0.33325737865E+03  0.00000000000E+00 0. -1.
         -3    1    6    6    0  503  0.99420455749E+02  0.36297769820E+02  0.72694004238E+02  0.12839927324E+03  0.00000000000E+00 0.  1.
<mgrwt>
<rscale>  0 0.10997227E+04</rscale>
<asrwt>0</asrwt>
<pdfrwt beam="1">  1        3 0.70491045E-01 0.10997227E+04</pdfrwt>
<pdfrwt beam="2">  1       -4 0.10151862E+00 0.10997227E+04</pdfrwt>
<totfact> 0.34732173E+00</totfact>
</mgrwt>
</event>
<event>
12    4  0.4207946E-008  0.3050479E+04  0.7818608E-02  0.8229461E-01
         -2   -1    0    0    0  501 -0.00000000000E+00  0.00000000000E+00  0.12381895565E+04  0.12381895565E+04  0.00000000000E+00 0.  1.
          1   -1    0    0  501    0  0.00000000000E+00 -0.00000000000E+00 -0.18788365765E+04  0.18788365765E+04  0.00000000000E+00 0. -1.
        -24    2    1    2    0    0 -0.13063575644E+03 -0.31477988809E+03 -0.16675826109E+04  0.17035944084E+04  0.72457335139E+02 0.  0.
        254    2    1    2    0    0  0.13063575644E+03  0.31477988809E+03  0.10269355909E+04  0.14134317246E+04  0.90941764525E+03 0.  0.
         23    2    4    4    0    0  0.90490834876E+02  0.14982098994E+03 -0.13264384896E+03  0.23791328232E+03  0.91506387839E+02 0.  0.
         23    2    4    4    0    0  0.40144921561E+02  0.16495889816E+03  0.11595794399E+04  0.11755184423E+04  0.91630115325E+02 0.  0.
          3    1    3    3  502    0 -0.10340651216E+03 -0.20269587893E+03 -0.95486362507E+03  0.98160229654E+03  0.00000000000E+00 0. -1.
         -4    1    3    3    0  502 -0.27229244281E+02 -0.11208400917E+03 -0.71271898581E+03  0.72199211186E+03  0.00000000000E+00 0.  1.
         11    1    5    5    0    0  0.32735141349E+02  0.13114243352E+03 -0.10528029722E+03  0.17132970650E+03  0.00000000000E+00 0. -1.
        -11    1    5    5    0    0  0.57755693526E+02  0.18678556417E+02 -0.27363551741E+02  0.66583575816E+02  0.00000000000E+00 0.  1.
          3    1    6    6  503    0  0.27890823522E+02  0.13813573993E+03  0.11005180670E+04  0.11095041219E+04  0.00000000000E+00 0. -1.
         -3    1    6    6    0  503  0.12254098039E+02  0.26823158232E+02  0.59061372873E+02  0.66014320431E+02  0.00000000000E+00 0.  1.
<mgrwt>
<rscale>  0 0.30504792E+04</rscale>
<asrwt>0</asrwt>
<pdfrwt beam="1">  1        1 0.28905178E+00 0.30504792E+04</pdfrwt>
<pdfrwt beam="2">  1       -2 0.19049070E+00 0.30504792E+04</pdfrwt>
<totfact> 0.41264810E-01</totfact>
</mgrwt>
</event>
<event>
12    4  0.4207946E-008  0.1355694E+04  0.7818608E-02  0.8986529E-01
         -2   -1    0    0    0  501 -0.00000000000E+00  0.00000000000E+00  0.48486427834E+03  0.48486427834E+03  0.00000000000E+00 0.  1.
          1   -1    0    0  501    0  0.00000000000E+00 -0.00000000000E+00 -0.94763886633E+03  0.94763886633E+03  0.00000000000E+00 0. -1.
        -24    2    1    2    0    0 -0.11581361536E+03 -0.34580326575E+03 -0.89581752566E+02  0.38379294268E+03  0.79242919875E+02 0.  0.
        254    2    1    2    0    0  0.11581361536E+03  0.34580326575E+03 -0.37319283542E+03  0.10487102020E+04  0.90968538696E+03 0.  0.
         23    2    4    4    0    0  0.26267538555E+03  0.18666158569E+03 -0.62215078293E+03  0.70631762900E+03  0.89286564417E+02 0.  0.
         23    2    4    4    0    0 -0.14686177019E+03  0.15914168006E+03  0.24895794751E+03  0.34239257299E+03  0.91422975966E+02 0.  0.
          3    1    3    3  502    0 -0.12006061581E+03 -0.33493084236E+03 -0.72510923528E+02  0.36311300536E+03  0.00000000000E+00 0. -1.
         -4    1    3    3    0  502  0.42470004569E+01 -0.10872423392E+02 -0.17070829038E+02  0.20679937315E+02  0.00000000000E+00 0.  1.
         11    1    5    5    0    0  0.53030396942E+02  0.18133086312E+01 -0.12867388444E+03  0.13918505532E+03  0.00000000000E+00 0.  1.
        -11    1    5    5    0    0  0.20964498861E+03  0.18484827706E+03 -0.49347689849E+03  0.56713257368E+03  0.00000000000E+00 0. -1.
          2    1    6    6  503    0 -0.14454007329E+03  0.15130280275E+03  0.18927215034E+03  0.28214946004E+03  0.00000000000E+00 0. -1.
         -2    1    6    6    0  503 -0.23216969036E+01  0.78388773064E+01  0.59685797173E+02  0.60243112952E+02  0.00000000000E+00 0.  1.
<mgrwt>
<rscale>  0 0.13556935E+04</rscale>
<asrwt>0</asrwt>
<pdfrwt beam="1">  1        1 0.14579059E+00 0.13556935E+04</pdfrwt>
<pdfrwt beam="2">  1       -2 0.74594505E-01 0.13556935E+04</pdfrwt>
<totfact> 0.23075294E+01</totfact>
</mgrwt>
</event>
<event>
12    4  0.4207946E-008  0.1626944E+04  0.7818608E-02  0.8804164E-01
          1   -1    0    0  501    0  0.00000000000E+00  0.00000000000E+00  0.72255458663E+03  0.72255458663E+03  0.00000000000E+00 0. -1.
         -2   -1    0    0    0  501 -0.00000000000E+00 -0.00000000000E+00 -0.91582883001E+03  0.91582883001E+03  0.00000000000E+00 0.  1.
        -24    2    1    2    0    0 -0.18572292317E+03  0.11397654062E+02 -0.60181577790E+03  0.63448106273E+03  0.75901763642E+02 0.  0.
        254    2    1    2    0    0  0.18572292317E+03 -0.11397654062E+02  0.40854153451E+03  0.10039023539E+04  0.89793699114E+03 0.  0.
         23    2    4    4    0    0  0.18534809094E+03  0.40451587327E+03  0.74225233335E+02  0.46043800051E+03  0.92232101276E+02 0.  0.
         23    2    4    4    0    0  0.37483222684E+00 -0.41591352734E+03  0.33431630118E+03  0.54346435340E+03  0.10296558388E+03 0.  0.
          1    1    3    3  502    0  0.45215600510E+01  0.31860264361E+01 -0.58521079584E+02  0.58781902193E+02  0.00000000000E+00 0. -1.
         -2    1    3    3    0  502 -0.19024448322E+03  0.82116276261E+01 -0.54329469831E+03  0.57569916053E+03  0.00000000000E+00 0.  1.
         11    1    5    5    0    0 -0.29110794112E+01  0.20016641140E+02 -0.12292848595E+02  0.23669694388E+02  0.00000000000E+00 0.  1.
        -11    1    5    5    0    0  0.18825917035E+03  0.38449923213E+03  0.86518081930E+02  0.43676830612E+03  0.00000000000E+00 0. -1.
          4    1    6    6  503    0 -0.26142018695E+02 -0.36912361758E+03  0.26230026314E+03  0.45358249331E+03  0.00000000000E+00 0. -1.
         -4    1    6    6    0  503  0.26516850922E+02 -0.46789909755E+02  0.72016038043E+02  0.89881860089E+02  0.00000000000E+00 0.  1.
<mgrwt>
<rscale>  0 0.16269435E+04</rscale>
<asrwt>0</asrwt>
<pdfrwt beam="1">  1        1 0.11116224E+00 0.16269435E+04</pdfrwt>
<pdfrwt beam="2">  1       -2 0.14089674E+00 0.16269435E+04</pdfrwt>
<totfact> 0.76825435E+00</totfact>
</mgrwt>
</event>
<event>
12    4  0.4207946E-008  0.1814678E+04  0.7818608E-02  0.8698532E-01
          1   -1    0    0  501    0  0.00000000000E+00  0.00000000000E+00  0.10174172810E+04  0.10174172810E+04  0.00000000000E+00 0. -1.
         -2   -1    0    0    0  501 -0.00000000000E+00 -0.00000000000E+00 -0.80917082572E+03  0.80917082572E+03  0.00000000000E+00 0.  1.
        -24    2    1    2    0    0 -0.17259832911E+03 -0.30586489585E+03  0.65996030895E+03  0.75189956587E+03  0.80385508963E+02 0.  0.
        254    2    1    2    0    0  0.17259832911E+03  0.30586489585E+03 -0.45171385364E+03  0.10746885409E+04  0.90970684102E+03 0.  0.
         23    2    4    4    0    0 -0.26379939800E+03  0.24950337578E+03  0.75061849459E+02  0.38208320180E+03  0.92256354487E+02 0.  0.
         23    2    4    4    0    0  0.43639772711E+03  0.56361520070E+02 -0.52677570309E+03  0.69260533908E+03  0.92681806086E+02 0.  0.
          1    1    3    3  502    0 -0.15494292774E+03 -0.29920856760E+03  0.58996271356E+03  0.67940347451E+03  0.00000000000E+00 0. -1.
         -2    1    3    3    0  502 -0.17655401378E+02 -0.66563282478E+01  0.69997595388E+02  0.72496091369E+02  0.00000000000E+00 0.  1.
         11    1    5    5    0    0 -0.14148262312E+03  0.19133703854E+03  0.62646423397E+02  0.24607269114E+03  0.00000000000E+00 0. -1.
        -11    1    5    5    0    0 -0.12231677488E+03  0.58166337241E+02  0.12415426062E+02  0.13601051066E+03  0.00000000000E+00 0.  1.
          2    1    6    6  503    0  0.14631146012E+03 -0.22561598214E+02 -0.15243917378E+03  0.21249416646E+03  0.00000000000E+00 0. -1.
         -2    1    6    6    0  503  0.29008626700E+03  0.78923118284E+02 -0.37433652932E+03  0.48011117263E+03  0.00000000000E+00 0.  1.
<mgrwt>
<rscale>  0 0.18146784E+04</rscale>
<asrwt>0</asrwt>
<pdfrwt beam="1">  1        1 0.15652574E+00 0.18146784E+04</pdfrwt>
<pdfrwt beam="2">  1       -2 0.12448782E+00 0.18146784E+04</pdfrwt>
<totfact> 0.58695632E+00</totfact>
</mgrwt>
</event>
<event>
12    4  0.4207946E-008  0.1116656E+04  0.7818608E-02  0.9189108E-01
          1   -1    0    0  501    0  0.00000000000E+00  0.00000000000E+00  0.24889011961E+03  0.24889011961E+03  0.00000000000E+00 0. -1.
         -2   -1    0    0    0  501 -0.00000000000E+00 -0.00000000000E+00 -0.12524817030E+04  0.12524817030E+04  0.00000000000E+00 0.  1.
        -24    2    1    2    0    0  0.16696503908E+03  0.65937447805E+02 -0.15547042547E+03  0.25106714507E+03  0.81477523543E+02 0.  0.
        254    2    1    2    0    0 -0.16696503908E+03 -0.65937447805E+02 -0.84812115795E+03  0.12503046776E+04  0.90095905396E+03 0.  0.
         23    2    4    4    0    0 -0.42298993975E+03 -0.96890902113E+02 -0.86628947376E+03  0.97347963350E+03  0.94322894611E+02 0.  0.
         23    2    4    4    0    0  0.25602490068E+03  0.30953454309E+02  0.18168315808E+02  0.27682504408E+03  0.98970456338E+02 0.  0.
          3    1    3    3  502    0  0.85620866964E+02  0.19364179281E+02 -0.26621730469E+02  0.91731242399E+02  0.00000000000E+00 0. -1.
         -4    1    3    3    0  502  0.81344172112E+02  0.46573268523E+02 -0.12884869500E+03  0.15933590267E+03  0.00000000000E+00 0.  1.
         11    1    5    5    0    0 -0.77818224169E+02 -0.25487094999E+02 -0.94710007110E+02  0.12520085252E+03  0.00000000000E+00 0.  1.
        -11    1    5    5    0    0 -0.34517171558E+03 -0.71403807114E+02 -0.77157946665E+03  0.84827878098E+03  0.00000000000E+00 0. -1.
          1    1    6    6  503    0  0.26478981789E+03  0.27157348056E+02  0.14435770434E+02  0.26656999208E+03  0.00000000000E+00 0. -1.
         -1    1    6    6    0  503 -0.87649172115E+01  0.37961062526E+01  0.37325453740E+01  0.10255051993E+02  0.00000000000E+00 0.  1.
<mgrwt>
<rscale>  0 0.11166563E+04</rscale>
<asrwt>0</asrwt>
<pdfrwt beam="1">  1        1 0.38290787E-01 0.11166563E+04</pdfrwt>
<pdfrwt beam="2">  1       -2 0.19268950E+00 0.11166563E+04</pdfrwt>
<totfact> 0.14430490E+01</totfact>
</mgrwt>
</event>
<event>
12    4  0.4207946E-008  0.1544872E+04  0.7818608E-02  0.8855150E-01
          1   -1    0    0  501    0  0.00000000000E+00  0.00000000000E+00  0.58519050746E+03  0.58519050746E+03  0.00000000000E+00 0. -1.
         -2   -1    0    0    0  501 -0.00000000000E+00 -0.00000000000E+00 -0.10195948813E+04  0.10195948813E+04  0.00000000000E+00 0.  1.
        -24    2    1    2    0    0  0.28178021307E+03  0.39318803510E+03 -0.22987064174E+03  0.54114531291E+03  0.77464949050E+02 0.  0.
        254    2    1    2    0    0 -0.28178021307E+03 -0.39318803510E+03 -0.20453373210E+03  0.10636400759E+04  0.92493202127E+03 0.  0.
         23    2    4    4    0    0 -0.33732741816E+03 -0.80423815597E+02  0.29528991689E+03  0.46433578298E+03  0.90298433968E+02 0.  0.
         23    2    4    4    0    0  0.55547205091E+02 -0.31276421950E+03 -0.49982364900E+03  0.59930429288E+03  0.91842290740E+02 0.  0.
          1    1    3    3  502    0 -0.46797173062E+00 -0.99012912235E+00  0.30830844212E+01  0.32718133760E+01  0.00000000000E+00 0. -1.
         -2    1    3    3    0  502  0.28224818480E+03  0.39417816422E+03 -0.23295372616E+03  0.53787349953E+03  0.00000000000E+00 0.  1.
         11    1    5    5    0    0 -0.28195788120E+01  0.10186080814E+02  0.16316317605E+02  0.19440382897E+02  0.00000000000E+00 0. -1.
        -11    1    5    5    0    0 -0.33450783935E+03 -0.90609896411E+02  0.27897359929E+03  0.44489540008E+03  0.00000000000E+00 0.  1.
          1    1    6    6  503    0 -0.15897109498E+02 -0.29275297111E+02 -0.24822465184E+02  0.41544143861E+02  0.00000000000E+00 0. -1.
         -1    1    6    6    0  503  0.71444314588E+02 -0.28348892239E+03 -0.47500118381E+03  0.55776014901E+03  0.00000000000E+00 0.  1.
<mgrwt>
<rscale>  0 0.15448718E+04</rscale>
<asrwt>0</asrwt>
<pdfrwt beam="1">  1        1 0.90029309E-01 0.15448718E+04</pdfrwt>
<pdfrwt beam="2">  1       -2 0.15686075E+00 0.15448718E+04</pdfrwt>
<totfact> 0.79544437E+00</totfact>
</mgrwt>
</event>
<event>
12    4  0.4207946E-008  0.1965105E+04  0.7818608E-02  0.8623111E-01
          1   -1    0    0  501    0  0.00000000000E+00  0.00000000000E+00  0.24550076433E+04  0.24550076433E+04  0.00000000000E+00 0. -1.
         -2   -1    0    0    0  501 -0.00000000000E+00 -0.00000000000E+00 -0.39324071611E+03  0.39324071611E+03  0.00000000000E+00 0.  1.
        -24    2    1    2    0    0  0.40383130443E+03 -0.64355126853E+03  0.60984518722E+03  0.97742173106E+03  0.78766301892E+02 0.  0.
        254    2    1    2    0    0 -0.40383130443E+03  0.64355126853E+03  0.14519217399E+04  0.18708266283E+04  0.90259491280E+03 0.  0.
         23    2    4    4    0    0 -0.49864811726E+03  0.64753894616E+03  0.15182863926E+04  0.17267382564E+04  0.92058700497E+02 0.  0.
         23    2    4    4    0    0  0.94816812826E+02 -0.39876776337E+01 -0.66364652687E+02  0.14408837194E+03  0.85738335849E+02 0.  0.
          1    1    3    3  502    0  0.40046184500E+03 -0.60745557827E+03  0.58133392764E+03  0.93130075931E+03  0.00000000000E+00 0. -1.
         -2    1    3    3    0  502  0.33694594300E+01 -0.36095690265E+02  0.28511259574E+02  0.46120971749E+02  0.00000000000E+00 0.  1.
         11    1    5    5    0    0 -0.37331388283E+03  0.42995426166E+03  0.99750859063E+03  0.11485849166E+04  0.00000000000E+00 0.  1.
        -11    1    5    5    0    0 -0.12533423443E+03  0.21758468450E+03  0.52077780198E+03  0.57815333977E+03  0.00000000000E+00 0. -1.
          4    1    6    6  503    0  0.47262831028E+02  0.14445542774E+02 -0.77470170098E+02  0.91891654451E+02  0.00000000000E+00 0. -1.
         -4    1    6    6    0  503  0.47553981798E+02 -0.18433220408E+02  0.11105517411E+02  0.52196717487E+02  0.00000000000E+00 0.  1.
<mgrwt>
<rscale>  0 0.19651045E+04</rscale>
<asrwt>0</asrwt>
<pdfrwt beam="1">  1        1 0.37769347E+00 0.19651045E+04</pdfrwt>
<pdfrwt beam="2">  1       -2 0.60498573E-01 0.19651045E+04</pdfrwt>
<totfact> 0.30291510E+00</totfact>
</mgrwt>
</event>
<event>
12    4  0.4207946E-008  0.1817974E+04  0.7818608E-02  0.8696799E-01
         -2   -1    0    0    0  501 -0.00000000000E+00  0.00000000000E+00  0.34656494884E+03  0.34656494884E+03  0.00000000000E+00 0.  1.
          1   -1    0    0  501    0  0.00000000000E+00 -0.00000000000E+00 -0.23841331696E+04  0.23841331696E+04  0.00000000000E+00 0. -1.
        -24    2    1    2    0    0 -0.25700088325E+03  0.14561618915E+03 -0.17254742190E+04  0.17523583316E+04  0.79024764509E+02 0.  0.
        254    2    1    2    0    0  0.25700088325E+03 -0.14561618915E+03 -0.31209400171E+03  0.97833978677E+03  0.87891554995E+03 0.  0.
         23    2    4    4    0    0 -0.28949094540E+03  0.23404118817E+02  0.32640157760E+02  0.30369175276E+03  0.82525999224E+02 0.  0.
         23    2    4    4    0    0  0.54649182865E+03 -0.16902030797E+03 -0.34473415947E+03  0.67464803402E+03  0.95326522052E+02 0.  0.
          1    1    3    3  502    0 -0.18064355716E+03  0.12234660371E+03 -0.14182465176E+04  0.14349299532E+04  0.00000000000E+00 0. -1.
         -2    1    3    3    0  502 -0.76357326086E+02  0.23269585440E+02 -0.30722770146E+03  0.31742837838E+03  0.00000000000E+00 0.  1.
         11    1    5    5    0    0 -0.19116950146E+03  0.18850452744E+02 -0.18115451014E+02  0.19294892439E+03  0.00000000000E+00 0.  1.
        -11    1    5    5    0    0 -0.98321443941E+02  0.45536660727E+01  0.50755608774E+02  0.11074282837E+03  0.00000000000E+00 0. -1.
          4    1    6    6  503    0  0.15230475456E+03 -0.40132646468E+01 -0.99098968138E+02  0.18175106613E+03  0.00000000000E+00 0.  1.
         -4    1    6    6    0  503  0.39418707409E+03 -0.16500704332E+03 -0.24563519134E+03  0.49289696789E+03  0.00000000000E+00 0. -1.
<mgrwt>
<rscale>  0 0.18179736E+04</rscale>
<asrwt>0</asrwt>
<pdfrwt beam="1">  1        1 0.36678970E+00 0.18179736E+04</pdfrwt>
<pdfrwt beam="2">  1       -2 0.53317687E-01 0.18179736E+04</pdfrwt>
<totfact> 0.44735633E+00</totfact>
</mgrwt>
</event>
<event>
12    4  0.4207946E-008  0.1786378E+04  0.7818608E-02  0.8713577E-01
          1   -1    0    0  501    0  0.00000000000E+00  0.00000000000E+00  0.18698742143E+04  0.18698742143E+04  0.00000000000E+00 0. -1.
         -2   -1    0    0    0  501 -0.00000000000E+00 -0.00000000000E+00 -0.42665254418E+03  0.42665254418E+03  0.00000000000E+00 0.  1.
        -24    2    1    2    0    0  0.45093736265E+03  0.23172118792E+03 -0.17051157282E+02  0.51337457248E+03  0.78889135750E+02 0.  0.
        254    2    1    2    0    0 -0.45093736265E+03 -0.23172118792E+03  0.14602728274E+04  0.17831521860E+04  0.88892956644E+03 0.  0.
         23    2    4    4    0    0  0.70312292813E+02 -0.22561339235E+03  0.28289670116E+02  0.25632209677E+03  0.95160341168E+02 0.  0.
         23    2    4    4    0    0 -0.52124965546E+03 -0.61077955684E+01  0.14319831573E+04  0.15268300893E+04  0.94317814716E+02 0.  0.
          3    1    3    3  502    0  0.11170130711E+03  0.26511618010E+02 -0.21879116554E+02  0.11687062780E+03  0.00000000000E+00 0. -1.
         -4    1    3    3    0  502  0.33923605553E+03  0.20520956991E+03  0.48279592718E+01  0.39650394468E+03  0.00000000000E+00 0.  1.
         11    1    5    5    0    0  0.12286253753E+01 -0.56059870009E+01  0.25051582453E+02  0.25700552406E+02  0.00000000000E+00 0. -1.
        -11    1    5    5    0    0  0.69083667437E+02 -0.22000740535E+03  0.32380876626E+01  0.23062154437E+03  0.00000000000E+00 0.  1.
          4    1    6    6  503    0 -0.15370957547E+02  0.10783564922E+02  0.10347359726E+03  0.10516338212E+03  0.00000000000E+00 0. -1.
         -4    1    6    6    0  503 -0.50587869791E+03 -0.16891360490E+02  0.13285095601E+04  0.14216667072E+04  0.00000000000E+00 0.  1.
<mgrwt>
<rscale>  0 0.17863780E+04</rscale>
<asrwt>0</asrwt>
<pdfrwt beam="1">  1        1 0.28767295E+00 0.17863780E+04</pdfrwt>
<pdfrwt beam="2">  1       -2 0.65638854E-01 0.17863780E+04</pdfrwt>
<totfact> 0.64752735E+00</totfact>
</mgrwt>
</event>
<event>
12    4  0.4207946E-008  0.2957031E+04  0.7818608E-02  0.8256108E-01
         -2   -1    0    0    0  501 -0.00000000000E+00  0.00000000000E+00  0.20582777105E+04  0.20582777105E+04  0.00000000000E+00 0.  1.
          1   -1    0    0  501    0  0.00000000000E+00 -0.00000000000E+00 -0.10620572746E+04  0.10620572746E+04  0.00000000000E+00 0. -1.
        -24    2    1    2    0    0  0.85632181643E+03  0.18562115437E+03 -0.61989660434E+03  0.10762780736E+04  0.79752275046E+02 0.  0.
        254    2    1    2    0    0 -0.85632181643E+03 -0.18562115437E+03  0.16161170402E+04  0.20440569115E+04  0.89363980647E+03 0.  0.
         23    2    4    4    0    0 -0.78763381917E+03  0.22170214340E+03  0.11570527201E+04  0.14201040275E+04  0.91681940198E+02 0.  0.
         23    2    4    4    0    0 -0.68687997255E+02 -0.40732329777E+03  0.45906432008E+03  0.62395288408E+03  0.89145059892E+02 0.  0.
          3    1    3    3  502    0  0.84372776456E+03  0.18968145896E+03 -0.60063551988E+03  0.10529095993E+04  0.00000000000E+00 0. -1.
         -4    1    3    3    0  502  0.12594051867E+02 -0.40603045963E+01 -0.19261084454E+02  0.23368474280E+02  0.00000000000E+00 0.  1.
         11    1    5    5    0    0 -0.27026316925E+03  0.11882498676E+03  0.44210342213E+03  0.53161733794E+03  0.00000000000E+00 0. -1.
        -11    1    5    5    0    0 -0.51737064992E+03  0.10287715664E+03  0.71494929801E+03  0.88848668953E+03  0.00000000000E+00 0.  1.
          3    1    6    6  503    0 -0.68794676258E+02 -0.33631391984E+03  0.32746934710E+03  0.47442168316E+03  0.00000000000E+00 0. -1.
         -3    1    6    6    0  503  0.10667900296E+00 -0.71009377926E+02  0.13159497298E+03  0.14953120092E+03  0.00000000000E+00 0.  1.
<mgrwt>
<rscale>  0 0.29570315E+04</rscale>
<asrwt>0</asrwt>
<pdfrwt beam="1">  1        1 0.16339343E+00 0.29570315E+04</pdfrwt>
<pdfrwt beam="2">  1       -2 0.31665811E+00 0.29570315E+04</pdfrwt>
<totfact> 0.25496325E-01</totfact>
</mgrwt>
</event>
<event>
12    4  0.4207946E-008  0.1535922E+04  0.7818608E-02  0.8860911E-01
         -2   -1    0    0    0  501 -0.00000000000E+00  0.00000000000E+00  0.41331328644E+03  0.41331328644E+03  0.00000000000E+00 0.  1.
          1   -1    0    0  501    0  0.00000000000E+00 -0.00000000000E+00 -0.14269173896E+04  0.14269173896E+04  0.00000000000E+00 0. -1.
        -24    2    1    2    0    0  0.48119627944E+03 -0.12365882032E+03 -0.26642023569E+03  0.57064628470E+03  0.88408580312E+02 0.  0.
        254    2    1    2    0    0 -0.48119627944E+03  0.12365882032E+03 -0.74718386747E+03  0.12695843913E+04  0.89817561297E+03 0.  0.
         23    2    4    4    0    0  0.12755694725E+03  0.49120165930E+02  0.11947385204E+03  0.20382615882E+03  0.92668960317E+02 0.  0.
         23    2    4    4    0    0 -0.60875322669E+03  0.74538654391E+02 -0.86665771951E+03  0.10657582325E+04  0.92782031500E+02 0.  0.
          1    1    3    3  502    0  0.21253523969E+03 -0.51191981180E+02 -0.16720048929E+03  0.27522327421E+03  0.00000000000E+00 0. -1.
         -2    1    3    3    0  502  0.26866103975E+03 -0.72466839141E+02 -0.99219746395E+02  0.29542301050E+03  0.00000000000E+00 0.  1.
         11    1    5    5    0    0  0.11877138131E+03  0.28674734054E+02  0.52020492785E+02  0.13279688649E+03  0.00000000000E+00 0.  1.
        -11    1    5    5    0    0  0.87855659414E+01  0.20445431876E+02  0.67453359257E+02  0.71029272336E+02  0.00000000000E+00 0. -1.
          1    1    6    6  503    0 -0.14268343385E+03  0.11050290973E+02 -0.14039282121E+03  0.20047647112E+03  0.00000000000E+00 0. -1.
         -1    1    6    6    0  503 -0.46606979284E+03  0.63488363417E+02 -0.72626489830E+03  0.86528176139E+03  0.00000000000E+00 0.  1.
<mgrwt>
<rscale>  0 0.15359218E+04</rscale>
<asrwt>0</asrwt>
<pdfrwt beam="1">  1        1 0.21952575E+00 0.15359218E+04</pdfrwt>
<pdfrwt beam="2">  1       -2 0.63586659E-01 0.15359218E+04</pdfrwt>
<totfact> 0.14246865E+01</totfact>
</mgrwt>
</event>
<event>
12    4  0.4207946E-008  0.1232040E+04  0.7818608E-02  0.9085265E-01
         -4   -1    0    0    0  501 -0.00000000000E+00  0.00000000000E+00  0.14699257143E+03  0.14699257143E+03  0.00000000000E+00 0.  1.
          3   -1    0    0  501    0  0.00000000000E+00 -0.00000000000E+00 -0.25816324728E+04  0.25816324728E+04  0.00000000000E+00 0. -1.
        -24    2    1    2    0    0 -0.24462445588E+02 -0.37139693002E+01 -0.11797258074E+04  0.11824818814E+04  0.76799834007E+02 0.  0.
        254    2    1    2    0    0  0.24462445588E+02  0.37139693002E+01 -0.12549140940E+04  0.15461431628E+04  0.90284942918E+03 0.  0.
         23    2    4    4    0    0  0.16109043545E+03 -0.40658639970E+03 -0.77451713765E+03  0.89353216820E+03  0.85207454349E+02 0.  0.
         23    2    4    4    0    0 -0.13662798986E+03  0.41030036900E+03 -0.48039695638E+03  0.65261099463E+03  0.90034849933E+02 0.  0.
          1    1    3    3  502    0 -0.30117079685E+02  0.93881392717E+01 -0.11369689769E+04  0.11374065369E+04  0.00000000000E+00 0. -1.
         -2    1    3    3    0  502  0.56546340974E+01 -0.13102108572E+02 -0.42756830439E+02  0.45075344535E+02  0.00000000000E+00 0.  1.
         11    1    5    5    0    0 -0.23799110668E+01 -0.73862637644E+02 -0.15153107803E+03  0.16859128336E+03  0.00000000000E+00 0. -1.
        -11    1    5    5    0    0  0.16347034652E+03 -0.33272376206E+03 -0.62298605961E+03  0.72494088483E+03  0.00000000000E+00 0.  1.
          1    1    6    6  503    0 -0.24410378716E+02  0.21519507599E+03 -0.22963092777E+03  0.31565036085E+03  0.00000000000E+00 0. -1.
         -1    1    6    6    0  503 -0.11221761115E+03  0.19510529301E+03 -0.25076602861E+03  0.33696063378E+03  0.00000000000E+00 0.  1.
<mgrwt>
<rscale>  0 0.12320403E+04</rscale>
<asrwt>0</asrwt>
<pdfrwt beam="1">  1        3 0.39717420E+00 0.12320403E+04</pdfrwt>
<pdfrwt beam="2">  1       -4 0.22614243E-01 0.12320403E+04</pdfrwt>
<totfact> 0.48706433E-01</totfact>
</mgrwt>
</event>
<event>
12    4  0.4207946E-008  0.1751318E+04  0.7818608E-02  0.8732625E-01
          1   -1    0    0  501    0  0.00000000000E+00  0.00000000000E+00  0.10865809841E+04  0.10865809841E+04  0.00000000000E+00 0. -1.
         -2   -1    0    0    0  501 -0.00000000000E+00 -0.00000000000E+00 -0.70567995892E+03  0.70567995892E+03  0.00000000000E+00 0.  1.
        -24    2    1    2    0    0 -0.24974686024E+03 -0.15002873556E+03 -0.44239162372E+03  0.53537362417E+03  0.77668867838E+02 0.  0.
        254    2    1    2    0    0  0.24974686024E+03  0.15002873556E+03  0.82329264885E+03  0.12568873188E+04  0.90392081005E+03 0.  0.
         23    2    4    4    0    0  0.24052121524E+02  0.50287330895E+03  0.53630492169E+03  0.74123113678E+03  0.91326664734E+02 0.  0.
         23    2    4    4    0    0  0.22569473872E+03 -0.35284457340E+03  0.28698772716E+03  0.51565618204E+03  0.90010746428E+02 0.  0.
          3    1    3    3  502    0  0.30206939450E+01 -0.13013683387E+02 -0.13214564351E+02  0.18791095183E+02  0.00000000000E+00 0. -1.
         -4    1    3    3    0  502 -0.25276755418E+03 -0.13701505217E+03 -0.42917705937E+03  0.51658252899E+03  0.00000000000E+00 0.  1.
         11    1    5    5    0    0  0.62838013324E+01  0.15596934559E+03  0.10819233289E+03  0.18992499525E+03  0.00000000000E+00 0. -1.
        -11    1    5    5    0    0  0.17768320192E+02  0.34690396336E+03  0.42811258880E+03  0.55130614153E+03  0.00000000000E+00 0.  1.
          3    1    6    6  503    0  0.18943066729E+03 -0.26658136633E+03  0.26134740851E+03  0.41863118675E+03  0.00000000000E+00 0. -1.
         -3    1    6    6    0  503  0.36264071430E+02 -0.86263207071E+02  0.25640318650E+02  0.97024995291E+02  0.00000000000E+00 0.  1.
<mgrwt>
<rscale>  0 0.17513177E+04</rscale>
<asrwt>0</asrwt>
<pdfrwt beam="1">  1        1 0.16716630E+00 0.17513177E+04</pdfrwt>
<pdfrwt beam="2">  1       -2 0.10856615E+00 0.17513177E+04</pdfrwt>
<totfact> 0.73133352E+00</totfact>
</mgrwt>
</event>
<event>
12    4  0.4207946E-008  0.2025838E+04  0.7818608E-02  0.8594635E-01
          1   -1    0    0  501    0  0.00000000000E+00  0.00000000000E+00  0.15958659325E+04  0.15958659325E+04  0.00000000000E+00 0. -1.
         -2   -1    0    0    0  501 -0.00000000000E+00 -0.00000000000E+00 -0.64291409696E+03  0.64291409696E+03  0.00000000000E+00 0.  1.
        -24    2    1    2    0    0 -0.65571008996E+03 -0.10915704219E+03 -0.12635372535E+03  0.68125540429E+03  0.79200252673E+02 0.  0.
        254    2    1    2    0    0  0.65571008996E+03  0.10915704219E+03  0.10793055609E+04  0.15575246252E+04  0.90504777902E+03 0.  0.
         23    2    4    4    0    0 -0.16595393371E+03  0.17899722678E+03  0.11310372922E+03  0.28359747641E+03  0.89746084907E+02 0.  0.
         23    2    4    4    0    0  0.82166402368E+03 -0.69840184591E+02  0.96620183165E+03  0.12739271487E+04  0.96617708720E+02 0.  0.
          3    1    3    3  502    0 -0.30746904981E+03 -0.19477735121E+02 -0.82848124032E+02  0.31903042240E+03  0.00000000000E+00 0. -1.
         -4    1    3    3    0  502 -0.34824104015E+03 -0.89679307067E+02 -0.43505601315E+02  0.36222498189E+03  0.00000000000E+00 0.  1.
         11    1    5    5    0    0 -0.16788456252E+02  0.27385511531E+02 -0.14848108262E+02  0.35387636599E+02  0.00000000000E+00 0. -1.
        -11    1    5    5    0    0 -0.14916547746E+03  0.15161171525E+03  0.12795183748E+03  0.24820983981E+03  0.00000000000E+00 0.  1.
          1    1    6    6  503    0  0.33991883942E+02  0.12589543509E+02  0.62963054306E+02  0.72651847789E+02  0.00000000000E+00 0. -1.
         -1    1    6    6    0  503  0.78767213973E+03 -0.82429728099E+02  0.90323877735E+03  0.12012753010E+04  0.00000000000E+00 0.  1.
<mgrwt>
<rscale>  0 0.20258378E+04</rscale>
<asrwt>0</asrwt>
<pdfrwt beam="1">  1        1 0.24551783E+00 0.20258378E+04</pdfrwt>
<pdfrwt beam="2">  1       -2 0.98909862E-01 0.20258378E+04</pdfrwt>
<totfact> 0.38688345E+00</totfact>
</mgrwt>
</event>
<event>
12    4  0.4207946E-008  0.1704579E+04  0.7818608E-02  0.8758757E-01
         -2   -1    0    0    0  501 -0.00000000000E+00  0.00000000000E+00  0.50853462331E+03  0.50853462331E+03  0.00000000000E+00 0.  1.
          1   -1    0    0  501    0  0.00000000000E+00 -0.00000000000E+00 -0.14284121145E+04  0.14284121145E+04  0.00000000000E+00 0. -1.
        -24    2    1    2    0    0  0.49730637979E+03  0.32195244062E+03 -0.31373403328E+03  0.67507043197E+03  0.79523802007E+02 0.  0.
        254    2    1    2    0    0 -0.49730637979E+03 -0.32195244062E+03 -0.60614345795E+03  0.12618763059E+04  0.93485555584E+03 0.  0.
         23    2    4    4    0    0 -0.41605536869E+03  0.49796921435E+02  0.11306128469E+03  0.44273030471E+03  0.87438352080E+02 0.  0.
         23    2    4    4    0    0 -0.81251011105E+02 -0.37174936205E+03 -0.71920474263E+03  0.81914600116E+03  0.94580095146E+02 0.  0.
          3    1    3    3  502    0  0.42105207460E+03  0.27871116847E+03 -0.29704919015E+03  0.58583528942E+03  0.00000000000E+00 0. -1.
         -4    1    3    3    0  502  0.76254305188E+02  0.43241272150E+02 -0.16684843129E+02  0.89235142557E+02  0.00000000000E+00 0.  1.
         11    1    5    5    0    0 -0.37494763885E+03  0.34920434869E+02  0.12607995540E+03  0.39711625981E+03  0.00000000000E+00 0. -1.
        -11    1    5    5    0    0 -0.41107729837E+02  0.14876486567E+02 -0.13018670715E+02  0.45614044900E+02  0.00000000000E+00 0.  1.
          1    1    6    6  503    0  0.20137634137E+01 -0.12003058614E+03 -0.15770745728E+03  0.19819949277E+03  0.00000000000E+00 0. -1.
         -1    1    6    6    0  503 -0.83264774519E+02 -0.25171877591E+03 -0.56149728535E+03  0.62094650839E+03  0.00000000000E+00 0.  1.
<mgrwt>
<rscale>  0 0.17045786E+04</rscale>
<asrwt>0</asrwt>
<pdfrwt beam="1">  1        1 0.21975571E+00 0.17045786E+04</pdfrwt>
<pdfrwt beam="2">  1       -2 0.78236096E-01 0.17045786E+04</pdfrwt>
<totfact> 0.89009729E+00</totfact>
</mgrwt>
</event>
<event>
12    4  0.4207946E-008  0.1401028E+04  0.7818608E-02  0.8953075E-01
          1   -1    0    0  501    0  0.00000000000E+00  0.00000000000E+00  0.10170698281E+04  0.10170698281E+04  0.00000000000E+00 0. -1.
         -2   -1    0    0    0  501 -0.00000000000E+00 -0.00000000000E+00 -0.48248412109E+03  0.48248412109E+03  0.00000000000E+00 0.  1.
        -24    2    1    2    0    0  0.24248970347E+02 -0.13279644298E+03 -0.25272594160E+03  0.29779702843E+03  0.81177341402E+02 0.  0.
        254    2    1    2    0    0 -0.24248970347E+02  0.13279644298E+03  0.78731164863E+03  0.12017569208E+04  0.89785141129E+03 0.  0.
         23    2    4    4    0    0 -0.32158018159E+03 -0.20436813192E+03  0.57652325279E+03  0.69689941602E+03  0.90053253716E+02 0.  0.
         23    2    4    4    0    0  0.29733121124E+03  0.33716457489E+03  0.21078839585E+03  0.50485750477E+03  0.91452460630E+02 0.  0.
          3    1    3    3  502    0 -0.17696775514E+02 -0.66697162343E+02 -0.66708410055E+02  0.95977597908E+02  0.00000000000E+00 0. -1.
         -4    1    3    3    0  502  0.41945745861E+02 -0.66099280633E+02 -0.18601753154E+03  0.20181943052E+03  0.00000000000E+00 0.  1.
         11    1    5    5    0    0 -0.14834070174E+03 -0.60105414432E+02  0.30090715481E+03  0.34082655480E+03  0.00000000000E+00 0.  1.
        -11    1    5    5    0    0 -0.17323947985E+03 -0.14426271749E+03  0.27561609797E+03  0.35607286122E+03  0.00000000000E+00 0. -1.
          4    1    6    6  503    0  0.17526349169E+02  0.42342990742E+02  0.49797591928E+02  0.67674972789E+02  0.00000000000E+00 0. -1.
         -4    1    6    6    0  503  0.27980486207E+03  0.29482158415E+03  0.16099080392E+03  0.43718253198E+03  0.00000000000E+00 0.  1.
<mgrwt>
<rscale>  0 0.14010283E+04</rscale>
<asrwt>0</asrwt>
<pdfrwt beam="1">  1        1 0.15647228E+00 0.14010283E+04</pdfrwt>
<pdfrwt beam="2">  1       -2 0.74228327E-01 0.14010283E+04</pdfrwt>
<totfact> 0.20494556E+01</totfact>
</mgrwt>
</event>
<event>
12    4  0.4207946E-008  0.2009032E+04  0.7818608E-02  0.8602410E-01
          1   -1    0    0  501    0  0.00000000000E+00  0.00000000000E+00  0.24718086043E+04  0.24718086043E+04  0.00000000000E+00 0. -1.
         -2   -1    0    0    0  501 -0.00000000000E+00 -0.00000000000E+00 -0.40822430638E+03  0.40822430638E+03  0.00000000000E+00 0.  1.
        -24    2    1    2    0    0  0.29947472812E+03 -0.15716332462E+03 -0.21466393561E+03  0.40835465590E+03  0.79293734636E+02 0.  0.
        254    2    1    2    0    0 -0.29947472812E+03  0.15716332462E+03  0.22782482336E+04  0.24716782548E+04  0.89687956727E+03 0.  0.
         23    2    4    4    0    0  0.26493047875E+03  0.25477560284E+03  0.88325593886E+03  0.96093154783E+03  0.90275244156E+02 0.  0.
         23    2    4    4    0    0 -0.56440520687E+03 -0.97612278220E+02  0.13949922947E+04  0.15107467070E+04  0.90943476830E+02 0.  0.
          3    1    3    3  502    0  0.13473551248E+03 -0.27997711890E+02 -0.75289668720E+02  0.15686320285E+03  0.00000000000E+00 0. -1.
         -4    1    3    3    0  502  0.16473921565E+03 -0.12916561273E+03 -0.13937426689E+03  0.25149145304E+03  0.00000000000E+00 0.  1.
         11    1    5    5    0    0  0.11670785474E+03  0.53643916028E+02  0.31437817095E+03  0.33960569409E+03  0.00000000000E+00 0. -1.
        -11    1    5    5    0    0  0.14822262401E+03  0.20113168681E+03  0.56887776791E+03  0.62132585375E+03  0.00000000000E+00 0.  1.
          3    1    6    6  503    0 -0.15082433454E+03  0.90972845145E+01  0.41786839362E+03  0.44434753837E+03  0.00000000000E+00 0. -1.
         -3    1    6    6    0  503 -0.41358087233E+03 -0.10670956273E+03  0.97712390109E+03  0.10663991686E+04  0.00000000000E+00 0.  1.
<mgrwt>
<rscale>  0 0.20090320E+04</rscale>
<asrwt>0</asrwt>
<pdfrwt beam="1">  1        1 0.38027824E+00 0.20090320E+04</pdfrwt>
<pdfrwt beam="2">  1       -2 0.62803741E-01 0.20090320E+04</pdfrwt>
<totfact> 0.27131234E+00</totfact>
</mgrwt>
</event>
<event>
12    4  0.4207946E-008  0.1468252E+04  0.7818608E-02  0.8905844E-01
          1   -1    0    0  501    0  0.00000000000E+00  0.00000000000E+00  0.18571723710E+04  0.18571723710E+04  0.00000000000E+00 0. -1.
         -2   -1    0    0    0  501 -0.00000000000E+00 -0.00000000000E+00 -0.29019426911E+03  0.29019426911E+03  0.00000000000E+00 0.  1.
        -24    2    1    2    0    0 -0.45846072752E+03 -0.28644459592E+02  0.46540532827E+03  0.65864161386E+03  0.78739521079E+02 0.  0.
        254    2    1    2    0    0  0.45846072752E+03  0.28644459592E+02  0.11015727736E+04  0.14887250262E+04  0.88984992241E+03 0.  0.
         23    2    4    4    0    0  0.51296867181E+03 -0.29497260628E+03  0.43564604446E+03  0.74070725009E+03  0.93349116541E+02 0.  0.
         23    2    4    4    0    0 -0.54507944288E+02  0.32361706587E+03  0.66592672913E+03  0.74801777612E+03  0.91504445312E+02 0.  0.
          3    1    3    3  502    0 -0.85885676700E+02  0.10211005466E+02  0.12808016144E+03  0.15454818617E+03  0.00000000000E+00 0. -1.
         -4    1    3    3    0  502 -0.37257505082E+03 -0.38855465058E+02  0.33732516683E+03  0.50409342769E+03  0.00000000000E+00 0.  1.
         11    1    5    5    0    0  0.33570627346E+03 -0.19011349536E+03  0.22746141446E+03  0.44786218665E+03  0.00000000000E+00 0. -1.
        -11    1    5    5    0    0  0.17726239835E+03 -0.10485911092E+03  0.20818463000E+03  0.29284506344E+03  0.00000000000E+00 0.  1.
          1    1    6    6  503    0 -0.50007542990E+02  0.17714170555E+03  0.45832054573E+03  0.49390045640E+03  0.00000000000E+00 0. -1.
         -1    1    6    6    0  503 -0.45004012985E+01  0.14647536033E+03  0.20760618340E+03  0.25411731972E+03  0.00000000000E+00 0.  1.
<mgrwt>
<rscale>  0 0.14682517E+04</rscale>
<asrwt>0</asrwt>
<pdfrwt beam="1">  1        1 0.28571882E+00 0.14682517E+04</pdfrwt>
<pdfrwt beam="2">  1       -2 0.44645273E-01 0.14682517E+04</pdfrwt>
<totfact> 0.15095070E+01</totfact>
</mgrwt>
</event>
<event>
12    4  0.4207946E-008  0.1733995E+04  0.7818608E-02  0.8742210E-01
         -2   -1    0    0    0  501 -0.00000000000E+00  0.00000000000E+00  0.26915558309E+03  0.26915558309E+03  0.00000000000E+00 0.  1.
          1   -1    0    0  501    0  0.00000000000E+00 -0.00000000000E+00 -0.27927509536E+04  0.27927509536E+04  0.00000000000E+00 0. -1.
        -24    2    1    2    0    0 -0.98113722300E+02  0.19661841426E+03  0.12011397963E+03  0.26273013748E+03  0.79464795406E+02 0.  0.
        254    2    1    2    0    0  0.98113722300E+02 -0.19661841426E+03 -0.26437093502E+04  0.27991763992E+04  0.89325488110E+03 0.  0.
         23    2    4    4    0    0  0.45283899550E+03 -0.11957135622E+03 -0.92986039212E+03  0.10448723517E+04  0.88076202830E+02 0.  0.
         23    2    4    4    0    0 -0.35472527320E+03 -0.77047058037E+02 -0.17138489580E+04  0.17543040475E+04  0.92402226904E+02 0.  0.
          3    1    3    3  502    0 -0.13968953469E+02 -0.40573697897E+01  0.15599386822E+02  0.21329200169E+02  0.00000000000E+00 0. -1.
         -4    1    3    3    0  502 -0.84144768831E+02  0.20067578405E+03  0.10451459281E+03  0.24140093731E+03  0.00000000000E+00 0.  1.
         11    1    5    5    0    0  0.23681035658E+03 -0.10630131289E+03 -0.48179234802E+03  0.54726865497E+03  0.00000000000E+00 0. -1.
        -11    1    5    5    0    0  0.21602863892E+03 -0.13270043332E+02 -0.44806804410E+03  0.49760369676E+03  0.00000000000E+00 0.  1.
          2    1    6    6  503    0 -0.24708964469E+03 -0.34248619681E+02 -0.97368056446E+03  0.10051269084E+04  0.00000000000E+00 0. -1.
         -2    1    6    6    0  503 -0.10763562851E+03 -0.42798438356E+02 -0.74016839357E+03  0.74917713906E+03  0.00000000000E+00 0.  1.
<mgrwt>
<rscale>  0 0.17339948E+04</rscale>
<asrwt>0</asrwt>
<pdfrwt beam="1">  1        1 0.42965401E+00 0.17339948E+04</pdfrwt>
<pdfrwt beam="2">  1       -2 0.41408549E-01 0.17339948E+04</pdfrwt>
<totfact> 0.38934499E+00</totfact>
</mgrwt>
</event>
<event>
12    4  0.4207946E-008  0.1757802E+04  0.7818608E-02  0.8729067E-01
          1   -1    0    0  501    0  0.00000000000E+00  0.00000000000E+00  0.11693776573E+04  0.11693776573E+04  0.00000000000E+00 0. -1.
         -4   -1    0    0    0  501 -0.00000000000E+00 -0.00000000000E+00 -0.66057973976E+03  0.66057973976E+03  0.00000000000E+00 0.  1.
        -24    2    1    2    0    0  0.62104119255E+03  0.13412570768E+03  0.83097046781E+02  0.64607520068E+03  0.82620684148E+02 0.  0.
        254    2    1    2    0    0 -0.62104119255E+03 -0.13412570768E+03  0.42570087077E+03  0.11838821964E+04  0.90370014675E+03 0.  0.
         23    2    4    4    0    0 -0.45475280544E+03 -0.75116235268E+02 -0.21230401764E+03  0.51582536490E+03  0.92521609939E+02 0.  0.
         23    2    4    4    0    0 -0.16628838710E+03 -0.59009472416E+02  0.63800488841E+03  0.66805683148E+03  0.90087440473E+02 0.  0.
          3    1    3    3  502    0  0.26957322072E+03  0.67800041025E+02 -0.38184356703E+01  0.27799486927E+03  0.00000000000E+00 0. -1.
         -4    1    3    3    0  502  0.35146797183E+03  0.66325666659E+02  0.86915482452E+02  0.36808033141E+03  0.00000000000E+00 0.  1.
         11    1    5    5    0    0 -0.30711484735E+03 -0.12146604762E+02 -0.11521801147E+03  0.32824116079E+03  0.00000000000E+00 0.  1.
        -11    1    5    5    0    0 -0.14763795809E+03 -0.62969630505E+02 -0.97086006173E+02  0.18758420410E+03  0.00000000000E+00 0. -1.
          2    1    6    6  503    0 -0.11093824117E+03 -0.16986485918E+02  0.25222653619E+03  0.27606893997E+03  0.00000000000E+00 0. -1.
         -2    1    6    6    0  503 -0.55350145937E+02 -0.42022986499E+02  0.38577835222E+03  0.39198789151E+03  0.00000000000E+00 0.  1.
<mgrwt>
<rscale>  0 0.17578023E+04</rscale>
<asrwt>0</asrwt>
<pdfrwt beam="1">  1        1 0.17990425E+00 0.17578023E+04</pdfrwt>
<pdfrwt beam="2">  1       -4 0.10162765E+00 0.17578023E+04</pdfrwt>
<totfact> 0.41259866E+00</totfact>
</mgrwt>
</event>
<event>
12    4  0.4207946E-008  0.2066443E+04  0.7818608E-02  0.8576171E-01
         -2   -1    0    0    0  501 -0.00000000000E+00  0.00000000000E+00  0.85639047441E+03  0.85639047441E+03  0.00000000000E+00 0.  1.
          1   -1    0    0  501    0  0.00000000000E+00 -0.00000000000E+00 -0.12465654847E+04  0.12465654847E+04  0.00000000000E+00 0. -1.
        -24    2    1    2    0    0  0.31973956801E+03 -0.76706857784E+03 -0.18451516485E+03  0.85608703846E+03  0.90617751582E+02 0.  0.
        254    2    1    2    0    0 -0.31973956801E+03  0.76706857784E+03 -0.20565984546E+03  0.12468689207E+04  0.90650898442E+03 0.  0.
         23    2    4    4    0    0 -0.12388631212E+03  0.72431308886E+02  0.31060798736E+03  0.35473236598E+03  0.93614191337E+02 0.  0.
         23    2    4    4    0    0 -0.19585325589E+03  0.69463726896E+03 -0.51626783282E+03  0.89213655469E+03  0.92172250415E+02 0.  0.
          1    1    3    3  502    0  0.23486102497E+03 -0.61628630375E+03 -0.11430139495E+03  0.66935291000E+03  0.00000000000E+00 0. -1.
         -2    1    3    3    0  502  0.84878543039E+02 -0.15078227409E+03 -0.70213769900E+02  0.18673412846E+03  0.00000000000E+00 0.  1.
         11    1    5    5    0    0 -0.12540176431E+02 -0.20525880694E+02  0.67304243192E+02  0.71473274410E+02  0.00000000000E+00 0.  1.
        -11    1    5    5    0    0 -0.11134613569E+03  0.92957189580E+02  0.24330374417E+03  0.28325909157E+03  0.00000000000E+00 0. -1.
          1    1    6    6  503    0 -0.40294751749E+02  0.29247553828E+03 -0.23454344792E+03  0.37706264264E+03  0.00000000000E+00 0. -1.
         -1    1    6    6    0  503 -0.15555850414E+03  0.40216173068E+03 -0.28172438490E+03  0.51507391205E+03  0.00000000000E+00 0.  1.
<mgrwt>
<rscale>  0 0.20664431E+04</rscale>
<asrwt>0</asrwt>
<pdfrwt beam="1">  1        1 0.19177931E+00 0.20664431E+04</pdfrwt>
<pdfrwt beam="2">  1       -2 0.13175238E+00 0.20664431E+04</pdfrwt>
<totfact> 0.33573357E+00</totfact>
</mgrwt>
</event>
<event>
12    4  0.4207946E-008  0.2363605E+04  0.7818608E-02  0.8453256E-01
          1   -1    0    0  501    0  0.00000000000E+00  0.00000000000E+00  0.25277839337E+04  0.25277839337E+04  0.00000000000E+00 0. -1.
         -2   -1    0    0    0  501 -0.00000000000E+00 -0.00000000000E+00 -0.55252227343E+03  0.55252227343E+03  0.00000000000E+00 0.  1.
        -24    2    1    2    0    0 -0.47601405342E+03 -0.79895081415E+03  0.30789945769E+03  0.98286483274E+03  0.79431863237E+02 0.  0.
        254    2    1    2    0    0  0.47601405342E+03  0.79895081415E+03  0.16673622025E+04  0.20974413744E+04  0.86847672501E+03 0.  0.
         23    2    4    4    0    0  0.31215156680E+03  0.91862878798E+03  0.10104525354E+04  0.14037894573E+04  0.91066257621E+02 0.  0.
         23    2    4    4    0    0  0.16386248662E+03 -0.11967797383E+03  0.65690966716E+03  0.69365191709E+03  0.91918112176E+02 0.  0.
          3    1    3    3  502    0 -0.85333297991E+02 -0.20897502498E+03  0.69607568021E+02  0.23621504257E+03  0.00000000000E+00 0. -1.
         -2    1    3    3    0  502 -0.39068075543E+03 -0.58997578918E+03  0.23829188967E+03  0.74664979017E+03  0.00000000000E+00 0.  1.
         11    1    5    5    0    0  0.13497328114E+03  0.47020523620E+03  0.45266933218E+03  0.66649851843E+03  0.00000000000E+00 0. -1.
        -11    1    5    5    0    0  0.17717828565E+03  0.44842355178E+03  0.55778320321E+03  0.73729093883E+03  0.00000000000E+00 0.  1.
          4    1    6    6  503    0  0.15287300042E+03 -0.69710359941E+02  0.44523865362E+03  0.47588564511E+03  0.00000000000E+00 0. -1.
         -4    1    6    6    0  503  0.10989486198E+02 -0.49967613886E+02  0.21167101354E+03  0.21776627199E+03  0.00000000000E+00 0.  1.
<mgrwt>
<rscale>  0 0.23636048E+04</rscale>
<asrwt>0</asrwt>
<pdfrwt beam="1">  1        1 0.38888983E+00 0.23636048E+04</pdfrwt>
<pdfrwt beam="2">  1       -2 0.85003428E-01 0.23636048E+04</pdfrwt>
<totfact> 0.12334258E+00</totfact>
</mgrwt>
</event>
<event>
12    4  0.4207946E-008  0.1408772E+04  0.7818608E-02  0.8947494E-01
          1   -1    0    0  501    0  0.00000000000E+00  0.00000000000E+00  0.32153574389E+03  0.32153574389E+03  0.00000000000E+00 0. -1.
         -2   -1    0    0    0  501 -0.00000000000E+00 -0.00000000000E+00 -0.15430922802E+04  0.15430922802E+04  0.00000000000E+00 0.  1.
        -24    2    1    2    0    0 -0.91025343983E+02 -0.39627986270E+03 -0.46432339181E+03  0.62202647883E+03  0.77442787646E+02 0.  0.
        254    2    1    2    0    0  0.91025343983E+02  0.39627986270E+03 -0.75723314452E+03  0.12426015453E+04  0.89740360059E+03 0.  0.
         23    2    4    4    0    0  0.28124651197E+02 -0.16748050328E+03  0.94414609061E+02  0.21527584894E+03  0.92676090497E+02 0.  0.
         23    2    4    4    0    0  0.62900692786E+02  0.56376036597E+03 -0.85164775358E+03  0.10273256963E+04  0.91169856853E+02 0.  0.
          1    1    3    3  502    0 -0.30390287321E+02 -0.18167605067E+03 -0.15524683860E+03  0.24089694445E+03  0.00000000000E+00 0. -1.
         -2    1    3    3    0  502 -0.60635056663E+02 -0.21460381203E+03 -0.30907655320E+03  0.38112953438E+03  0.00000000000E+00 0.  1.
         11    1    5    5    0    0  0.33209665161E+02 -0.15780077848E+03  0.48962159690E+02  0.16852673565E+03  0.00000000000E+00 0.  1.
        -11    1    5    5    0    0 -0.50850139634E+01 -0.96797247975E+01  0.45452449371E+02  0.46749113286E+02  0.00000000000E+00 0. -1.
          4    1    6    6  503    0 -0.86068595067E+01  0.18529232319E+02 -0.60367095404E+02  0.63730657367E+02  0.00000000000E+00 0. -1.
         -4    1    6    6    0  503  0.71507552292E+02  0.54523113365E+03 -0.79128065817E+03  0.96359503897E+03  0.00000000000E+00 0.  1.
<mgrwt>
<rscale>  0 0.14087716E+04</rscale>
<asrwt>0</asrwt>
<pdfrwt beam="1">  1        1 0.49467038E-01 0.14087716E+04</pdfrwt>
<pdfrwt beam="2">  1       -2 0.23739881E+00 0.14087716E+04</pdfrwt>
<totfact> 0.52400916E+00</totfact>
</mgrwt>
</event>
<event>
12    4  0.4207946E-008  0.2230811E+04  0.7818608E-02  0.8505712E-01
          1   -1    0    0  501    0  0.00000000000E+00  0.00000000000E+00  0.14231776995E+04  0.14231776995E+04  0.00000000000E+00 0. -1.
         -2   -1    0    0    0  501 -0.00000000000E+00 -0.00000000000E+00 -0.87419127929E+03  0.87419127929E+03  0.00000000000E+00 0.  1.
        -24    2    1    2    0    0  0.16204044601E+03  0.81895216435E+03  0.62748782151E+03  0.10474718209E+04  0.80724815296E+02 0.  0.
        254    2    1    2    0    0 -0.16204044601E+03 -0.81895216435E+03 -0.78501401319E+02  0.12498971579E+04  0.92689842032E+03 0.  0.
         23    2    4    4    0    0  0.69178057522E+02 -0.74471718258E+03 -0.38707189407E+03  0.84701587677E+03  0.90675016672E+02 0.  0.
         23    2    4    4    0    0 -0.23121850353E+03 -0.74234981776E+02  0.30857049275E+03  0.40288128110E+03  0.90137388329E+02 0.  0.
          3    1    3    3  502    0  0.89165222361E+02  0.38706144775E+03  0.25061557197E+03  0.46965430491E+03  0.00000000000E+00 0. -1.
         -4    1    3    3    0  502  0.72875223645E+02  0.43189071661E+03  0.37687224954E+03  0.57781751599E+03  0.00000000000E+00 0.  1.
         11    1    5    5    0    0 -0.16595154525E+02 -0.23969253632E+03 -0.10469936380E+03  0.26208751954E+03  0.00000000000E+00 0.  1.
        -11    1    5    5    0    0  0.85773212047E+02 -0.50502464626E+03 -0.28237253026E+03  0.58492835722E+03  0.00000000000E+00 0. -1.
          4    1    6    6  503    0 -0.19820832128E+03 -0.93099478552E+02  0.27922597054E+03  0.35485376447E+03  0.00000000000E+00 0. -1.
         -4    1    6    6    0  503 -0.33010182244E+02  0.18864496776E+02  0.29344522204E+02  0.48027516631E+02  0.00000000000E+00 0.  1.
<mgrwt>
<rscale>  0 0.22308111E+04</rscale>
<asrwt>0</asrwt>
<pdfrwt beam="1">  1        1 0.21895042E+00 0.22308111E+04</pdfrwt>
<pdfrwt beam="2">  1       -2 0.13449097E+00 0.22308111E+04</pdfrwt>
<totfact> 0.23529436E+00</totfact>
</mgrwt>
</event>
<event>
12    4  0.4207946E-008  0.1346309E+04  0.7818608E-02  0.8993627E-01
         -2   -1    0    0    0  501 -0.00000000000E+00  0.00000000000E+00  0.35143139086E+03  0.35143139086E+03  0.00000000000E+00 0.  1.
          1   -1    0    0  501    0  0.00000000000E+00 -0.00000000000E+00 -0.12894029466E+04  0.12894029466E+04  0.00000000000E+00 0. -1.
        -24    2    1    2    0    0  0.54840796760E+02 -0.23563181948E+03 -0.50892745618E+03  0.56917362001E+03  0.80134803421E+02 0.  0.
        254    2    1    2    0    0 -0.54840796760E+02  0.23563181948E+03 -0.42904409957E+03  0.10716607175E+04  0.95176046704E+03 0.  0.
         23    2    4    4    0    0  0.16783249699E+03 -0.12175819707E+03  0.20452949700E+03  0.30538246793E+03  0.91833169249E+02 0.  0.
         23    2    4    4    0    0 -0.22267329375E+03  0.35739001654E+03 -0.63357359657E+03  0.76627824953E+03  0.91955607498E+02 0.  0.
          1    1    3    3  502    0  0.46812891302E+02 -0.23045094718E+03 -0.50773120335E+03  0.55954451182E+03  0.00000000000E+00 0. -1.
         -2    1    3    3    0  502  0.80279054573E+01 -0.51808722979E+01 -0.11962528343E+01  0.96291081956E+01  0.00000000000E+00 0.  1.
         11    1    5    5    0    0  0.64527338092E+02 -0.12858809995E+02  0.10943541627E+03  0.12769196016E+03  0.00000000000E+00 0. -1.
        -11    1    5    5    0    0  0.10330515890E+03 -0.10889938707E+03  0.95094080731E+02  0.17769050777E+03  0.00000000000E+00 0.  1.
          4    1    6    6  503    0 -0.66826012164E+02  0.89405725216E+02 -0.24472397399E+03  0.26897755120E+03  0.00000000000E+00 0. -1.
         -4    1    6    6    0  503 -0.15584728159E+03  0.26798429133E+03 -0.38884962258E+03  0.49730069833E+03  0.00000000000E+00 0.  1.
<mgrwt>
<rscale>  0 0.13463085E+04</rscale>
<asrwt>0</asrwt>
<pdfrwt beam="1">  1        1 0.19836968E+00 0.13463085E+04</pdfrwt>
<pdfrwt beam="2">  1       -2 0.54066368E-01 0.13463085E+04</pdfrwt>
<totfact> 0.25467709E+01</totfact>
</mgrwt>
</event>
<event>
12    4  0.4207946E-008  0.1979549E+04  0.7818608E-02  0.8616242E-01
         -2   -1    0    0    0  501 -0.00000000000E+00  0.00000000000E+00  0.61990657794E+03  0.61990657794E+03  0.00000000000E+00 0.  1.
          1   -1    0    0  501    0  0.00000000000E+00 -0.00000000000E+00 -0.15803245153E+04  0.15803245153E+04  0.00000000000E+00 0. -1.
        -24    2    1    2    0    0 -0.56302892683E+03  0.38870656777E+03  0.35872206153E+02  0.68960815090E+03  0.78601643329E+02 0.  0.
        254    2    1    2    0    0  0.56302892683E+03 -0.38870656777E+03 -0.99629014352E+03  0.15106229424E+04  0.90625231344E+03 0.  0.
         23    2    4    4    0    0 -0.41363022481E+02  0.23768112502E+03 -0.26732447576E+03  0.37161386692E+03  0.91821968687E+02 0.  0.
         23    2    4    4    0    0  0.60439194932E+03 -0.62638769279E+03 -0.72896566777E+03  0.11390090754E+04  0.91101915762E+02 0.  0.
          1    1    3    3  502    0 -0.12429494878E+03  0.98886441383E+02 -0.23065954997E+02  0.16049860081E+03  0.00000000000E+00 0. -1.
         -2    1    3    3    0  502 -0.43873397806E+03  0.28982012639E+03  0.58938161149E+02  0.52910955009E+03  0.00000000000E+00 0.  1.
         11    1    5    5    0    0 -0.50581454983E+02  0.23878704949E+03 -0.26776349595E+03  0.36231895942E+03  0.00000000000E+00 0. -1.
        -11    1    5    5    0    0  0.92184325027E+01 -0.11059244712E+01  0.43902019638E+00  0.92949075022E+01  0.00000000000E+00 0.  1.
          4    1    6    6  503    0  0.75645079555E+01 -0.67422975260E+01 -0.26342838967E+02  0.28224555291E+02  0.00000000000E+00 0.  1.
         -4    1    6    6    0  503  0.59682744136E+03 -0.61964539526E+03 -0.70262282880E+03  0.11107845201E+04  0.00000000000E+00 0. -1.
<mgrwt>
<rscale>  0 0.19795490E+04</rscale>
<asrwt>0</asrwt>
<pdfrwt beam="1">  1        1 0.24312684E+00 0.19795490E+04</pdfrwt>
<pdfrwt beam="2">  1       -2 0.95370244E-01 0.19795490E+04</pdfrwt>
<totfact> 0.43369896E+00</totfact>
</mgrwt>
</event>
<event>
12    4  0.4207946E-008  0.1251637E+04  0.7818608E-02  0.9068822E-01
         -2   -1    0    0    0  501 -0.00000000000E+00  0.00000000000E+00  0.18379355849E+04  0.18379355849E+04  0.00000000000E+00 0.  1.
          1   -1    0    0  501    0  0.00000000000E+00 -0.00000000000E+00 -0.21309179750E+03  0.21309179750E+03  0.00000000000E+00 0. -1.
        -24    2    1    2    0    0 -0.14801465065E+03  0.21912692674E+03  0.59049243169E+03  0.65185476297E+03  0.79425268577E+02 0.  0.
        254    2    1    2    0    0  0.14801465065E+03 -0.21912692674E+03  0.10343513558E+04  0.13991726195E+04  0.90436516137E+03 0.  0.
         23    2    4    4    0    0  0.48196276644E+03 -0.27782087781E+03  0.79448370285E+03  0.97398440101E+03  0.89267636552E+02 0.  0.
         23    2    4    4    0    0 -0.33394811579E+03  0.58693951075E+02  0.23986765290E+03  0.42518821846E+03  0.91006627659E+02 0.  0.
          3    1    3    3  502    0 -0.19402883176E+01 -0.59457595971E+01  0.27350686515E+02  0.28056671734E+02  0.00000000000E+00 0. -1.
         -4    1    3    3    0  502 -0.14607436233E+03  0.22507268634E+03  0.56314174518E+03  0.62379809123E+03  0.00000000000E+00 0.  1.
         11    1    5    5    0    0  0.11966884105E+03 -0.10468457725E+03  0.18268108814E+03  0.24218148608E+03  0.00000000000E+00 0.  1.
        -11    1    5    5    0    0  0.36229392539E+03 -0.17313630056E+03  0.61180261471E+03  0.73180291494E+03  0.00000000000E+00 0. -1.
          1    1    6    6  503    0 -0.30487677483E+02  0.22283217014E+02  0.58982559171E+02  0.70035580423E+02  0.00000000000E+00 0.  1.
         -1    1    6    6    0  503 -0.30346043831E+03  0.36410734061E+02  0.18088509373E+03  0.35515263804E+03  0.00000000000E+00 0. -1.
<mgrwt>
<rscale>  0 0.12516373E+04</rscale>
<asrwt>0</asrwt>
<pdfrwt beam="1">  1        1 0.32783355E-01 0.12516373E+04</pdfrwt>
<pdfrwt beam="2">  1       -2 0.28275931E+00 0.12516373E+04</pdfrwt>
<totfact> 0.47954502E+00</totfact>
</mgrwt>
</event>
<event>
12    4  0.4207946E-008  0.1837624E+04  0.7818608E-02  0.8686543E-01
         -2   -1    0    0    0  501 -0.00000000000E+00  0.00000000000E+00  0.10067060034E+04  0.10067060034E+04  0.00000000000E+00 0.  1.
          1   -1    0    0  501    0  0.00000000000E+00 -0.00000000000E+00 -0.83859193700E+03  0.83859193700E+03  0.00000000000E+00 0. -1.
        -24    2    1    2    0    0  0.46618598107E+03  0.66710852382E+02 -0.45653937055E+03  0.66061402853E+03  0.78759069661E+02 0.  0.
        254    2    1    2    0    0 -0.46618598107E+03 -0.66710852382E+02  0.62465343700E+03  0.11846839119E+04  0.88966530112E+03 0.  0.
         23    2    4    4    0    0 -0.56383745917E+03  0.27448256881E+03  0.46545793778E+03  0.78515937237E+03  0.81060392501E+02 0.  0.
         23    2    4    4    0    0  0.97651478094E+02 -0.34119342119E+03  0.15919549923E+03  0.39952453955E+03  0.91257267599E+02 0.  0.
          1    1    3    3  502    0  0.33678864366E+03  0.22842619860E+02 -0.35873992076E+03  0.49258776530E+03  0.00000000000E+00 0. -1.
         -2    1    3    3    0  502  0.12939733742E+03  0.43868232522E+02 -0.97799449789E+02  0.16802626323E+03  0.00000000000E+00 0.  1.
         11    1    5    5    0    0 -0.32886025331E+03  0.13624306471E+03  0.22103693174E+03  0.41900902625E+03  0.00000000000E+00 0.  1.
        -11    1    5    5    0    0 -0.23497720586E+03  0.13823950409E+03  0.24442100604E+03  0.36615034611E+03  0.00000000000E+00 0. -1.
          2    1    6    6  503    0  0.20441975041E+02 -0.41852843804E+02  0.57695130355E+02  0.74150272722E+02  0.00000000000E+00 0. -1.
         -2    1    6    6    0  503  0.77209503053E+02 -0.29934057739E+03  0.10150036887E+03  0.32537426683E+03  0.00000000000E+00 0.  1.
<mgrwt>
<rscale>  0 0.18376241E+04</rscale>
<asrwt>0</asrwt>
<pdfrwt beam="1">  1        1 0.12901414E+00 0.18376241E+04</pdfrwt>
<pdfrwt beam="2">  1       -2 0.15487785E+00 0.18376241E+04</pdfrwt>
<totfact> 0.46413760E+00</totfact>
</mgrwt>
</event>
<event>
12    4  0.4207946E-008  0.3475092E+04  0.7818608E-02  0.8119718E-01
          1   -1    0    0  501    0  0.00000000000E+00  0.00000000000E+00  0.27557561022E+04  0.27557561022E+04  0.00000000000E+00 0. -1.
         -2   -1    0    0    0  501 -0.00000000000E+00 -0.00000000000E+00 -0.10955487816E+04  0.10955487816E+04  0.00000000000E+00 0.  1.
        -24    2    1    2    0    0  0.25059729892E+03 -0.12144614143E+04  0.19127481650E+04  0.22809082126E+04  0.78874576777E+02 0.  0.
        254    2    1    2    0    0 -0.25059729892E+03  0.12144614143E+04 -0.25254084440E+03  0.15703966711E+04  0.92986735262E+03 0.  0.
         23    2    4    4    0    0  0.10115109311E+03 -0.83453630085E+02  0.87176513867E+02  0.18027140146E+03  0.87760934369E+02 0.  0.
         23    2    4    4    0    0 -0.35174839203E+03  0.12979150444E+04 -0.33971735826E+03  0.13901252697E+04  0.93434405110E+02 0.  0.
          3    1    3    3  502    0  0.19865842687E+03 -0.10746001966E+04  0.16602646021E+04  0.19876391277E+04  0.00000000000E+00 0. -1.
         -4    1    3    3    0  502  0.51938872055E+02 -0.13986121771E+03  0.25248356288E+03  0.29326908493E+03  0.00000000000E+00 0.  1.
         11    1    5    5    0    0  0.13788702432E+02  0.18781557601E+02  0.12032017862E+02  0.26222979894E+02  0.00000000000E+00 0. -1.
        -11    1    5    5    0    0  0.87362390678E+02 -0.10223518769E+03  0.75144496005E+02  0.15404842156E+03  0.00000000000E+00 0.  1.
          1    1    6    6  503    0 -0.24478371077E+03  0.77201016775E+03 -0.23543731531E+03  0.84341537430E+03  0.00000000000E+00 0. -1.
         -1    1    6    6    0  503 -0.10696468126E+03  0.52590487664E+03 -0.10428004295E+03  0.54670989535E+03  0.00000000000E+00 0.  1.
<mgrwt>
<rscale>  0 0.34750915E+04</rscale>
<asrwt>0</asrwt>
<pdfrwt beam="1">  1        1 0.42396248E+00 0.34750915E+04</pdfrwt>
<pdfrwt beam="2">  1       -2 0.16854597E+00 0.34750915E+04</pdfrwt>
<totfact> 0.14071002E-01</totfact>
</mgrwt>
</event>
<event>
12    4  0.4207946E-008  0.1427781E+04  0.7818608E-02  0.8933951E-01
          1   -1    0    0  501    0  0.00000000000E+00  0.00000000000E+00  0.29422270793E+04  0.29422270793E+04  0.00000000000E+00 0. -1.
         -2   -1    0    0    0  501 -0.00000000000E+00 -0.00000000000E+00 -0.17321548859E+03  0.17321548859E+03  0.00000000000E+00 0.  1.
        -24    2    1    2    0    0 -0.33302668519E+03  0.70667057023E+02  0.14116659648E+04  0.14545338919E+04  0.83471194635E+02 0.  0.
        254    2    1    2    0    0  0.33302668519E+03 -0.70667057023E+02  0.13573456259E+04  0.16609086760E+04  0.89461157830E+03 0.  0.
         23    2    4    4    0    0  0.55188182811E+03 -0.26512520868E+03  0.69129748229E+03  0.92802367250E+03  0.92036944861E+02 0.  0.
         23    2    4    4    0    0 -0.21885514293E+03  0.19445815166E+03  0.66604814361E+03  0.73288500355E+03  0.88253909212E+02 0.  0.
          1    1    3    3  502    0 -0.22370512474E+03  0.55029144410E+02  0.11004417870E+04  0.11242972544E+04  0.00000000000E+00 0. -1.
         -2    1    3    3    0  502 -0.10932156044E+03  0.15637912613E+02  0.31122417778E+03  0.33023663746E+03  0.00000000000E+00 0.  1.
         11    1    5    5    0    0  0.31707958777E+01 -0.18744391056E+01 -0.29998239137E+01  0.47504117687E+01  0.00000000000E+00 0.  1.
        -11    1    5    5    0    0  0.54871103223E+03 -0.26325076958E+03  0.69429730620E+03  0.92327326073E+03  0.00000000000E+00 0. -1.
          1    1    6    6  503    0 -0.15450867491E+03  0.16228603237E+03  0.41374695201E+03  0.47052760516E+03  0.00000000000E+00 0. -1.
         -1    1    6    6    0  503 -0.64346468020E+02  0.32172119294E+02  0.25230119160E+03  0.26235739839E+03  0.00000000000E+00 0.  1.
<mgrwt>
<rscale>  0 0.14277805E+04</rscale>
<asrwt>0</asrwt>
<pdfrwt beam="1">  1        1 0.45265028E+00 0.14277805E+04</pdfrwt>
<pdfrwt beam="2">  1       -2 0.26648539E-01 0.14277805E+04</pdfrwt>
<totfact> 0.72326437E+00</totfact>
</mgrwt>
</event>
<event>
12    4  0.4207946E-008  0.2443941E+04  0.7818608E-02  0.8423233E-01
         -2   -1    0    0    0  501 -0.00000000000E+00  0.00000000000E+00  0.10700562049E+04  0.10700562049E+04  0.00000000000E+00 0.  1.
          1   -1    0    0  501    0  0.00000000000E+00 -0.00000000000E+00 -0.13954520570E+04  0.13954520570E+04  0.00000000000E+00 0. -1.
        -24    2    1    2    0    0 -0.40824994785E+03  0.38962376914E+00  0.84113776213E+03  0.93826303062E+03  0.78464055557E+02 0.  0.
        254    2    1    2    0    0  0.40824994785E+03 -0.38962376914E+00 -0.11665336143E+04  0.15272452313E+04  0.89722302211E+03 0.  0.
         23    2    4    4    0    0  0.27801435465E+03  0.43338702443E+03 -0.58577937632E+03  0.78489246291E+03  0.88331230515E+02 0.  0.
         23    2    4    4    0    0  0.13023559321E+03 -0.43377664820E+03 -0.58075423797E+03  0.74235276834E+03  0.93212968451E+02 0.  0.
          3    1    3    3  502    0 -0.12284793041E+02 -0.14188206176E+02  0.27791889783E+02  0.33535212424E+02  0.00000000000E+00 0. -1.
         -4    1    3    3    0  502 -0.39596515481E+03  0.14577829946E+02  0.81334587235E+03  0.90472781820E+03  0.00000000000E+00 0.  1.
         11    1    5    5    0    0  0.21265786912E+03  0.34468415044E+03 -0.40218468616E+03  0.57077408373E+03  0.00000000000E+00 0. -1.
        -11    1    5    5    0    0  0.65356485523E+02  0.88702873984E+02 -0.18359469015E+03  0.21411837919E+03  0.00000000000E+00 0.  1.
          4    1    6    6  503    0  0.12053235832E+03 -0.28727441300E+03 -0.43865186988E+03  0.53802425663E+03  0.00000000000E+00 0. -1.
         -4    1    6    6    0  503  0.97032348904E+01 -0.14650223519E+03 -0.14210236809E+03  0.20432851172E+03  0.00000000000E+00 0.  1.
<mgrwt>
<rscale>  0 0.24439412E+04</rscale>
<asrwt>0</asrwt>
<pdfrwt beam="1">  1        1 0.21468493E+00 0.24439412E+04</pdfrwt>
<pdfrwt beam="2">  1       -2 0.16462403E+00 0.24439412E+04</pdfrwt>
<totfact> 0.14131326E+00</totfact>
</mgrwt>
</event>
<event>
12    4  0.4207946E-008  0.4006807E+04  0.7818608E-02  0.8003175E-01
          1   -1    0    0  501    0  0.00000000000E+00  0.00000000000E+00  0.21240487469E+04  0.21240487469E+04  0.00000000000E+00 0. -1.
         -2   -1    0    0    0  501 -0.00000000000E+00 -0.00000000000E+00 -0.18896109628E+04  0.18896109628E+04  0.00000000000E+00 0.  1.
        -24    2    1    2    0    0  0.11660347329E+04  0.96676992799E+03 -0.10418366036E+04  0.18401105717E+04  0.79387123322E+02 0.  0.
        254    2    1    2    0    0 -0.11660347329E+04 -0.96676992799E+03  0.12762743877E+04  0.21735491380E+04  0.89507455037E+03 0.  0.
         23    2    4    4    0    0 -0.81650662490E+03 -0.10981877229E+04  0.10536175750E+04  0.17296154231E+04  0.93595801958E+02 0.  0.
         23    2    4    4    0    0 -0.34952810802E+03  0.13141779493E+03  0.22265681270E+03  0.44393371496E+03  0.89780576470E+02 0.  0.
          1    1    3    3  502    0  0.54517520277E+03  0.45068502281E+03 -0.53465419214E+03  0.88667248557E+03  0.00000000000E+00 0. -1.
         -2    1    3    3    0  502  0.62085953015E+03  0.51608490518E+03 -0.50718241142E+03  0.95343808608E+03  0.00000000000E+00 0.  1.
         11    1    5    5    0    0 -0.26744593168E+03 -0.42571798937E+03  0.41426295535E+03  0.65144219162E+03  0.00000000000E+00 0.  1.
        -11    1    5    5    0    0 -0.54906069323E+03 -0.67246973355E+03  0.63935461964E+03  0.10781732315E+04  0.00000000000E+00 0. -1.
          2    1    6    6  503    0 -0.29346238281E+03  0.71736671622E+02  0.17167412907E+03  0.34747421022E+03  0.00000000000E+00 0.  1.
         -2    1    6    6    0  503 -0.56065725212E+02  0.59681123306E+02  0.50982683638E+02  0.96459504734E+02  0.00000000000E+00 0. -1.
<mgrwt>
<rscale>  0 0.40068071E+04</rscale>
<asrwt>0</asrwt>
<pdfrwt beam="1">  1        1 0.32677673E+00 0.40068071E+04</pdfrwt>
<pdfrwt beam="2">  1       -2 0.29070938E+00 0.40068071E+04</pdfrwt>
<totfact> 0.61144688E-02</totfact>
</mgrwt>
</event>
<event>
12    4  0.4207946E-008  0.1496049E+04  0.7818608E-02  0.8887085E-01
          1   -1    0    0  501    0  0.00000000000E+00  0.00000000000E+00  0.48193625657E+03  0.48193625657E+03  0.00000000000E+00 0. -1.
         -2   -1    0    0    0  501 -0.00000000000E+00 -0.00000000000E+00 -0.11610263496E+04  0.11610263496E+04  0.00000000000E+00 0.  1.
        -24    2    1    2    0    0 -0.75550054638E+02 -0.45882939531E+03 -0.12538212927E+03  0.48870017974E+03  0.82915394103E+02 0.  0.
        254    2    1    2    0    0  0.75550054638E+02  0.45882939531E+03 -0.55370796372E+03  0.11542624264E+04  0.89972052057E+03 0.  0.
         23    2    4    4    0    0  0.29622524666E+03  0.31377074761E+03  0.92281733600E+02  0.45042090315E+03  0.90341534358E+02 0.  0.
         23    2    4    4    0    0 -0.22067519202E+03  0.14505864771E+03 -0.64598969732E+03  0.70384152324E+03  0.91381886340E+02 0.  0.
          1    1    3    3  502    0 -0.60541114437E+02 -0.41880174786E+03 -0.13632565289E+03  0.44457261969E+03  0.00000000000E+00 0. -1.
         -2    1    3    3    0  502 -0.15008940201E+02 -0.40027647458E+02  0.10943523613E+02  0.44127560051E+02  0.00000000000E+00 0.  1.
         11    1    5    5    0    0  0.15396504627E+03  0.20565988268E+03  0.20027860807E+02  0.25768651115E+03  0.00000000000E+00 0. -1.
        -11    1    5    5    0    0  0.14226020038E+03  0.10811086492E+03  0.72253872793E+02  0.19273439200E+03  0.00000000000E+00 0.  1.
          2    1    6    6  503    0  0.30573606044E+01  0.18026766114E+01  0.15875279635E+01  0.38881026048E+01  0.00000000000E+00 0.  1.
         -2    1    6    6    0  503 -0.22373255262E+03  0.14325597110E+03 -0.64757722528E+03  0.69995342064E+03  0.00000000000E+00 0. -1.
<mgrwt>
<rscale>  0 0.14960491E+04</rscale>
<asrwt>0</asrwt>
<pdfrwt beam="1">  1        1 0.74144041E-01 0.14960491E+04</pdfrwt>
<pdfrwt beam="2">  1       -2 0.17861944E+00 0.14960491E+04</pdfrwt>
<totfact> 0.73066799E+00</totfact>
</mgrwt>
</event>
<event>
12    4  0.4207946E-008  0.2820581E+04  0.7818608E-02  0.8296907E-01
          1   -1    0    0  501    0  0.00000000000E+00  0.00000000000E+00  0.29378416062E+04  0.29378416062E+04  0.00000000000E+00 0. -1.
         -2   -1    0    0    0  501 -0.00000000000E+00 -0.00000000000E+00 -0.67700022189E+03  0.67700022189E+03  0.00000000000E+00 0.  1.
        -24    2    1    2    0    0 -0.74315196030E+03 -0.78914414282E+03  0.18474023152E+04  0.21434831618E+04  0.81249224223E+02 0.  0.
        254    2    1    2    0    0  0.74315196030E+03  0.78914414282E+03  0.41343906908E+03  0.14713586663E+04  0.90495367104E+03 0.  0.
         23    2    4    4    0    0  0.72406352538E+03  0.12370252848E+03  0.20904690740E+03  0.76906725386E+03  0.90518103834E+02 0.  0.
         23    2    4    4    0    0  0.19088434922E+02  0.66544161434E+03  0.20439216168E+03  0.70229141242E+03  0.90885432037E+02 0.  0.
          3    1    3    3  502    0 -0.56079514285E+03 -0.61255549339E+03  0.14763579422E+04  0.16939150505E+04  0.00000000000E+00 0. -1.
         -4    1    3    3    0  502 -0.18235681745E+03 -0.17658864943E+03  0.37104437296E+03  0.44956811128E+03  0.00000000000E+00 0.  1.
         11    1    5    5    0    0  0.65228476961E+03  0.13756221460E+03  0.19560211710E+03  0.69473662043E+03  0.00000000000E+00 0. -1.
        -11    1    5    5    0    0  0.71778755771E+02 -0.13859686123E+02  0.13444790297E+02  0.74330633426E+02  0.00000000000E+00 0.  1.
          3    1    6    6  503    0  0.53152443771E+02  0.32448154060E+03  0.87574604647E+02  0.34026866422E+03  0.00000000000E+00 0. -1.
         -3    1    6    6    0  503 -0.34064008849E+02  0.34096007374E+03  0.11681755704E+03  0.36202274820E+03  0.00000000000E+00 0.  1.
<mgrwt>
<rscale>  0 0.28205811E+04</rscale>
<asrwt>0</asrwt>
<pdfrwt beam="1">  1        1 0.45197562E+00 0.28205811E+04</pdfrwt>
<pdfrwt beam="2">  1       -2 0.10415388E+00 0.28205811E+04</pdfrwt>
<totfact> 0.37781437E-01</totfact>
</mgrwt>
</event>
<event>
12    4  0.4207946E-008  0.2557041E+04  0.7818608E-02  0.8382942E-01
          1   -1    0    0  501    0  0.00000000000E+00  0.00000000000E+00  0.15883348397E+04  0.15883348397E+04  0.00000000000E+00 0. -1.
         -2   -1    0    0    0  501 -0.00000000000E+00 -0.00000000000E+00 -0.10291373713E+04  0.10291373713E+04  0.00000000000E+00 0.  1.
        -24    2    1    2    0    0 -0.43616710915E+03  0.72065759680E+03 -0.50745601672E+03  0.98655735531E+03  0.78706336998E+02 0.  0.
        254    2    1    2    0    0  0.43616710915E+03 -0.72065759680E+03  0.10666534851E+04  0.16309148556E+04  0.90141249717E+03 0.  0.
         23    2    4    4    0    0  0.57600944815E+03 -0.81551310339E+03  0.71836774011E+03  0.12329524232E+04  0.85269934852E+02 0.  0.
         23    2    4    4    0    0 -0.13984233900E+03  0.94855506593E+02  0.34828574504E+03  0.39796243240E+03  0.92291334895E+02 0.  0.
          1    1    3    3  502    0  0.30071082607E+01  0.87183881321E+01 -0.85532414403E+01  0.12578192670E+02  0.00000000000E+00 0. -1.
         -2    1    3    3    0  502 -0.43917421742E+03  0.71193920867E+03 -0.49890277528E+03  0.97397916264E+03  0.00000000000E+00 0.  1.
         11    1    5    5    0    0  0.52664443761E+03 -0.70301180444E+03  0.61354817800E+03  0.10714575715E+04  0.00000000000E+00 0. -1.
        -11    1    5    5    0    0  0.49365010543E+02 -0.11250129895E+03  0.10481956211E+03  0.16149485172E+03  0.00000000000E+00 0.  1.
          3    1    6    6  503    0 -0.10674389930E+03  0.11240682686E+03  0.27649802795E+03  0.31698693068E+03  0.00000000000E+00 0. -1.
         -3    1    6    6    0  503 -0.33098439701E+02 -0.17551320268E+02  0.71787717088E+02  0.80975501718E+02  0.00000000000E+00 0.  1.
<mgrwt>
<rscale>  0 0.25570411E+04</rscale>
<asrwt>0</asrwt>
<pdfrwt beam="1">  1        1 0.24435921E+00 0.25570411E+04</pdfrwt>
<pdfrwt beam="2">  1       -2 0.15832883E+00 0.25570411E+04</pdfrwt>
<totfact> 0.11439213E+00</totfact>
</mgrwt>
</event>
<event>
12    4  0.4207946E-008  0.1676857E+04  0.7818608E-02  0.8774675E-01
         -2   -1    0    0    0  501 -0.00000000000E+00  0.00000000000E+00  0.45608945693E+03  0.45608945693E+03  0.00000000000E+00 0.  1.
          1   -1    0    0  501    0  0.00000000000E+00 -0.00000000000E+00 -0.15412813308E+04  0.15412813308E+04  0.00000000000E+00 0. -1.
        -24    2    1    2    0    0 -0.93842492929E+02 -0.39134560589E+03  0.13278635249E+03  0.43052643684E+03  0.75914429978E+02 0.  0.
        254    2    1    2    0    0  0.93842492929E+02  0.39134560589E+03 -0.12179782263E+04  0.15668443509E+04  0.89976244827E+03 0.  0.
         23    2    4    4    0    0 -0.29858179399E+03  0.37250648384E+03 -0.99095300599E+03  0.11039064096E+04  0.93323806038E+02 0.  0.
         23    2    4    4    0    0  0.39242428692E+03  0.18839122049E+02 -0.22702522035E+03  0.46293794133E+03  0.91757034368E+02 0.  0.
          3    1    3    3  502    0  0.81613914130E+01 -0.32839576508E+02  0.26363671893E+02  0.42896261967E+02  0.00000000000E+00 0. -1.
         -4    1    3    3    0  502 -0.10200388434E+03 -0.35850602938E+03  0.10642268059E+03  0.38763017487E+03  0.00000000000E+00 0.  1.
         11    1    5    5    0    0 -0.14700225873E+03  0.14103998100E+03 -0.50777466821E+03  0.54711703865E+03  0.00000000000E+00 0. -1.
        -11    1    5    5    0    0 -0.15157953526E+03  0.23146650285E+03 -0.48317833778E+03  0.55678937090E+03  0.00000000000E+00 0.  1.
          1    1    6    6  503    0  0.17638228587E+03  0.38832694354E+02 -0.64226454568E+02  0.19168653157E+03  0.00000000000E+00 0. -1.
         -1    1    6    6    0  503  0.21604200105E+03 -0.19993572305E+02 -0.16279876579E+03  0.27125140975E+03  0.00000000000E+00 0.  1.
<mgrwt>
<rscale>  0 0.16768568E+04</rscale>
<asrwt>0</asrwt>
<pdfrwt beam="1">  1        1 0.23712021E+00 0.16768568E+04</pdfrwt>
<pdfrwt beam="2">  1       -2 0.70167608E-01 0.16768568E+04</pdfrwt>
<totfact> 0.94768632E+00</totfact>
</mgrwt>
</event>
<event>
12    4  0.4207946E-008  0.2663087E+04  0.7818608E-02  0.8347082E-01
         -2   -1    0    0    0  501 -0.00000000000E+00  0.00000000000E+00  0.51700846461E+03  0.51700846461E+03  0.00000000000E+00 0.  1.
          1   -1    0    0  501    0  0.00000000000E+00 -0.00000000000E+00 -0.34293595487E+04  0.34293595487E+04  0.00000000000E+00 0. -1.
        -24    2    1    2    0    0 -0.70821762300E+03  0.68788974675E+02 -0.27054435438E+04  0.27985978409E+04  0.80131030849E+02 0.  0.
        254    2    1    2    0    0  0.70821762300E+03 -0.68788974675E+02 -0.20690754027E+03  0.11477701724E+04  0.87650528450E+03 0.  0.
         23    2    4    4    0    0  0.22702326709E+03  0.85328680102E+02  0.31971785962E+03  0.41155361962E+03  0.91303475386E+02 0.  0.
         23    2    4    4    0    0  0.48119435591E+03 -0.15411765478E+03 -0.52662539989E+03  0.73621655273E+03  0.96851644393E+02 0.  0.
          1    1    3    3  502    0 -0.66855750189E+03  0.45706882626E+02 -0.25244757251E+04  0.26119027430E+04  0.00000000000E+00 0. -1.
         -2    1    3    3    0  502 -0.39660121109E+02  0.23082092050E+02 -0.18096781867E+03  0.18669509789E+03  0.00000000000E+00 0.  1.
         11    1    5    5    0    0  0.22766877538E+03  0.81019706098E+02  0.32481491180E+03  0.40484810854E+03  0.00000000000E+00 0.  1.
        -11    1    5    5    0    0 -0.64550828730E+00  0.43089740039E+01 -0.50970521849E+01  0.67055110835E+01  0.00000000000E+00 0. -1.
          3    1    6    6  503    0  0.68036751230E+02 -0.41438758753E+02 -0.13027719713E+03  0.15270336715E+03  0.00000000000E+00 0. -1.
         -3    1    6    6    0  503  0.41315760468E+03 -0.11267889602E+03 -0.39634820276E+03  0.58351318558E+03  0.00000000000E+00 0.  1.
<mgrwt>
<rscale>  0 0.26630869E+04</rscale>
<asrwt>0</asrwt>
<pdfrwt beam="1">  1        1 0.52759378E+00 0.26630869E+04</pdfrwt>
<pdfrwt beam="2">  1       -2 0.79539763E-01 0.26630869E+04</pdfrwt>
<totfact> 0.30631380E-01</totfact>
</mgrwt>
</event>
<event>
12    4  0.4207946E-008  0.2414466E+04  0.7818608E-02  0.8434108E-01
         -2   -1    0    0    0  501 -0.00000000000E+00  0.00000000000E+00  0.10136424283E+04  0.10136424283E+04  0.00000000000E+00 0.  1.
          1   -1    0    0  501    0  0.00000000000E+00 -0.00000000000E+00 -0.14377963838E+04  0.14377963838E+04  0.00000000000E+00 0. -1.
        -24    2    1    2    0    0 -0.89431099031E+02 -0.21149771148E+03 -0.12121719119E+04  0.12363281237E+04  0.80107940092E+02 0.  0.
        254    2    1    2    0    0  0.89431099031E+02  0.21149771148E+03  0.78801795633E+03  0.12151106884E+04  0.89598687606E+03 0.  0.
         23    2    4    4    0    0  0.84511032521E+02  0.33773725455E+03  0.93441986293E+03  0.10014832829E+04  0.92842436663E+02 0.  0.
         23    2    4    4    0    0  0.49200665101E+01 -0.12623954307E+03 -0.14640190659E+03  0.21362740544E+03  0.90788329722E+02 0.  0.
          1    1    3    3  502    0 -0.10408669900E+03 -0.19480802353E+03 -0.10898281739E+04  0.11119845573E+04  0.00000000000E+00 0. -1.
         -2    1    3    3    0  502  0.14655599967E+02 -0.16689687949E+02 -0.12234373794E+03  0.12434356640E+03  0.00000000000E+00 0.  1.
         11    1    5    5    0    0  0.10161804296E+03  0.23471965432E+03  0.67492674905E+03  0.72176565405E+03  0.00000000000E+00 0. -1.
        -11    1    5    5    0    0 -0.17107010440E+02  0.10301760023E+03  0.25949311387E+03  0.27971762889E+03  0.00000000000E+00 0.  1.
          1    1    6    6  503    0  0.36552070484E+02 -0.77692132745E+02 -0.45250322844E+02  0.97055206272E+02  0.00000000000E+00 0. -1.
         -1    1    6    6    0  503 -0.31632003973E+02 -0.48547410322E+02 -0.10115158375E+03  0.11657219917E+03  0.00000000000E+00 0.  1.
<mgrwt>
<rscale>  0 0.24144659E+04</rscale>
<asrwt>0</asrwt>
<pdfrwt beam="1">  1        1 0.22119944E+00 0.24144659E+04</pdfrwt>
<pdfrwt beam="2">  1       -2 0.15594499E+00 0.24144659E+04</pdfrwt>
<totfact> 0.15338073E+00</totfact>
</mgrwt>
</event>
<event>
12    4  0.4207946E-008  0.1755480E+04  0.7818608E-02  0.8730340E-01
          1   -1    0    0  501    0  0.00000000000E+00  0.00000000000E+00  0.12911695457E+04  0.12911695457E+04  0.00000000000E+00 0. -1.
         -2   -1    0    0    0  501 -0.00000000000E+00 -0.00000000000E+00 -0.59668949145E+03  0.59668949145E+03  0.00000000000E+00 0.  1.
        -24    2    1    2    0    0  0.27956090554E+03  0.19008421685E+03  0.84706778030E+03  0.91573297427E+03  0.82199430279E+02 0.  0.
        254    2    1    2    0    0 -0.27956090554E+03 -0.19008421685E+03 -0.15258772600E+03  0.97212606292E+03  0.89858764664E+03 0.  0.
         23    2    4    4    0    0 -0.18958307539E+03 -0.52302994809E+03  0.42862485706E+02  0.56542536735E+03  0.91469034604E+02 0.  0.
         23    2    4    4    0    0 -0.89977830150E+02  0.33294573124E+03 -0.19545021171E+03  0.40670069557E+03  0.90861436556E+02 0.  0.
          1    1    3    3  502    0  0.27788793286E+03  0.19465940768E+03  0.84474904543E+03  0.91033781531E+03  0.00000000000E+00 0. -1.
         -2    1    3    3    0  502  0.16729726800E+01 -0.45751908397E+01  0.23187348767E+01  0.53951589630E+01  0.00000000000E+00 0.  1.
         11    1    5    5    0    0 -0.40066998825E+02 -0.17727283973E+03  0.50561638261E+02  0.18864650372E+03  0.00000000000E+00 0.  1.
        -11    1    5    5    0    0 -0.14951607656E+03 -0.34575710835E+03 -0.76991525557E+01  0.37677886363E+03  0.00000000000E+00 0. -1.
          3    1    6    6  503    0  0.16666063766E+02  0.36893481397E+02 -0.10996606219E+02  0.41950113223E+02  0.00000000000E+00 0. -1.
         -3    1    6    6    0  503 -0.10664389392E+03  0.29605224984E+03 -0.18445360549E+03  0.36475058235E+03  0.00000000000E+00 0.  1.
<mgrwt>
<rscale>  0 0.17554798E+04</rscale>
<asrwt>0</asrwt>
<pdfrwt beam="1">  1        1 0.19864147E+00 0.17554798E+04</pdfrwt>
<pdfrwt beam="2">  1       -2 0.91798384E-01 0.17554798E+04</pdfrwt>
<totfact> 0.76991718E+00</totfact>
</mgrwt>
</event>
<event>
12    4  0.4207946E-008  0.2248242E+04  0.7818608E-02  0.8498613E-01
          1   -1    0    0  501    0  0.00000000000E+00  0.00000000000E+00  0.19160411153E+04  0.19160411153E+04  0.00000000000E+00 0. -1.
         -2   -1    0    0    0  501 -0.00000000000E+00 -0.00000000000E+00 -0.65950962261E+03  0.65950962261E+03  0.00000000000E+00 0.  1.
        -24    2    1    2    0    0  0.56664480121E+03 -0.55849856240E+03  0.11147869404E+04  0.13719019464E+04  0.79737400188E+02 0.  0.
        254    2    1    2    0    0 -0.56664480121E+03  0.55849856240E+03  0.14174455231E+03  0.12036487916E+04  0.89200443967E+03 0.  0.
         23    2    4    4    0    0 -0.12627166405E+02  0.56956492575E+03  0.25431907228E+03  0.63058350186E+03  0.91617205350E+02 0.  0.
         23    2    4    4    0    0 -0.55401763480E+03 -0.11066363346E+02 -0.11257451997E+03  0.57306528971E+03  0.93127867184E+02 0.  0.
          1    1    3    3  502    0  0.62983089613E+02 -0.31481428395E+02  0.10719673060E+03  0.12825400174E+03  0.00000000000E+00 0. -1.
         -2    1    3    3    0  502  0.50366171160E+03 -0.52701713401E+03  0.10075902098E+04  0.12436479446E+04  0.00000000000E+00 0.  1.
         11    1    5    5    0    0  0.96961432751E+01  0.41889685544E+02  0.45642137463E+02  0.62705387820E+02  0.00000000000E+00 0. -1.
        -11    1    5    5    0    0 -0.22323309680E+02  0.52767524020E+03  0.20867693482E+03  0.56787811404E+03  0.00000000000E+00 0.  1.
          2    1    6    6  503    0 -0.53230667129E+02  0.26682099515E+02 -0.16006762000E+02  0.61657560666E+02  0.00000000000E+00 0. -1.
         -2    1    6    6    0  503 -0.50078696768E+03 -0.37748462860E+02 -0.96567757974E+02  0.51140772904E+03  0.00000000000E+00 0.  1.
<mgrwt>
<rscale>  0 0.22482416E+04</rscale>
<asrwt>0</asrwt>
<pdfrwt beam="1">  1        1 0.29477555E+00 0.22482416E+04</pdfrwt>
<pdfrwt beam="2">  1       -2 0.10146302E+00 0.22482416E+04</pdfrwt>
<totfact> 0.21622195E+00</totfact>
</mgrwt>
</event>
<event>
12    4  0.4207946E-008  0.1925674E+04  0.7818608E-02  0.8642181E-01
          1   -1    0    0  501    0  0.00000000000E+00  0.00000000000E+00  0.12145126801E+04  0.12145126801E+04  0.00000000000E+00 0. -1.
         -2   -1    0    0    0  501 -0.00000000000E+00 -0.00000000000E+00 -0.76331430119E+03  0.76331430119E+03  0.00000000000E+00 0.  1.
        -24    2    1    2    0    0  0.80778079507E+02 -0.29144371777E+03 -0.53215803822E+03  0.61713362442E+03  0.78722258540E+02 0.  0.
        254    2    1    2    0    0 -0.80778079507E+02  0.29144371777E+03  0.98335641716E+03  0.13606933569E+04  0.89052345819E+03 0.  0.
         23    2    4    4    0    0  0.22706464873E+03 -0.16414954501E+03  0.89938206362E+02  0.30770962842E+03  0.89960583761E+02 0.  0.
         23    2    4    4    0    0 -0.30784272824E+03  0.45559326277E+03  0.89341821080E+03  0.10529837285E+04  0.90808956780E+02 0.  0.
          1    1    3    3  502    0  0.41520413122E+01 -0.36316605158E+02 -0.12773026345E+03  0.13285765111E+03  0.00000000000E+00 0. -1.
         -2    1    3    3    0  502  0.76626038195E+02 -0.25512711261E+03 -0.40442777477E+03  0.48427597331E+03  0.00000000000E+00 0.  1.
         11    1    5    5    0    0  0.19749006277E+03 -0.11598494592E+03  0.10067257786E+03  0.25017953654E+03  0.00000000000E+00 0. -1.
        -11    1    5    5    0    0  0.29574585964E+02 -0.48164599087E+02 -0.10734371498E+02  0.57530091879E+02  0.00000000000E+00 0.  1.
          3    1    6    6  503    0 -0.91084237467E+02  0.14509165708E+03  0.20379441224E+03  0.26623314919E+03  0.00000000000E+00 0. -1.
         -3    1    6    6    0  503 -0.21675849077E+03  0.31050160569E+03  0.68962379857E+03  0.78675057929E+03  0.00000000000E+00 0.  1.
<mgrwt>
<rscale>  0 0.19256738E+04</rscale>
<asrwt>0</asrwt>
<pdfrwt beam="1">  1        1 0.18684810E+00 0.19256738E+04</pdfrwt>
<pdfrwt beam="2">  1       -2 0.11743297E+00 0.19256738E+04</pdfrwt>
<totfact> 0.47838217E+00</totfact>
</mgrwt>
</event>
<event>
12    4  0.4207946E-008  0.2702058E+04  0.7818608E-02  0.8334337E-01
         -2   -1    0    0    0  501 -0.00000000000E+00  0.00000000000E+00  0.18059906144E+04  0.18059906144E+04  0.00000000000E+00 0.  1.
          1   -1    0    0  501    0  0.00000000000E+00 -0.00000000000E+00 -0.10106806020E+04  0.10106806020E+04  0.00000000000E+00 0. -1.
        -24    2    1    2    0    0  0.19224402689E+03 -0.88288113583E+03  0.11749598487E+04  0.14844610668E+04  0.81591339997E+02 0.  0.
        254    2    1    2    0    0 -0.19224402689E+03  0.88288113583E+03 -0.37964983636E+03  0.13322101497E+04  0.90233753042E+03 0.  0.
         23    2    4    4    0    0  0.28440619878E+03  0.48473225468E+03 -0.41372790988E+03  0.70335801703E+03  0.87689634916E+02 0.  0.
         23    2    4    4    0    0 -0.47665022567E+03  0.39814888115E+03  0.34078073518E+02  0.62885213266E+03  0.92605185939E+02 0.  0.
          3    1    3    3  502    0  0.72685658976E+02 -0.52205276252E+03  0.68922743056E+03  0.86767317747E+03  0.00000000000E+00 0. -1.
         -4    1    3    3    0  502  0.11955836791E+03 -0.36082837331E+03  0.48573241816E+03  0.61678788929E+03  0.00000000000E+00 0.  1.
         11    1    5    5    0    0  0.13829551665E+03  0.23273233146E+03 -0.14532250586E+03  0.30725985541E+03  0.00000000000E+00 0. -1.
        -11    1    5    5    0    0  0.14611068213E+03  0.25199992322E+03 -0.26840540402E+03  0.39609816162E+03  0.00000000000E+00 0.  1.
          1    1    6    6  503    0 -0.18870597343E+03  0.16603312101E+03 -0.31218554401E+02  0.25328154260E+03  0.00000000000E+00 0. -1.
         -1    1    6    6    0  503 -0.28794425224E+03  0.23211576014E+03  0.65296627919E+02  0.37557059006E+03  0.00000000000E+00 0.  1.
<mgrwt>
<rscale>  0 0.27020582E+04</rscale>
<asrwt>0</asrwt>
<pdfrwt beam="1">  1        1 0.15548932E+00 0.27020582E+04</pdfrwt>
<pdfrwt beam="2">  1       -2 0.27784471E+00 0.27020582E+04</pdfrwt>
<totfact> 0.49343363E-01</totfact>
</mgrwt>
</event>
<event>
12    4  0.4207946E-008  0.1494482E+04  0.7818608E-02  0.8888131E-01
          1   -1    0    0  501    0  0.00000000000E+00  0.00000000000E+00  0.58081571232E+03  0.58081571232E+03  0.00000000000E+00 0. -1.
         -2   -1    0    0    0  501 -0.00000000000E+00 -0.00000000000E+00 -0.96135330575E+03  0.96135330575E+03  0.00000000000E+00 0.  1.
        -24    2    1    2    0    0  0.19676369897E+03 -0.16034871017E+03  0.29360682713E+03  0.39601670382E+03  0.78718477370E+02 0.  0.
        254    2    1    2    0    0 -0.19676369897E+03  0.16034871017E+03 -0.67414442056E+03  0.11461523142E+04  0.89149692405E+03 0.  0.
         23    2    4    4    0    0 -0.42863410177E+03  0.38073716383E+03 -0.33615113059E+03  0.67022324537E+03  0.86681225828E+02 0.  0.
         23    2    4    4    0    0  0.23187040280E+03 -0.22038845366E+03 -0.33799328997E+03  0.47592906888E+03  0.99669756401E+02 0.  0.
          3    1    3    3  502    0  0.15283295867E+03 -0.14914938572E+03  0.27194691226E+03  0.34577243327E+03  0.00000000000E+00 0. -1.
         -4    1    3    3    0  502  0.43930740297E+02 -0.11199324452E+02  0.21659914866E+02  0.50244270551E+02  0.00000000000E+00 0.  1.
         11    1    5    5    0    0 -0.36704304648E+03  0.30267053872E+03 -0.24405774471E+03  0.53469078516E+03  0.00000000000E+00 0.  1.
        -11    1    5    5    0    0 -0.61591055289E+02  0.78066625109E+02 -0.92093385878E+02  0.13553246021E+03  0.00000000000E+00 0. -1.
          4    1    6    6  503    0  0.18896141660E+03 -0.12395509456E+03 -0.19696785461E+03  0.29977928244E+03  0.00000000000E+00 0. -1.
         -4    1    6    6    0  503  0.42908986194E+02 -0.96433359104E+02 -0.14102543536E+03  0.17614978644E+03  0.00000000000E+00 0.  1.
<mgrwt>
<rscale>  0 0.14944820E+04</rscale>
<asrwt>0</asrwt>
<pdfrwt beam="1">  1        1 0.89356265E-01 0.14944820E+04</pdfrwt>
<pdfrwt beam="2">  1       -2 0.14790051E+00 0.14944820E+04</pdfrwt>
<totfact> 0.94463376E+00</totfact>
</mgrwt>
</event>
<event>
12    4  0.4207946E-008  0.1443751E+04  0.7818608E-02  0.8922744E-01
          1   -1    0    0  501    0  0.00000000000E+00  0.00000000000E+00  0.96119482063E+03  0.96119482063E+03  0.00000000000E+00 0. -1.
         -2   -1    0    0    0  501 -0.00000000000E+00 -0.00000000000E+00 -0.54214194884E+03  0.54214194884E+03  0.00000000000E+00 0.  1.
        -24    2    1    2    0    0  0.89024791062E+02 -0.28299137435E+03  0.42672364949E+03  0.52523125898E+03  0.75929381649E+02 0.  0.
        254    2    1    2    0    0 -0.89024791062E+02  0.28299137435E+03 -0.76707777040E+01  0.97810551048E+03  0.93199893639E+03 0.  0.
         23    2    4    4    0    0  0.36978601509E+03  0.26754396812E+03  0.14091198820E+03  0.48657406432E+03  0.92610257654E+02 0.  0.
         23    2    4    4    0    0 -0.45881080615E+03  0.15447406227E+02 -0.14858276590E+03  0.49153144616E+03  0.93703500707E+02 0.  0.
          3    1    3    3  502    0  0.77467576461E+02 -0.16763353065E+03  0.21155231078E+03  0.28081418446E+03  0.00000000000E+00 0. -1.
         -4    1    3    3    0  502  0.11557214601E+02 -0.11535784370E+03  0.21517133871E+03  0.24441707452E+03  0.00000000000E+00 0.  1.
         11    1    5    5    0    0  0.35790851486E+03  0.23751651838E+03  0.14641541357E+03  0.45381722625E+03  0.00000000000E+00 0.  1.
        -11    1    5    5    0    0  0.11877500228E+02  0.30027449741E+02 -0.55034253730E+01  0.32756838071E+02  0.00000000000E+00 0. -1.
          3    1    6    6  503    0 -0.43703103487E+01  0.13047510232E+02 -0.75950110544E+01  0.15716912188E+02  0.00000000000E+00 0. -1.
         -3    1    6    6    0  503 -0.45444049580E+03  0.23998959950E+01 -0.14098775485E+03  0.47581453397E+03  0.00000000000E+00 0.  1.
<mgrwt>
<rscale>  0 0.14437507E+04</rscale>
<asrwt>0</asrwt>
<pdfrwt beam="1">  1        1 0.14787613E+00 0.14437507E+04</pdfrwt>
<pdfrwt beam="2">  1       -2 0.83406454E-01 0.14437507E+04</pdfrwt>
<totfact> 0.17398371E+01</totfact>
</mgrwt>
</event>
<event>
12    4  0.4207946E-008  0.1163448E+04  0.7818608E-02  0.9145466E-01
         -2   -1    0    0    0  501 -0.00000000000E+00  0.00000000000E+00  0.22440185946E+04  0.22440185946E+04  0.00000000000E+00 0.  1.
          1   -1    0    0  501    0  0.00000000000E+00 -0.00000000000E+00 -0.15080206350E+03  0.15080206350E+03  0.00000000000E+00 0. -1.
        -24    2    1    2    0    0 -0.19407876807E+03  0.10297577740E+03  0.33574680336E+03  0.40892696959E+03  0.78897221382E+02 0.  0.
        254    2    1    2    0    0  0.19407876807E+03 -0.10297577740E+03  0.17574697277E+04  0.19858936885E+04  0.89822231056E+03 0.  0.
         23    2    4    4    0    0  0.50862078538E+03 -0.66471068452E+02  0.67046018941E+03  0.84910044915E+03  0.91330175193E+02 0.  0.
         23    2    4    4    0    0 -0.31454201731E+03 -0.36504708947E+02  0.10870095383E+04  0.11367932393E+04  0.10217562430E+03 0.  0.
          3    1    3    3  502    0 -0.69768385093E+02  0.41773883721E+02  0.62517205969E+02  0.10257234501E+03  0.00000000000E+00 0. -1.
         -4    1    3    3    0  502 -0.12431038298E+03  0.61201893678E+02  0.27322959739E+03  0.30635462457E+03  0.00000000000E+00 0.  1.
         11    1    5    5    0    0  0.39777140238E+03 -0.65527696371E+02  0.46322419458E+03  0.61407867736E+03  0.00000000000E+00 0. -1.
        -11    1    5    5    0    0  0.11084938300E+03 -0.94337208146E+00  0.20723599483E+03  0.23502177179E+03  0.00000000000E+00 0.  1.
          2    1    6    6  503    0 -0.21842722353E+03 -0.21902820355E+02  0.89558204875E+03  0.92209402534E+03  0.00000000000E+00 0. -1.
         -2    1    6    6    0  503 -0.96114793779E+02 -0.14601888592E+02  0.19142748955E+03  0.21469921399E+03  0.00000000000E+00 0.  1.
<mgrwt>
<rscale>  0 0.11634477E+04</rscale>
<asrwt>0</asrwt>
<pdfrwt beam="1">  1        1 0.23200319E-01 0.11634477E+04</pdfrwt>
<pdfrwt beam="2">  1       -2 0.34523361E+00 0.11634477E+04</pdfrwt>
<totfact> 0.31523473E+00</totfact>
</mgrwt>
</event>
<event>
12    4  0.4207946E-008  0.1444864E+04  0.7818608E-02  0.8921969E-01
          1   -1    0    0  501    0  0.00000000000E+00  0.00000000000E+00  0.22549687353E+04  0.22549687353E+04  0.00000000000E+00 0. -1.
         -2   -1    0    0    0  501 -0.00000000000E+00 -0.00000000000E+00 -0.23144806656E+03  0.23144806656E+03  0.00000000000E+00 0.  1.
        -24    2    1    2    0    0 -0.15783354311E+03 -0.38309981902E+03  0.77543715904E+03  0.88282156164E+03  0.79963888227E+02 0.  0.
        254    2    1    2    0    0  0.15783354311E+03  0.38309981902E+03  0.12480835097E+04  0.16035952402E+04  0.91767551380E+03 0.  0.
         23    2    4    4    0    0 -0.34230756816E+03  0.29985790544E+02  0.27783027697E+03  0.45271899403E+03  0.98443922622E+02 0.  0.
         23    2    4    4    0    0  0.50014111126E+03  0.35311402847E+03  0.97025323275E+03  0.11508762462E+04  0.91072224913E+02 0.  0.
          3    1    3    3  502    0 -0.80217144679E+02 -0.20130545279E+03  0.32149291791E+03  0.38770655384E+03  0.00000000000E+00 0. -1.
         -4    1    3    3    0  502 -0.77616398428E+02 -0.18179436622E+03  0.45394424113E+03  0.49511500780E+03  0.00000000000E+00 0.  1.
         11    1    5    5    0    0 -0.29681184319E+03  0.22541251841E+01  0.19821419916E+03  0.35691906657E+03  0.00000000000E+00 0.  1.
        -11    1    5    5    0    0 -0.45495724972E+02  0.27731665360E+02  0.79616077812E+02  0.95799927456E+02  0.00000000000E+00 0. -1.
          1    1    6    6  503    0  0.14646118503E+03  0.10389169626E+03  0.36617617946E+03  0.40783496377E+03  0.00000000000E+00 0. -1.
         -1    1    6    6    0  503  0.35367992624E+03  0.24922233221E+03  0.60407705329E+03  0.74304128244E+03  0.00000000000E+00 0.  1.
<mgrwt>
<rscale>  0 0.14448642E+04</rscale>
<asrwt>0</asrwt>
<pdfrwt beam="1">  1        1 0.34691825E+00 0.14448642E+04</pdfrwt>
<pdfrwt beam="2">  1       -2 0.35607396E-01 0.14448642E+04</pdfrwt>
<totfact> 0.12656400E+01</totfact>
</mgrwt>
</event>
<event>
12    4  0.4207946E-008  0.1605328E+04  0.7818608E-02  0.8817281E-01
          1   -1    0    0  501    0  0.00000000000E+00  0.00000000000E+00  0.12874859681E+04  0.12874859681E+04  0.00000000000E+00 0. -1.
         -2   -1    0    0    0  501 -0.00000000000E+00 -0.00000000000E+00 -0.50040897702E+03  0.50040897702E+03  0.00000000000E+00 0.  1.
        -24    2    1    2    0    0 -0.67333015944E+02  0.11584500834E+02  0.87302309112E+03  0.88001435024E+03  0.87109145898E+02 0.  0.
        254    2    1    2    0    0  0.67333015944E+02 -0.11584500834E+02 -0.85946100009E+02  0.90788059490E+03  0.90121723619E+03 0.  0.
         23    2    4    4    0    0 -0.81337445652E+02 -0.34889988885E+03  0.21084699774E+03  0.42551725025E+03  0.90893131226E+02 0.  0.
         23    2    4    4    0    0  0.14867046160E+03  0.33731538801E+03 -0.29679309775E+03  0.48236334465E+03  0.93293495221E+02 0.  0.
          1    1    3    3  502    0 -0.22985513952E+01  0.32119433260E+02  0.48309634859E+03  0.48416838327E+03  0.00000000000E+00 0. -1.
         -2    1    3    3    0  502 -0.65034464549E+02 -0.20534932427E+02  0.38992674253E+03  0.39584596697E+03  0.00000000000E+00 0.  1.
         11    1    5    5    0    0 -0.16327631141E+02 -0.21114749960E+02 -0.57341457393E+01  0.27300267982E+02  0.00000000000E+00 0. -1.
        -11    1    5    5    0    0 -0.65009814511E+02 -0.32778513889E+03  0.21658114348E+03  0.39821698227E+03  0.00000000000E+00 0.  1.
          3    1    6    6  503    0  0.10011774749E+03  0.15889634783E+03 -0.10173833396E+03  0.21359377639E+03  0.00000000000E+00 0. -1.
         -3    1    6    6    0  503  0.48552714105E+02  0.17841904019E+03 -0.19505476378E+03  0.26876956826E+03  0.00000000000E+00 0.  1.
<mgrwt>
<rscale>  0 0.16053280E+04</rscale>
<asrwt>0</asrwt>
<pdfrwt beam="1">  1        1 0.19807476E+00 0.16053280E+04</pdfrwt>
<pdfrwt beam="2">  1       -2 0.76985997E-01 0.16053280E+04</pdfrwt>
<totfact> 0.11704940E+01</totfact>
</mgrwt>
</event>
<event>
12    4  0.4207946E-008  0.1712542E+04  0.7818608E-02  0.8754243E-01
          1   -1    0    0  501    0  0.00000000000E+00  0.00000000000E+00  0.15881702450E+04  0.15881702450E+04  0.00000000000E+00 0. -1.
         -2   -1    0    0    0  501 -0.00000000000E+00 -0.00000000000E+00 -0.46166362917E+03  0.46166362917E+03  0.00000000000E+00 0.  1.
        -24    2    1    2    0    0 -0.29718636284E+03 -0.13139788062E+03  0.10915627275E+04  0.11413344899E+04  0.74498942525E+02 0.  0.
        254    2    1    2    0    0  0.29718636284E+03  0.13139788062E+03  0.34943888381E+02  0.90849938433E+03  0.84768208587E+03 0.  0.
         23    2    4    4    0    0  0.35427260819E+03  0.16519439747E+03  0.37550933706E+03  0.54977510883E+03  0.91908314135E+02 0.  0.
         23    2    4    4    0    0 -0.57086245351E+02 -0.33796516855E+02 -0.34056544868E+03  0.35872427550E+03  0.91089170824E+02 0.  0.
          3    1    3    3  502    0 -0.17631191089E+03 -0.96019847239E+02  0.55520767966E+03  0.59039077613E+03  0.00000000000E+00 0. -1.
         -4    1    3    3    0  502 -0.12087445195E+03 -0.35378033379E+02  0.53635504781E+03  0.55094371373E+03  0.00000000000E+00 0.  1.
         11    1    5    5    0    0  0.54260896348E+02  0.53726738896E+02  0.40413325530E+02  0.86394700216E+02  0.00000000000E+00 0. -1.
        -11    1    5    5    0    0  0.30001171184E+03  0.11146765858E+03  0.33509601153E+03  0.46338040862E+03  0.00000000000E+00 0.  1.
          1    1    6    6  503    0 -0.13695888571E+02  0.30956882363E+02 -0.83487960200E+02  0.90089652168E+02  0.00000000000E+00 0. -1.
         -1    1    6    6    0  503 -0.43390356780E+02 -0.64753399218E+02 -0.25707748848E+03  0.26863462333E+03  0.00000000000E+00 0.  1.
<mgrwt>
<rscale>  0 0.17125425E+04</rscale>
<asrwt>0</asrwt>
<pdfrwt beam="1">  1        1 0.24433388E+00 0.17125425E+04</pdfrwt>
<pdfrwt beam="2">  1       -2 0.71025174E-01 0.17125425E+04</pdfrwt>
<totfact> 0.85412150E+00</totfact>
</mgrwt>
</event>
<event>
12    4  0.4207946E-008  0.1607796E+04  0.7818608E-02  0.8815773E-01
         -2   -1    0    0    0  501 -0.00000000000E+00  0.00000000000E+00  0.67288266396E+03  0.67288266396E+03  0.00000000000E+00 0.  1.
          1   -1    0    0  501    0  0.00000000000E+00 -0.00000000000E+00 -0.96042336181E+03  0.96042336181E+03  0.00000000000E+00 0. -1.
        -24    2    1    2    0    0  0.38549480803E+03  0.25130722229E+03  0.20371384517E+03  0.51014346354E+03  0.83579038529E+02 0.  0.
        254    2    1    2    0    0 -0.38549480803E+03 -0.25130722229E+03 -0.49125454302E+03  0.11231625622E+04  0.89911153265E+03 0.  0.
         23    2    4    4    0    0 -0.29199194766E+03 -0.57429361039E+03 -0.24063270175E+03  0.69384576271E+03  0.91898840254E+02 0.  0.
         23    2    4    4    0    0 -0.93502860378E+02  0.32298638811E+03 -0.25062184127E+03  0.42931679952E+03  0.91861935667E+02 0.  0.
          1    1    3    3  502    0  0.45892120966E+02  0.31678508027E+02  0.57478196014E+02  0.80083441825E+02  0.00000000000E+00 0. -1.
         -2    1    3    3    0  502  0.33960268707E+03  0.21962871426E+03  0.14623564916E+03  0.43006002171E+03  0.00000000000E+00 0.  1.
         11    1    5    5    0    0 -0.26057364268E+03 -0.55434921856E+03 -0.23563832747E+03  0.65629802738E+03  0.00000000000E+00 0.  1.
        -11    1    5    5    0    0 -0.31418304980E+02 -0.19944391835E+02 -0.49943742781E+01  0.37547735323E+02  0.00000000000E+00 0. -1.
          2    1    6    6  503    0  0.21980384309E+00  0.16395324351E+03 -0.12029634794E+03  0.20335172903E+03  0.00000000000E+00 0. -1.
         -2    1    6    6    0  503 -0.93722664221E+02  0.15903314460E+03 -0.13032549333E+03  0.22596507049E+03  0.00000000000E+00 0.  1.
<mgrwt>
<rscale>  0 0.16077963E+04</rscale>
<asrwt>0</asrwt>
<pdfrwt beam="1">  1        1 0.14775744E+00 0.16077963E+04</pdfrwt>
<pdfrwt beam="2">  1       -2 0.10352041E+00 0.16077963E+04</pdfrwt>
<totfact> 0.10394388E+01</totfact>
</mgrwt>
</event>
<event>
12    4  0.4207946E-008  0.2121977E+04  0.7818608E-02  0.8551624E-01
         -2   -1    0    0    0  501 -0.00000000000E+00  0.00000000000E+00  0.69234723774E+03  0.69234723774E+03  0.00000000000E+00 0.  1.
          1   -1    0    0  501    0  0.00000000000E+00 -0.00000000000E+00 -0.16259131439E+04  0.16259131439E+04  0.00000000000E+00 0. -1.
        -24    2    1    2    0    0  0.74479224282E+03 -0.32310746513E+03 -0.53482048832E+02  0.81742320879E+03  0.78781049260E+02 0.  0.
        254    2    1    2    0    0 -0.74479224282E+03  0.32310746513E+03 -0.88008385736E+03  0.15008371729E+04  0.90490369903E+03 0.  0.
         23    2    4    4    0    0 -0.83933888124E+03  0.32130362992E+03 -0.37416985046E+03  0.97811224139E+03  0.94734891187E+02 0.  0.
         23    2    4    4    0    0  0.94546638412E+02  0.18038352036E+01 -0.50591400690E+03  0.52272493149E+03  0.91378613278E+02 0.  0.
          3    1    3    3  502    0  0.19583568337E+03 -0.10462111508E+03 -0.44892745296E+02  0.22652273877E+03  0.00000000000E+00 0. -1.
         -4    1    3    3    0  502  0.54895655946E+03 -0.21848635005E+03 -0.85893035362E+01  0.59090047001E+03  0.00000000000E+00 0.  1.
         11    1    5    5    0    0 -0.10002635550E+03  0.19769704873E+02 -0.70094017208E+02  0.12373069253E+03  0.00000000000E+00 0. -1.
        -11    1    5    5    0    0 -0.73931252574E+03  0.30153392505E+03 -0.30407583325E+03  0.85438154887E+03  0.00000000000E+00 0.  1.
          1    1    6    6  503    0  0.43438834928E+02  0.44303616651E+02 -0.18930664052E+03  0.19921532816E+03  0.00000000000E+00 0. -1.
         -1    1    6    6    0  503  0.51107803484E+02 -0.42499781448E+02 -0.31660736638E+03  0.32350960333E+03  0.00000000000E+00 0.  1.
<mgrwt>
<rscale>  0 0.21219769E+04</rscale>
<asrwt>0</asrwt>
<pdfrwt beam="1">  1        1 0.25014048E+00 0.21219769E+04</pdfrwt>
<pdfrwt beam="2">  1       -2 0.10651496E+00 0.21219769E+04</pdfrwt>
<totfact> 0.30656204E+00</totfact>
</mgrwt>
</event>
<event>
12    4  0.4207946E-008  0.2409893E+04  0.7818608E-02  0.8435809E-01
         -2   -1    0    0    0  501 -0.00000000000E+00  0.00000000000E+00  0.13750684496E+04  0.13750684496E+04  0.00000000000E+00 0.  1.
          1   -1    0    0  501    0  0.00000000000E+00 -0.00000000000E+00 -0.10558714532E+04  0.10558714532E+04  0.00000000000E+00 0. -1.
        -24    2    1    2    0    0 -0.93915454524E+03 -0.33675641260E+03 -0.14383728775E+03  0.10111942514E+04  0.80053154395E+02 0.  0.
        254    2    1    2    0    0  0.93915454524E+03  0.33675641260E+03  0.46303428410E+03  0.14197456513E+04  0.89769751308E+03 0.  0.
         23    2    4    4    0    0 -0.77290883345E+02  0.72270584718E+02  0.32860343701E+03  0.35690278941E+03  0.90567456694E+02 0.  0.
         23    2    4    4    0    0  0.10164454286E+04  0.26448582789E+03  0.13443084709E+03  0.10628428619E+04  0.91919715368E+02 0.  0.
          1    1    3    3  502    0 -0.88039649609E+03 -0.29576142332E+03 -0.14187407628E+03  0.93952172054E+03  0.00000000000E+00 0. -1.
         -2    1    3    3    0  502 -0.58758049147E+02 -0.40994989284E+02 -0.19632114733E+01  0.71672530897E+02  0.00000000000E+00 0.  1.
         11    1    5    5    0    0 -0.24218292335E+02  0.65589119112E+02  0.99315694147E+02  0.12145808056E+03  0.00000000000E+00 0. -1.
        -11    1    5    5    0    0 -0.53072591011E+02  0.66814656052E+01  0.22928774286E+03  0.23544470885E+03  0.00000000000E+00 0.  1.
          1    1    6    6  503    0  0.58483376597E+03  0.12026057205E+03  0.42516046569E+02  0.59858228609E+03  0.00000000000E+00 0. -1.
         -1    1    6    6    0  503  0.43161166261E+03  0.14422525584E+03  0.91914800522E+02  0.46426057584E+03  0.00000000000E+00 0.  1.
<mgrwt>
<rscale>  0 0.24098925E+04</rscale>
<asrwt>0</asrwt>
<pdfrwt beam="1">  1        1 0.16244176E+00 0.24098925E+04</pdfrwt>
<pdfrwt beam="2">  1       -2 0.21154899E+00 0.24098925E+04</pdfrwt>
<totfact> 0.12035585E+00</totfact>
</mgrwt>
</event>
<event>
12    4  0.4207946E-008  0.2292021E+04  0.7818608E-02  0.8481074E-01
          1   -1    0    0  501    0  0.00000000000E+00  0.00000000000E+00  0.17967535405E+04  0.17967535405E+04  0.00000000000E+00 0. -1.
         -2   -1    0    0    0  501 -0.00000000000E+00 -0.00000000000E+00 -0.73095155013E+03  0.73095155013E+03  0.00000000000E+00 0.  1.
        -24    2    1    2    0    0  0.82143672733E+03  0.52294384994E+03  0.77858532542E+03  0.12492558354E+04  0.78844569531E+02 0.  0.
        254    2    1    2    0    0 -0.82143672733E+03 -0.52294384994E+03  0.28721666500E+03  0.12784492553E+04  0.77698810701E+03 0.  0.
         23    2    4    4    0    0 -0.16670700831E+03 -0.14059265820E+02 -0.22772342415E+03  0.29800728610E+03  0.94665173571E+02 0.  0.
         23    2    4    4    0    0 -0.65472971902E+03 -0.50888458412E+03  0.51494008915E+03  0.98044196916E+03  0.92025184318E+02 0.  0.
          1    1    3    3  502    0  0.65332265010E+03  0.42835774386E+03  0.66098251762E+03  0.10233370561E+04  0.00000000000E+00 0. -1.
         -2    1    3    3    0  502  0.16811407723E+03  0.94586106081E+02  0.11760280780E+03  0.22591877927E+03  0.00000000000E+00 0.  1.
         11    1    5    5    0    0 -0.17689528547E+03 -0.22815939536E+02 -0.20621890233E+03  0.27265132458E+03  0.00000000000E+00 0. -1.
        -11    1    5    5    0    0  0.10188277155E+02  0.87566737159E+01 -0.21504521822E+02  0.25355961522E+02  0.00000000000E+00 0.  1.
          1    1    6    6  503    0 -0.36464320400E+03 -0.30579712676E+03  0.34415290314E+03  0.58729700297E+03  0.00000000000E+00 0. -1.
         -1    1    6    6    0  503 -0.29008651502E+03 -0.20308745736E+03  0.17078718601E+03  0.39314496619E+03  0.00000000000E+00 0.  1.
<mgrwt>
<rscale>  0 0.22920208E+04</rscale>
<asrwt>0</asrwt>
<pdfrwt beam="1">  1        1 0.27642362E+00 0.22920208E+04</pdfrwt>
<pdfrwt beam="2">  1       -2 0.11245409E+00 0.22920208E+04</pdfrwt>
<totfact> 0.20258540E+00</totfact>
</mgrwt>
</event>
<event>
12    4  0.4207946E-008  0.1110788E+04  0.7818608E-02  0.9194741E-01
          1   -1    0    0  501    0  0.00000000000E+00  0.00000000000E+00  0.84915892301E+03  0.84915892301E+03  0.00000000000E+00 0. -1.
         -2   -1    0    0    0  501 -0.00000000000E+00 -0.00000000000E+00 -0.36325645163E+03  0.36325645163E+03  0.00000000000E+00 0.  1.
        -24    2    1    2    0    0 -0.17297400788E+03  0.14398095788E+01  0.12877153080E+03  0.23047105083E+03  0.81318618235E+02 0.  0.
        254    2    1    2    0    0  0.17297400788E+03 -0.14398095788E+01  0.35713094059E+03  0.98194432381E+03  0.89819266635E+03 0.  0.
         23    2    4    4    0    0 -0.20430105275E+03 -0.27137798624E+03  0.36881721450E+03  0.50944388907E+03  0.90122177230E+02 0.  0.
         23    2    4    4    0    0  0.37727506063E+03  0.26993817666E+03 -0.11686273913E+02  0.47250043474E+03  0.88977532263E+02 0.  0.
          1    1    3    3  502    0 -0.29289977439E+02  0.51912273294E+01  0.68373008589E+02  0.74563529443E+02  0.00000000000E+00 0. -1.
         -2    1    3    3    0  502 -0.14368403044E+03 -0.37514177506E+01  0.60398522208E+02  0.15590752138E+03  0.00000000000E+00 0.  1.
         11    1    5    5    0    0 -0.19818643750E+03 -0.20932614268E+03  0.31599985868E+03  0.42772796110E+03  0.00000000000E+00 0.  1.
        -11    1    5    5    0    0 -0.61146152461E+01 -0.62051843551E+02  0.52817355822E+02  0.81715927968E+02  0.00000000000E+00 0. -1.
          2    1    6    6  503    0  0.80670872972E+02  0.28227390837E+02  0.22433709262E+02  0.88362020409E+02  0.00000000000E+00 0. -1.
         -2    1    6    6    0  503  0.29660418766E+03  0.24171078582E+03 -0.34119983176E+02  0.38413841434E+03  0.00000000000E+00 0.  1.
<mgrwt>
<rscale>  0 0.11107879E+04</rscale>
<asrwt>0</asrwt>
<pdfrwt beam="1">  1        1 0.13063983E+00 0.11107879E+04</pdfrwt>
<pdfrwt beam="2">  1       -2 0.55885608E-01 0.11107879E+04</pdfrwt>
<totfact> 0.52645030E+01</totfact>
</mgrwt>
</event>
<event>
12    4  0.4207946E-008  0.1221980E+04  0.7818608E-02  0.9093832E-01
          1   -1    0    0  501    0  0.00000000000E+00  0.00000000000E+00  0.22100208682E+04  0.22100208682E+04  0.00000000000E+00 0. -1.
         -2   -1    0    0    0  501 -0.00000000000E+00 -0.00000000000E+00 -0.16891636226E+03  0.16891636226E+03  0.00000000000E+00 0.  1.
        -24    2    1    2    0    0 -0.15358490826E+03  0.22094083010E+03  0.63830480297E+03  0.69732936532E+03  0.80200048583E+02 0.  0.
        254    2    1    2    0    0  0.15358490826E+03 -0.22094083010E+03  0.14027997030E+04  0.16816078651E+04  0.88744286069E+03 0.  0.
         23    2    4    4    0    0 -0.17614961965E+03  0.25312095168E+03  0.67875104496E+03  0.75102979551E+03  0.90795748970E+02 0.  0.
         23    2    4    4    0    0  0.32973452791E+03 -0.47406178178E+03  0.72404865799E+03  0.93057806961E+03  0.90937630608E+02 0.  0.
          3    1    3    3  502    0 -0.10228984655E+03  0.20136770786E+03  0.51630636124E+03  0.56354629369E+03  0.00000000000E+00 0. -1.
         -4    1    3    3    0  502 -0.51295061712E+02  0.19573122244E+02  0.12199844173E+03  0.13378307163E+03  0.00000000000E+00 0.  1.
         11    1    5    5    0    0 -0.14224521008E+03  0.24961377309E+03  0.60129150328E+03  0.66640243654E+03  0.00000000000E+00 0.  1.
        -11    1    5    5    0    0 -0.33904409567E+02  0.35071785922E+01  0.77459541680E+02  0.84627358975E+02  0.00000000000E+00 0. -1.
          1    1    6    6  503    0  0.73272898023E+02 -0.89818929119E+02  0.20674824318E+03  0.23702572365E+03  0.00000000000E+00 0. -1.
         -1    1    6    6    0  503  0.25646162989E+03 -0.38424285266E+03  0.51730041481E+03  0.69355234596E+03  0.00000000000E+00 0.  1.
<mgrwt>
<rscale>  0 0.12219798E+04</rscale>
<asrwt>0</asrwt>
<pdfrwt beam="1">  1        1 0.34000319E+00 0.12219798E+04</pdfrwt>
<pdfrwt beam="2">  1       -2 0.25987134E-01 0.12219798E+04</pdfrwt>
<totfact> 0.24952420E+01</totfact>
</mgrwt>
</event>
<event>
12    4  0.4207946E-008  0.2159883E+04  0.7818608E-02  0.8535314E-01
         -2   -1    0    0    0  501 -0.00000000000E+00  0.00000000000E+00  0.21479952445E+04  0.21479952445E+04  0.00000000000E+00 0.  1.
          1   -1    0    0  501    0  0.00000000000E+00 -0.00000000000E+00 -0.54295910412E+03  0.54295910412E+03  0.00000000000E+00 0. -1.
        -24    2    1    2    0    0  0.17005623441E+03  0.79015259298E+03  0.11227718315E+04  0.13857637900E+04  0.80401820848E+02 0.  0.
        254    2    1    2    0    0 -0.17005623441E+03 -0.79015259298E+03  0.48226430880E+03  0.13051905586E+04  0.90425841866E+03 0.  0.
         23    2    4    4    0    0 -0.70788670844E+02 -0.88425713971E+03  0.10992514879E+03  0.89862178733E+03  0.92281380932E+02 0.  0.
         23    2    4    4    0    0 -0.99267563563E+02  0.94104546732E+02  0.37233916001E+03  0.40656877130E+03  0.89173991862E+02 0.  0.
          1    1    3    3  502    0  0.92308032075E+02  0.32392381154E+03  0.41166694489E+03  0.53189950365E+03  0.00000000000E+00 0. -1.
         -2    1    3    3    0  502  0.77748202332E+02  0.46622878144E+03  0.71110488665E+03  0.85386428630E+03  0.00000000000E+00 0.  1.
         11    1    5    5    0    0  0.12316596084E+01 -0.19463455445E+02 -0.11093157139E+02  0.22436604435E+02  0.00000000000E+00 0. -1.
        -11    1    5    5    0    0 -0.72020330453E+02 -0.86479368427E+03  0.12101830593E+03  0.87618518289E+03  0.00000000000E+00 0.  1.
          4    1    6    6  503    0  0.55278308919E+01  0.45645995807E+02  0.80253803200E+02  0.92492090341E+02  0.00000000000E+00 0. -1.
         -4    1    6    6    0  503 -0.10479539445E+03  0.48458550925E+02  0.29208535681E+03  0.31407668096E+03  0.00000000000E+00 0.  1.
<mgrwt>
<rscale>  0 0.21598829E+04</rscale>
<asrwt>0</asrwt>
<pdfrwt beam="1">  1        1 0.83532171E-01 0.21598829E+04</pdfrwt>
<pdfrwt beam="2">  1       -2 0.33046080E+00 0.21598829E+04</pdfrwt>
<totfact> 0.65355466E-01</totfact>
</mgrwt>
</event>
<event>
12    4  0.4207946E-008  0.1538454E+04  0.7818608E-02  0.8859277E-01
          1   -1    0    0  501    0  0.00000000000E+00  0.00000000000E+00  0.15931560736E+04  0.15931560736E+04  0.00000000000E+00 0. -1.
         -2   -1    0    0    0  501 -0.00000000000E+00 -0.00000000000E+00 -0.37140741153E+03  0.37140741153E+03  0.00000000000E+00 0.  1.
        -24    2    1    2    0    0 -0.40099910138E+03  0.12771184164E+03  0.75205720548E+03  0.86544393511E+03  0.79325725355E+02 0.  0.
        254    2    1    2    0    0  0.40099910138E+03 -0.12771184164E+03  0.46969145660E+03  0.10991195500E+04  0.90019060594E+03 0.  0.
         23    2    4    4    0    0  0.49351606856E+03  0.17462103928E+03  0.72507120817E+01  0.53159910878E+03  0.92165190514E+02 0.  0.
         23    2    4    4    0    0 -0.92516967181E+02 -0.30233288091E+03  0.46244074452E+03  0.56752044124E+03  0.90903514444E+02 0.  0.
          3    1    3    3  502    0 -0.56403909372E+02  0.15829761560E+02  0.17029088213E+03  0.18008599857E+03  0.00000000000E+00 0. -1.
         -4    1    3    3    0  502 -0.34459519201E+03  0.11188208008E+03  0.58176632334E+03  0.68535793654E+03  0.00000000000E+00 0.  1.
         11    1    5    5    0    0  0.29103465582E+03  0.86018511066E+02 -0.38446553977E+02  0.30590601931E+03  0.00000000000E+00 0. -1.
        -11    1    5    5    0    0  0.20248141274E+03  0.88602528212E+02  0.45697266058E+02  0.22569308947E+03  0.00000000000E+00 0.  1.
          3    1    6    6  503    0 -0.10817296211E+02 -0.13236564389E+03  0.25264675018E+03  0.28542609894E+03  0.00000000000E+00 0. -1.
         -3    1    6    6    0  503 -0.81699670971E+02 -0.16996723702E+03  0.20979399434E+03  0.28209434230E+03  0.00000000000E+00 0.  1.
<mgrwt>
<rscale>  0 0.15384537E+04</rscale>
<asrwt>0</asrwt>
<pdfrwt beam="1">  1        1 0.24510093E+00 0.15384537E+04</pdfrwt>
<pdfrwt beam="2">  1       -2 0.57139603E-01 0.15384537E+04</pdfrwt>
<totfact> 0.13704150E+01</totfact>
</mgrwt>
</event>
<event>
12    4  0.4207946E-008  0.2449494E+04  0.7818608E-02  0.8421203E-01
         -4   -1    0    0    0  501 -0.00000000000E+00  0.00000000000E+00  0.69525627990E+03  0.69525627990E+03  0.00000000000E+00 0.  1.
          1   -1    0    0  501    0  0.00000000000E+00 -0.00000000000E+00 -0.21574846063E+04  0.21574846063E+04  0.00000000000E+00 0. -1.
        -24    2    1    2    0    0 -0.85521564647E+03 -0.38620397449E+03 -0.65413632020E+02  0.94411170315E+03  0.80750559715E+02 0.  0.
        254    2    1    2    0    0  0.85521564647E+03  0.38620397449E+03 -0.13968146944E+04  0.19086291831E+04  0.90068127335E+03 0.  0.
         23    2    4    4    0    0  0.12529155654E+03 -0.26808033629E+03 -0.28800887437E+03  0.42534609160E+03  0.10200561298E+03 0.  0.
         23    2    4    4    0    0  0.72992408993E+03  0.65428431077E+03 -0.11088058201E+04  0.14832830915E+04  0.99001245345E+02 0.  0.
          1    1    3    3  502    0 -0.36322286724E+03 -0.17993741892E+03 -0.65639819982E+02  0.41062989659E+03  0.00000000000E+00 0. -1.
         -2    1    3    3    0  502 -0.49199277923E+03 -0.20626655557E+03  0.22618796148E+00  0.53348180655E+03  0.00000000000E+00 0.  1.
         11    1    5    5    0    0  0.61856740734E+02 -0.18983786299E+03 -0.24438984125E+03  0.31558052080E+03  0.00000000000E+00 0. -1.
        -11    1    5    5    0    0  0.63434815801E+02 -0.78242473296E+02 -0.43619033117E+02  0.10976557080E+03  0.00000000000E+00 0.  1.
          1    1    6    6  503    0  0.18998391119E+03  0.16174930323E+03 -0.22058153814E+03  0.33303594186E+03  0.00000000000E+00 0. -1.
         -1    1    6    6    0  503  0.53994017874E+03  0.49253500754E+03 -0.88822428192E+03  0.11502471496E+04  0.00000000000E+00 0.  1.
<mgrwt>
<rscale>  0 0.24494936E+04</rscale>
<asrwt>0</asrwt>
<pdfrwt beam="1">  1        1 0.33192071E+00 0.24494936E+04</pdfrwt>
<pdfrwt beam="2">  1       -4 0.10696250E+00 0.24494936E+04</pdfrwt>
<totfact> 0.71774025E-01</totfact>
</mgrwt>
</event>
<event>
12    4  0.4207946E-008  0.2533731E+04  0.7818608E-02  0.8391066E-01
         -2   -1    0    0    0  501 -0.00000000000E+00  0.00000000000E+00  0.45043641573E+03  0.45043641573E+03  0.00000000000E+00 0.  1.
          1   -1    0    0  501    0  0.00000000000E+00 -0.00000000000E+00 -0.35630968308E+04  0.35630968308E+04  0.00000000000E+00 0. -1.
        -24    2    1    2    0    0 -0.60098658403E+03  0.83981129456E+03 -0.20009335286E+04  0.22531325771E+04  0.80022117751E+02 0.  0.
        254    2    1    2    0    0  0.60098658403E+03 -0.83981129456E+03 -0.11117268865E+04  0.17604006694E+04  0.89252784958E+03 0.  0.
         23    2    4    4    0    0  0.84935704457E+01  0.13797476244E+03 -0.27203430422E+01  0.16501060578E+03  0.90066219770E+02 0.  0.
         23    2    4    4    0    0  0.59249301358E+03 -0.97778605700E+03 -0.11090065434E+04  0.15953900637E+04  0.90886729155E+02 0.  0.
          3    1    3    3  502    0 -0.45461813330E+03  0.66458128773E+03 -0.16184592013E+04  0.18076935917E+04  0.00000000000E+00 0. -1.
         -4    1    3    3    0  502 -0.14636845073E+03  0.17523000683E+03 -0.38247432728E+03  0.44543898537E+03  0.00000000000E+00 0.  1.
         11    1    5    5    0    0  0.41634543838E+02  0.95688407302E+02 -0.24245305071E+02  0.10713328778E+03  0.00000000000E+00 0.  1.
        -11    1    5    5    0    0 -0.33140973392E+02  0.42286355135E+02  0.21524962029E+02  0.57877317996E+02  0.00000000000E+00 0. -1.
          1    1    6    6  503    0  0.22261934966E+03 -0.28647551104E+03 -0.35802616990E+03  0.50971593226E+03  0.00000000000E+00 0. -1.
         -1    1    6    6    0  503  0.36987366392E+03 -0.69131054596E+03 -0.75098037351E+03  0.10856741314E+04  0.00000000000E+00 0.  1.
<mgrwt>
<rscale>  0 0.25337313E+04</rscale>
<asrwt>0</asrwt>
<pdfrwt beam="1">  1        1 0.54816875E+00 0.25337313E+04</pdfrwt>
<pdfrwt beam="2">  1       -2 0.69297909E-01 0.25337313E+04</pdfrwt>
<totfact> 0.32992520E-01</totfact>
</mgrwt>
</event>
<event>
12    4  0.4207946E-008  0.1444407E+04  0.7818608E-02  0.8922287E-01
         -4   -1    0    0    0  501 -0.00000000000E+00  0.00000000000E+00  0.20230330172E+03  0.20230330172E+03  0.00000000000E+00 0.  1.
          1   -1    0    0  501    0  0.00000000000E+00 -0.00000000000E+00 -0.25781967781E+04  0.25781967781E+04  0.00000000000E+00 0. -1.
        -24    2    1    2    0    0 -0.27209098689E+01  0.16273913295E+03  0.54529540042E+02  0.18869739875E+03  0.78369693216E+02 0.  0.
        254    2    1    2    0    0  0.27209098689E+01 -0.16273913295E+03 -0.24304230164E+04  0.25918026810E+04  0.88543417040E+03 0.  0.
         23    2    4    4    0    0 -0.26885103995E+03  0.13891870109E+02 -0.21037072357E+04  0.21227027073E+04  0.88367325328E+02 0.  0.
         23    2    4    4    0    0  0.27157194982E+03 -0.17663100306E+03 -0.32671578064E+03  0.46909997372E+03  0.91442598686E+02 0.  0.
          3    1    3    3  502    0 -0.11717772225E+02 -0.45447532710E+01  0.77398452677E+01  0.14760290410E+02  0.00000000000E+00 0. -1.
         -4    1    3    3    0  502  0.89968623560E+01  0.16728388622E+03  0.46789694775E+02  0.17393710834E+03  0.00000000000E+00 0.  1.
         11    1    5    5    0    0  0.26202276598E+01  0.10874561342E+02 -0.11658124152E+03  0.11711664080E+03  0.00000000000E+00 0.  1.
        -11    1    5    5    0    0 -0.27147126761E+03  0.30173087668E+01 -0.19871259942E+04  0.20055860665E+04  0.00000000000E+00 0. -1.
          4    1    6    6  503    0  0.18580333094E+03 -0.13996513080E+03 -0.17537810798E+03  0.29132558485E+03  0.00000000000E+00 0. -1.
         -4    1    6    6    0  503  0.85768618879E+02 -0.36665872260E+02 -0.15133767266E+03  0.17777438887E+03  0.00000000000E+00 0.  1.
<mgrwt>
<rscale>  0 0.14444068E+04</rscale>
<asrwt>0</asrwt>
<pdfrwt beam="1">  1        1 0.39664563E+00 0.14444068E+04</pdfrwt>
<pdfrwt beam="2">  1       -4 0.31123587E-01 0.14444068E+04</pdfrwt>
<totfact> 0.58200997E+00</totfact>
</mgrwt>
</event>
<event>
12    4  0.4207946E-008  0.2340507E+04  0.7818608E-02  0.8462119E-01
          3   -1    0    0  501    0  0.00000000000E+00  0.00000000000E+00  0.74847749261E+03  0.74847749261E+03  0.00000000000E+00 0. -1.
         -4   -1    0    0    0  501 -0.00000000000E+00 -0.00000000000E+00 -0.18297059138E+04  0.18297059138E+04  0.00000000000E+00 0.  1.
        -24    2    1    2    0    0 -0.15329807162E+03 -0.25264235180E+03 -0.14862166352E+04  0.15171479848E+04  0.74630183853E+02 0.  0.
        254    2    1    2    0    0  0.15329807162E+03  0.25264235180E+03  0.40498821398E+03  0.10610354216E+04  0.93512151928E+03 0.  0.
         23    2    4    4    0    0 -0.33718598633E+03 -0.41814536975E+02 -0.43925404240E+01  0.35168258398E+03  0.90655946203E+02 0.  0.
         23    2    4    4    0    0  0.49048405795E+03  0.29445688877E+03  0.40938075441E+03  0.70935283766E+03  0.91155777454E+02 0.  0.
          3    1    3    3  502    0 -0.18027796502E+02 -0.40966990997E+02 -0.38768544467E+03  0.39026055374E+03  0.00000000000E+00 0. -1.
         -4    1    3    3    0  502 -0.13527027512E+03 -0.21167536080E+03 -0.10985311905E+04  0.11268874310E+04  0.00000000000E+00 0.  1.
         11    1    5    5    0    0 -0.30191701963E+03 -0.56886176477E+02  0.17121901052E+02  0.30770616392E+03  0.00000000000E+00 0.  1.
        -11    1    5    5    0    0 -0.35268966698E+02  0.15071639502E+02 -0.21514441476E+02  0.43976420060E+02  0.00000000000E+00 0. -1.
          2    1    6    6  503    0  0.33667103274E+03  0.18067142080E+03  0.22377913230E+03  0.44279413572E+03  0.00000000000E+00 0. -1.
         -2    1    6    6    0  503  0.15381302521E+03  0.11378546797E+03  0.18560162211E+03  0.26655870193E+03  0.00000000000E+00 0.  1.
<mgrwt>
<rscale>  0 0.23405074E+04</rscale>
<asrwt>0</asrwt>
<pdfrwt beam="1">  1        3 0.11515039E+00 0.23405074E+04</pdfrwt>
<pdfrwt beam="2">  1       -4 0.28149321E+00 0.23405074E+04</pdfrwt>
<totfact> 0.51909921E-02</totfact>
</mgrwt>
</event>
<event>
12    4  0.4207946E-008  0.1944272E+04  0.7818608E-02  0.8633128E-01
          1   -1    0    0  501    0  0.00000000000E+00  0.00000000000E+00  0.12421262562E+04  0.12421262562E+04  0.00000000000E+00 0. -1.
         -2   -1    0    0    0  501 -0.00000000000E+00 -0.00000000000E+00 -0.76083097790E+03  0.76083097790E+03  0.00000000000E+00 0.  1.
        -24    2    1    2    0    0  0.40540964004E+02 -0.35955158341E+03  0.87316186983E+03  0.94812426667E+03  0.74880326023E+02 0.  0.
        254    2    1    2    0    0 -0.40540964004E+02  0.35955158341E+03 -0.39186659158E+03  0.10548329674E+04  0.91005068682E+03 0.  0.
         23    2    4    4    0    0 -0.45625748672E+03  0.28803215931E+03 -0.19604578824E+03  0.58124016017E+03  0.90954679480E+02 0.  0.
         23    2    4    4    0    0  0.41571652272E+03  0.71519424098E+02 -0.19582080335E+03  0.47359280721E+03  0.89493601655E+02 0.  0.
          3    1    3    3  502    0  0.53343566169E+02 -0.33623010994E+03  0.83373284656E+03  0.90055909429E+03  0.00000000000E+00 0. -1.
         -4    1    3    3    0  502 -0.12802602165E+02 -0.23321473472E+02  0.39429023273E+02  0.47565172379E+02  0.00000000000E+00 0.  1.
         11    1    5    5    0    0 -0.43254555166E+03  0.25864491182E+03 -0.20211520989E+03  0.54299484596E+03  0.00000000000E+00 0. -1.
        -11    1    5    5    0    0 -0.23711935067E+02  0.29387247495E+02  0.60694216553E+01  0.38245314212E+02  0.00000000000E+00 0.  1.
          1    1    6    6  503    0  0.35513375191E+03  0.37451281355E+02 -0.18823073934E+03  0.40367485859E+03  0.00000000000E+00 0. -1.
         -1    1    6    6    0  503  0.60582770806E+02  0.34068142743E+02 -0.75900640040E+01  0.69917948626E+02  0.00000000000E+00 0.  1.
<mgrwt>
<rscale>  0 0.19442717E+04</rscale>
<asrwt>0</asrwt>
<pdfrwt beam="1">  1        1 0.19109635E+00 0.19442717E+04</pdfrwt>
<pdfrwt beam="2">  1       -2 0.11705092E+00 0.19442717E+04</pdfrwt>
<totfact> 0.45973925E+00</totfact>
</mgrwt>
</event>
<event>
12    4  0.4207946E-008  0.1414512E+04  0.7818608E-02  0.8943380E-01
          1   -1    0    0  501    0  0.00000000000E+00  0.00000000000E+00  0.24976921697E+04  0.24976921697E+04  0.00000000000E+00 0. -1.
         -2   -1    0    0    0  501 -0.00000000000E+00 -0.00000000000E+00 -0.20026939301E+03  0.20026939301E+03  0.00000000000E+00 0.  1.
        -24    2    1    2    0    0  0.24717330428E+03 -0.29559226218E+03  0.97963665275E+03  0.10557576752E+04  0.80416849085E+02 0.  0.
        254    2    1    2    0    0 -0.24717330428E+03  0.29559226218E+03  0.13177861239E+04  0.16422038874E+04  0.90100161584E+03 0.  0.
         23    2    4    4    0    0 -0.25658539522E+03  0.48995864403E+03  0.13129783670E+04  0.14276662117E+04  0.91777349233E+02 0.  0.
         23    2    4    4    0    0  0.94120909379E+01 -0.19436638184E+03  0.48077568539E+01  0.21453767572E+03  0.90202117110E+02 0.  0.
          1    1    3    3  502    0  0.23538386473E+03 -0.29892223731E+03  0.93441627645E+03  0.10089072531E+04  0.00000000000E+00 0. -1.
         -2    1    3    3    0  502  0.11789439555E+02  0.33299751250E+01  0.45220376302E+02  0.46850422114E+02  0.00000000000E+00 0.  1.
         11    1    5    5    0    0 -0.11018826173E+03  0.26814018511E+03  0.58973523074E+03  0.65713640461E+03  0.00000000000E+00 0.  1.
        -11    1    5    5    0    0 -0.14639713349E+03  0.22181845892E+03  0.72324313630E+03  0.77052980709E+03  0.00000000000E+00 0. -1.
          4    1    6    6  503    0  0.32696345649E+01 -0.20251094860E+03 -0.15018132547E+01  0.20254290966E+03  0.00000000000E+00 0. -1.
         -4    1    6    6    0  503  0.61424563730E+01  0.81445667518E+01  0.63095701086E+01  0.11994766060E+02  0.00000000000E+00 0.  1.
<mgrwt>
<rscale>  0 0.14145123E+04</rscale>
<asrwt>0</asrwt>
<pdfrwt beam="1">  1        1 0.38426031E+00 0.14145123E+04</pdfrwt>
<pdfrwt beam="2">  1       -2 0.30810678E-01 0.14145123E+04</pdfrwt>
<totfact> 0.11381626E+01</totfact>
</mgrwt>
</event>
<event>
12    4  0.4207946E-008  0.1627450E+04  0.7818608E-02  0.8803860E-01
         -2   -1    0    0    0  501 -0.00000000000E+00  0.00000000000E+00  0.30124843942E+03  0.30124843942E+03  0.00000000000E+00 0.  1.
          1   -1    0    0  501    0  0.00000000000E+00 -0.00000000000E+00 -0.21980130507E+04  0.21980130507E+04  0.00000000000E+00 0. -1.
        -24    2    1    2    0    0 -0.23960660631E+03 -0.69371030608E+02 -0.14442869546E+04  0.14679755930E+04  0.82242741399E+02 0.  0.
        254    2    1    2    0    0  0.23960660631E+03  0.69371030608E+02 -0.45247765661E+03  0.10312858971E+04  0.89251941503E+03 0.  0.
         23    2    4    4    0    0  0.43170966472E+03 -0.56153921334E+02  0.73031603469E+02  0.45050947225E+03  0.89992621853E+02 0.  0.
         23    2    4    4    0    0 -0.19210305840E+03  0.12552495194E+03 -0.52550926008E+03  0.58077642488E+03  0.92093293225E+02 0.  0.
          3    1    3    3  502    0 -0.21043367286E+03 -0.86594493799E+02 -0.12999421180E+04  0.13197084706E+04  0.00000000000E+00 0. -1.
         -4    1    3    3    0  502 -0.29172933455E+02  0.17223463191E+02 -0.14434483661E+03  0.14826712241E+03  0.00000000000E+00 0.  1.
         11    1    5    5    0    0  0.85767163600E+02 -0.23924170006E+02  0.50439077291E+02  0.10233510043E+03  0.00000000000E+00 0.  1.
        -11    1    5    5    0    0  0.34594250112E+03 -0.32229751328E+02  0.22592526178E+02  0.34817437182E+03  0.00000000000E+00 0. -1.
          1    1    6    6  503    0 -0.59616860153E+02  0.47308808538E+02 -0.84601618221E+02  0.11379686808E+03  0.00000000000E+00 0. -1.
         -1    1    6    6    0  503 -0.13248619825E+03  0.78216143404E+02 -0.44090764185E+03  0.46697955679E+03  0.00000000000E+00 0.  1.
<mgrwt>
<rscale>  0 0.16274495E+04</rscale>
<asrwt>0</asrwt>
<pdfrwt beam="1">  1        1 0.33815585E+00 0.16274495E+04</pdfrwt>
<pdfrwt beam="2">  1       -2 0.46345914E-01 0.16274495E+04</pdfrwt>
<totfact> 0.81154884E+00</totfact>
</mgrwt>
</event>
<event>
12    4  0.4207946E-008  0.1445972E+04  0.7818608E-02  0.8921198E-01
          1   -1    0    0  501    0  0.00000000000E+00  0.00000000000E+00  0.10329288446E+04  0.10329288446E+04  0.00000000000E+00 0. -1.
         -2   -1    0    0    0  501 -0.00000000000E+00 -0.00000000000E+00 -0.50604530261E+03  0.50604530261E+03  0.00000000000E+00 0.  1.
        -24    2    1    2    0    0  0.19101679834E+03  0.19700321193E+03 -0.15673248767E+03  0.32515152049E+03  0.76555573480E+02 0.  0.
        254    2    1    2    0    0 -0.19101679834E+03 -0.19700321193E+03  0.68361602963E+03  0.12138226267E+04  0.96474701883E+03 0.  0.
         23    2    4    4    0    0 -0.18963422362E+03 -0.54958195656E+03  0.22799328404E+03  0.63047831963E+03  0.86720863742E+02 0.  0.
         23    2    4    4    0    0 -0.13825747235E+01  0.35257874463E+03  0.45562274558E+03  0.58334430706E+03  0.91568616971E+02 0.  0.
          1    1    3    3  502    0  0.59265531563E+02  0.40919433874E+02 -0.79591356099E+01  0.72457926686E+02  0.00000000000E+00 0. -1.
         -2    1    3    3    0  502  0.13175126678E+03  0.15608377806E+03 -0.14877335206E+03  0.25269359381E+03  0.00000000000E+00 0.  1.
         11    1    5    5    0    0 -0.21034440313E+02 -0.99179009496E+02  0.82234259711E+01  0.10171798434E+03  0.00000000000E+00 0. -1.
        -11    1    5    5    0    0 -0.16859978330E+03 -0.45040294706E+03  0.21976985807E+03  0.52876033529E+03  0.00000000000E+00 0.  1.
          1    1    6    6  503    0 -0.25500191674E+02  0.24660695681E+02  0.44177722799E+02  0.56657575650E+02  0.00000000000E+00 0. -1.
         -1    1    6    6    0  503  0.24117616950E+02  0.32791804895E+03  0.41144502278E+03  0.52668673141E+03  0.00000000000E+00 0.  1.
<mgrwt>
<rscale>  0 0.14459720E+04</rscale>
<asrwt>0</asrwt>
<pdfrwt beam="1">  1        1 0.15891213E+00 0.14459720E+04</pdfrwt>
<pdfrwt beam="2">  1       -2 0.77853124E-01 0.14459720E+04</pdfrwt>
<totfact> 0.17853768E+01</totfact>
</mgrwt>
</event>
<event>
12    4  0.4207946E-008  0.2847903E+04  0.7818608E-02  0.8288549E-01
         -2   -1    0    0    0  501 -0.00000000000E+00  0.00000000000E+00  0.54641451295E+03  0.54641451295E+03  0.00000000000E+00 0.  1.
          1   -1    0    0  501    0  0.00000000000E+00 -0.00000000000E+00 -0.37108057611E+04  0.37108057611E+04  0.00000000000E+00 0. -1.
        -24    2    1    2    0    0 -0.38710849661E+03  0.85020001914E+03 -0.10880892645E+03  0.94386736887E+03  0.79706755306E+02 0.  0.
        254    2    1    2    0    0  0.38710849661E+03 -0.85020001914E+03 -0.30555823217E+04  0.33133529052E+04  0.87694417664E+03 0.  0.
         23    2    4    4    0    0  0.61997519149E+03 -0.70703964595E+03 -0.18960870644E+04  0.21184724015E+04  0.92221802619E+02 0.  0.
         23    2    4    4    0    0 -0.23286669487E+03 -0.14316037319E+03 -0.11594952573E+04  0.11948805037E+04  0.92673494094E+02 0.  0.
          1    1    3    3  502    0 -0.10370922578E+03  0.27540587190E+03 -0.28107435454E+01  0.29429899434E+03  0.00000000000E+00 0. -1.
         -2    1    3    3    0  502 -0.28339927083E+03  0.57479414724E+03 -0.10599818290E+03  0.64956837453E+03  0.00000000000E+00 0.  1.
         11    1    5    5    0    0  0.14705496900E+03 -0.22921810389E+03 -0.52476009362E+03  0.59121845279E+03  0.00000000000E+00 0.  1.
        -11    1    5    5    0    0  0.47292022249E+03 -0.47782154206E+03 -0.13713269708E+04  0.15272539487E+04  0.00000000000E+00 0. -1.
          1    1    6    6  503    0 -0.20471962719E+03 -0.14358891929E+03 -0.90758885704E+03  0.94140609564E+03  0.00000000000E+00 0. -1.
         -1    1    6    6    0  503 -0.28147067682E+02  0.42854610168E+00 -0.25190640023E+03  0.25347440808E+03  0.00000000000E+00 0.  1.
<mgrwt>
<rscale>  0 0.28479032E+04</rscale>
<asrwt>0</asrwt>
<pdfrwt beam="1">  1        1 0.57089318E+00 0.28479032E+04</pdfrwt>
<pdfrwt beam="2">  1       -2 0.84063773E-01 0.28479032E+04</pdfrwt>
<totfact> 0.15843099E-01</totfact>
</mgrwt>
</event>
<event>
12    4  0.4207946E-008  0.2541124E+04  0.7818608E-02  0.8388480E-01
         -2   -1    0    0    0  501 -0.00000000000E+00  0.00000000000E+00  0.11498707517E+04  0.11498707517E+04  0.00000000000E+00 0.  1.
          1   -1    0    0  501    0  0.00000000000E+00 -0.00000000000E+00 -0.14039207074E+04  0.14039207074E+04  0.00000000000E+00 0. -1.
        -24    2    1    2    0    0  0.82559899701E+03 -0.34858135549E+03  0.53439921062E+03  0.10465484501E+04  0.80984423308E+02 0.  0.
        254    2    1    2    0    0 -0.82559899701E+03  0.34858135549E+03 -0.78844916631E+03  0.15072430090E+04  0.92032968827E+03 0.  0.
         23    2    4    4    0    0 -0.23021055598E+03 -0.52501655089E+02  0.17064971220E+03  0.30581213389E+03  0.92986090823E+02 0.  0.
         23    2    4    4    0    0 -0.59538844103E+03  0.40108301058E+03 -0.95909887852E+03  0.12014308751E+04  0.90611874765E+02 0.  0.
          1    1    3    3  502    0  0.23414265026E+03 -0.12274417682E+03  0.12350143600E+03  0.29179019570E+03  0.00000000000E+00 0. -1.
         -2    1    3    3    0  502  0.59145634675E+03 -0.22583717867E+03  0.41089777462E+03  0.75475825439E+03  0.00000000000E+00 0.  1.
         11    1    5    5    0    0 -0.23518696204E+03 -0.46367109609E+02  0.14775382991E+03  0.28159192144E+03  0.00000000000E+00 0. -1.
        -11    1    5    5    0    0  0.49764060510E+01 -0.61345454798E+01  0.22895882292E+02  0.24220212455E+02  0.00000000000E+00 0.  1.
          4    1    6    6  503    0 -0.48535938652E+03  0.31527534543E+03 -0.82608042507E+03  0.10086531347E+04  0.00000000000E+00 0. -1.
         -4    1    6    6    0  503 -0.11002905451E+03  0.85807665152E+02 -0.13301845345E+03  0.19277774040E+03  0.00000000000E+00 0.  1.
<mgrwt>
<rscale>  0 0.25411237E+04</rscale>
<asrwt>0</asrwt>
<pdfrwt beam="1">  1        1 0.21598780E+00 0.25411237E+04</pdfrwt>
<pdfrwt beam="2">  1       -2 0.17690319E+00 0.25411237E+04</pdfrwt>
<totfact> 0.11305190E+00</totfact>
</mgrwt>
</event>
<event>
12    4  0.4207946E-008  0.2049948E+04  0.7818608E-02  0.8583618E-01
         -2   -1    0    0    0  501 -0.00000000000E+00  0.00000000000E+00  0.11018885768E+04  0.11018885768E+04  0.00000000000E+00 0.  1.
          1   -1    0    0  501    0  0.00000000000E+00 -0.00000000000E+00 -0.95342868528E+03  0.95342868528E+03  0.00000000000E+00 0. -1.
        -24    2    1    2    0    0  0.22604475302E+03  0.77303525122E+03  0.24225680591E+03  0.84479590061E+03  0.79448245294E+02 0.  0.
        254    2    1    2    0    0 -0.22604475302E+03 -0.77303525122E+03 -0.93796914367E+02  0.12105213615E+04  0.89882388460E+03 0.  0.
         23    2    4    4    0    0 -0.67110583669E+02 -0.93769613515E+03 -0.15513228126E+03  0.95732816848E+03  0.92915688429E+02 0.  0.
         23    2    4    4    0    0 -0.15893416935E+03  0.16466088393E+03  0.61335366896E+02  0.25319319303E+03  0.89283194832E+02 0.  0.
          1    1    3    3  502    0  0.32704709667E+02  0.10608710550E+03  0.62923178462E+02  0.12760641981E+03  0.00000000000E+00 0. -1.
         -2    1    3    3    0  502  0.19334004335E+03  0.66694814572E+03  0.17933362745E+03  0.71718948080E+03  0.00000000000E+00 0.  1.
         11    1    5    5    0    0 -0.51874799562E+02 -0.63527140882E+03 -0.14845614201E+03  0.65444631849E+03  0.00000000000E+00 0.  1.
        -11    1    5    5    0    0 -0.15235784107E+02 -0.30242472633E+03 -0.66761392567E+01  0.30288184998E+03  0.00000000000E+00 0. -1.
          4    1    6    6  503    0 -0.60858745130E+02  0.97751776025E+01  0.72992192490E+01  0.62069473638E+02  0.00000000000E+00 0. -1.
         -4    1    6    6    0  503 -0.98075424215E+02  0.15488570633E+03  0.54036147647E+02  0.19112371939E+03  0.00000000000E+00 0.  1.
<mgrwt>
<rscale>  0 0.20499485E+04</rscale>
<asrwt>0</asrwt>
<pdfrwt beam="1">  1        1 0.14668134E+00 0.20499485E+04</pdfrwt>
<pdfrwt beam="2">  1       -2 0.16952132E+00 0.20499485E+04</pdfrwt>
<totfact> 0.28640662E+00</totfact>
</mgrwt>
</event>
<event>
12    4  0.4207946E-008  0.1387650E+04  0.7818608E-02  0.8962807E-01
          1   -1    0    0  501    0  0.00000000000E+00  0.00000000000E+00  0.14711790507E+04  0.14711790507E+04  0.00000000000E+00 0. -1.
         -2   -1    0    0    0  501 -0.00000000000E+00 -0.00000000000E+00 -0.32721578154E+03  0.32721578154E+03  0.00000000000E+00 0.  1.
        -24    2    1    2    0    0  0.26766544687E+03  0.26134137343E+03  0.56084510326E+03  0.67970086861E+03  0.86613717255E+02 0.  0.
        254    2    1    2    0    0 -0.26766544687E+03 -0.26134137343E+03  0.58311816591E+03  0.11186939636E+04  0.87835373510E+03 0.  0.
         23    2    4    4    0    0  0.20242301364E+03 -0.33349150516E+03  0.59564689423E+02  0.40538869343E+03  0.92738234133E+02 0.  0.
         23    2    4    4    0    0 -0.47008846051E+03  0.72150131722E+02  0.52355347648E+03  0.71330527022E+03  0.92235370471E+02 0.  0.
          3    1    3    3  502    0  0.15022056081E+03  0.19394139228E+03  0.31765311440E+03  0.40135144402E+03  0.00000000000E+00 0. -1.
         -4    1    3    3    0  502  0.11744488606E+03  0.67399981155E+02  0.24319198886E+03  0.27834942459E+03  0.00000000000E+00 0.  1.
         11    1    5    5    0    0  0.19506116478E+01 -0.12176015874E+02 -0.14974001370E+02  0.19397962919E+02  0.00000000000E+00 0. -1.
        -11    1    5    5    0    0  0.20047240200E+03 -0.32131548928E+03  0.74538690793E+02  0.38599073051E+03  0.00000000000E+00 0.  1.
          3    1    6    6  503    0 -0.10800762081E+02  0.19083140924E+02  0.19797015459E+02  0.29542250255E+02  0.00000000000E+00 0. -1.
         -3    1    6    6    0  503 -0.45928769843E+03  0.53066990798E+02  0.50375646102E+03  0.68376301996E+03  0.00000000000E+00 0.  1.
<mgrwt>
<rscale>  0 0.13876498E+04</rscale>
<asrwt>0</asrwt>
<pdfrwt beam="1">  1        1 0.22633523E+00 0.13876498E+04</pdfrwt>
<pdfrwt beam="2">  1       -2 0.50340891E-01 0.13876498E+04</pdfrwt>
<totfact> 0.21893156E+01</totfact>
</mgrwt>
</event>
<event>
12    4  0.4207946E-008  0.1290020E+04  0.7818608E-02  0.9037517E-01
         -2   -1    0    0    0  501 -0.00000000000E+00  0.00000000000E+00  0.26495492129E+03  0.26495492129E+03  0.00000000000E+00 0.  1.
          1   -1    0    0  501    0  0.00000000000E+00 -0.00000000000E+00 -0.15702226029E+04  0.15702226029E+04  0.00000000000E+00 0. -1.
        -24    2    1    2    0    0  0.28967425425E+03 -0.89742257545E+02 -0.45074933439E+03  0.54928076741E+03  0.81052776843E+02 0.  0.
        254    2    1    2    0    0 -0.28967425425E+03  0.89742257545E+02 -0.85451834717E+03  0.12858967567E+04  0.91179165216E+03 0.  0.
         23    2    4    4    0    0  0.12230391261E+03  0.18715533931E+03  0.81144083732E+02  0.25497330083E+03  0.91878472650E+02 0.  0.
         23    2    4    4    0    0 -0.41197816686E+03 -0.97413081769E+02 -0.93566243090E+03  0.10309234559E+04  0.90131397738E+02 0.  0.
          1    1    3    3  502    0  0.34139731460E+02  0.15265341219E+02 -0.47093694218E+02  0.60136244826E+02  0.00000000000E+00 0. -1.
         -2    1    3    3    0  502  0.25553452279E+03 -0.10500759876E+03 -0.40365564017E+03  0.48914452259E+03  0.00000000000E+00 0.  1.
         11    1    5    5    0    0 -0.79251772193E+01 -0.32002890338E+01  0.10944611064E+02  0.13886496866E+02  0.00000000000E+00 0. -1.
        -11    1    5    5    0    0  0.13022908983E+03  0.19035562835E+03  0.70199472668E+02  0.24108680396E+03  0.00000000000E+00 0.  1.
          3    1    6    6  503    0 -0.14099544263E+03 -0.73177426058E+02 -0.39267084365E+03  0.42358593223E+03  0.00000000000E+00 0. -1.
         -3    1    6    6    0  503 -0.27098272423E+03 -0.24235655711E+02 -0.54299158725E+03  0.60733752367E+03  0.00000000000E+00 0.  1.
<mgrwt>
<rscale>  0 0.12900205E+04</rscale>
<asrwt>0</asrwt>
<pdfrwt beam="1">  1        1 0.24157271E+00 0.12900205E+04</pdfrwt>
<pdfrwt beam="2">  1       -2 0.40762296E-01 0.12900205E+04</pdfrwt>
<totfact> 0.28765302E+01</totfact>
</mgrwt>
</event>
<event>
12    4  0.4207946E-008  0.1375624E+04  0.7818608E-02  0.8971654E-01
         -2   -1    0    0    0  501 -0.00000000000E+00  0.00000000000E+00  0.24862454874E+03  0.24862454874E+03  0.00000000000E+00 0.  1.
          1   -1    0    0  501    0  0.00000000000E+00 -0.00000000000E+00 -0.19028110599E+04  0.19028110599E+04  0.00000000000E+00 0. -1.
        -24    2    1    2    0    0 -0.47641716798E+02 -0.15298184817E+03 -0.10283467501E+04  0.10437904710E+04  0.79550800132E+02 0.  0.
        254    2    1    2    0    0  0.47641716798E+02  0.15298184817E+03 -0.62583976104E+03  0.11076451376E+04  0.89973838720E+03 0.  0.
         23    2    4    4    0    0  0.22894843491E+03  0.41134763572E+03 -0.61283746507E+03  0.77820076701E+03  0.91664671053E+02 0.  0.
         23    2    4    4    0    0 -0.18130671811E+03 -0.25836578755E+03 -0.13002295967E+02  0.32944437063E+03  0.93485439671E+02 0.  0.
          3    1    3    3  502    0 -0.21770873108E+02 -0.98200078940E+02 -0.83850146566E+03  0.84451283847E+03  0.00000000000E+00 0. -1.
         -4    1    3    3    0  502 -0.25870843689E+02 -0.54781769232E+02 -0.18984528445E+03  0.19927763252E+03  0.00000000000E+00 0.  1.
         11    1    5    5    0    0  0.10952694022E+03  0.25014913272E+03 -0.29189857119E+03  0.39971929537E+03  0.00000000000E+00 0.  1.
        -11    1    5    5    0    0  0.11942149469E+03  0.16119850301E+03 -0.32093889389E+03  0.37848147164E+03  0.00000000000E+00 0. -1.
          1    1    6    6  503    0 -0.18544025145E+03 -0.21401771565E+03 -0.21889510497E+02  0.28402609059E+03  0.00000000000E+00 0. -1.
         -1    1    6    6    0  503  0.41335333364E+01 -0.44348071904E+02  0.88872145297E+01  0.45418280037E+02  0.00000000000E+00 0.  1.
<mgrwt>
<rscale>  0 0.13756243E+04</rscale>
<asrwt>0</asrwt>
<pdfrwt beam="1">  1        1 0.29274016E+00 0.13756243E+04</pdfrwt>
<pdfrwt beam="2">  1       -2 0.38249931E-01 0.13756243E+04</pdfrwt>
<totfact> 0.19211776E+01</totfact>
</mgrwt>
</event>
<event>
12    4  0.4207946E-008  0.1165224E+04  0.7818608E-02  0.9143852E-01
          1   -1    0    0  501    0  0.00000000000E+00  0.00000000000E+00  0.85390874865E+03  0.85390874865E+03  0.00000000000E+00 0. -1.
         -2   -1    0    0    0  501 -0.00000000000E+00 -0.00000000000E+00 -0.39750949089E+03  0.39750949089E+03  0.00000000000E+00 0.  1.
        -24    2    1    2    0    0 -0.49339158569E+02 -0.15694294839E+03  0.25714284139E+03  0.31516396310E+03  0.78360966932E+02 0.  0.
        254    2    1    2    0    0  0.49339158569E+02  0.15694294839E+03  0.19925641637E+03  0.93625427645E+03  0.89989083176E+03 0.  0.
         23    2    4    4    0    0 -0.21930181411E+03  0.42848370523E+01  0.46258893840E+03  0.51989746493E+03  0.90516311320E+02 0.  0.
         23    2    4    4    0    0  0.26864097268E+03  0.15265811133E+03 -0.26333252203E+03  0.41635681152E+03  0.92393215021E+02 0.  0.
          1    1    3    3  502    0 -0.10143974090E+02 -0.12700149245E+03  0.21670700561E+03  0.25138457704E+03  0.00000000000E+00 0. -1.
         -2    1    3    3    0  502 -0.39195184479E+02 -0.29941455937E+02  0.40435835787E+02  0.63779386056E+02  0.00000000000E+00 0.  1.
         11    1    5    5    0    0 -0.20105129662E+03  0.31815240715E+02  0.38311391148E+03  0.43383188286E+03  0.00000000000E+00 0.  1.
        -11    1    5    5    0    0 -0.18250517493E+02 -0.27530403662E+02  0.79475026913E+02  0.86065582072E+02  0.00000000000E+00 0. -1.
          3    1    6    6  503    0  0.94591355729E+02  0.11479238563E+02 -0.53138917101E+02  0.10910106327E+03  0.00000000000E+00 0. -1.
         -3    1    6    6    0  503  0.17404961695E+03  0.14117887277E+03 -0.21019360493E+03  0.30725574825E+03  0.00000000000E+00 0.  1.
<mgrwt>
<rscale>  0 0.11652242E+04</rscale>
<asrwt>0</asrwt>
<pdfrwt beam="1">  1        1 0.13137058E+00 0.11652242E+04</pdfrwt>
<pdfrwt beam="2">  1       -2 0.61155307E-01 0.11652242E+04</pdfrwt>
<totfact> 0.42987848E+01</totfact>
</mgrwt>
</event>
<event>
12    4  0.4207946E-008  0.2297459E+04  0.7818608E-02  0.8478924E-01
         -2   -1    0    0    0  501 -0.00000000000E+00  0.00000000000E+00  0.62382924669E+03  0.62382924669E+03  0.00000000000E+00 0.  1.
          1   -1    0    0  501    0  0.00000000000E+00 -0.00000000000E+00 -0.21152888943E+04  0.21152888943E+04  0.00000000000E+00 0. -1.
        -24    2    1    2    0    0 -0.40651789510E+03 -0.85393476518E+03 -0.34691151979E+03  0.10104647680E+04  0.78930746068E+02 0.  0.
        254    2    1    2    0    0  0.40651789510E+03  0.85393476518E+03 -0.11445481278E+04  0.17286533729E+04  0.88531953816E+03 0.  0.
         23    2    4    4    0    0  0.35049156081E+03  0.10168989877E+04 -0.84481706002E+03  0.13707086882E+04  0.90545886755E+02 0.  0.
         23    2    4    4    0    0  0.56026334296E+02 -0.16296422247E+03 -0.29973106775E+03  0.35794468475E+03  0.92678996666E+02 0.  0.
          3    1    3    3  502    0 -0.36842523982E+02 -0.98816335631E+02 -0.14798908344E+02  0.10649435407E+03  0.00000000000E+00 0. -1.
         -4    1    3    3    0  502 -0.36967537112E+03 -0.75511842955E+03 -0.33211261145E+03  0.90397041398E+03  0.00000000000E+00 0.  1.
         11    1    5    5    0    0  0.32094745869E+03  0.95849066791E+03 -0.81655408513E+03  0.12994122539E+04  0.00000000000E+00 0.  1.
        -11    1    5    5    0    0  0.29544102111E+02  0.58408319744E+02 -0.28262974895E+02  0.71296434236E+02  0.00000000000E+00 0. -1.
          1    1    6    6  503    0 -0.25767321629E+02 -0.47855559861E+02 -0.88647379675E+02  0.10398301494E+03  0.00000000000E+00 0. -1.
         -1    1    6    6    0  503  0.81793655925E+02 -0.11510866261E+03 -0.21108368808E+03  0.25396166980E+03  0.00000000000E+00 0.  1.
<mgrwt>
<rscale>  0 0.22974587E+04</rscale>
<asrwt>0</asrwt>
<pdfrwt beam="1">  1        1 0.32542906E+00 0.22974587E+04</pdfrwt>
<pdfrwt beam="2">  1       -2 0.95973731E-01 0.22974587E+04</pdfrwt>
<totfact> 0.17984687E+00</totfact>
</mgrwt>
</event>
<event>
12    4  0.4207946E-008  0.1465633E+04  0.7818608E-02  0.8907634E-01
         -2   -1    0    0    0  501 -0.00000000000E+00  0.00000000000E+00  0.14026647719E+04  0.14026647719E+04  0.00000000000E+00 0.  1.
          1   -1    0    0  501    0  0.00000000000E+00 -0.00000000000E+00 -0.38285692247E+03  0.38285692247E+03  0.00000000000E+00 0. -1.
        -24    2    1    2    0    0 -0.43087657755E+03  0.13064861858E+03  0.27239105606E+03  0.53222520920E+03  0.79643576473E+02 0.  0.
        254    2    1    2    0    0  0.43087657755E+03 -0.13064861858E+03  0.74741679332E+03  0.12532964851E+04  0.89966467646E+03 0.  0.
         23    2    4    4    0    0  0.33282984109E+03 -0.37969665738E+03  0.81414612985E+03  0.96229831299E+03  0.90768208575E+02 0.  0.
         23    2    4    4    0    0  0.98046736451E+02  0.24904803880E+03 -0.66729336532E+02  0.29099817213E+03  0.92677093577E+02 0.  0.
          3    1    3    3  502    0 -0.28022771410E+03  0.51800130619E+02  0.14487330011E+03  0.31968593708E+03  0.00000000000E+00 0. -1.
         -4    1    3    3    0  502 -0.15064886344E+03  0.78848487961E+02  0.12751775595E+03  0.21253927212E+03  0.00000000000E+00 0.  1.
         11    1    5    5    0    0  0.31965458500E+03 -0.34506039344E+03  0.78507472906E+03  0.91519837141E+03  0.00000000000E+00 0.  1.
        -11    1    5    5    0    0  0.13175256095E+02 -0.34636263936E+02  0.29071400796E+02  0.47099941580E+02  0.00000000000E+00 0. -1.
          1    1    6    6  503    0  0.33702244560E+02  0.16189997495E+03 -0.31711385783E+01  0.16540102569E+03  0.00000000000E+00 0. -1.
         -1    1    6    6    0  503  0.64344491891E+02  0.87148063841E+02 -0.63558197954E+02  0.12559714644E+03  0.00000000000E+00 0.  1.
<mgrwt>
<rscale>  0 0.14656329E+04</rscale>
<asrwt>0</asrwt>
<pdfrwt beam="1">  1        1 0.58901066E-01 0.14656329E+04</pdfrwt>
<pdfrwt beam="2">  1       -2 0.21579458E+00 0.14656329E+04</pdfrwt>
<totfact> 0.56635544E+00</totfact>
</mgrwt>
</event>
<event>
12    4  0.4207946E-008  0.2332178E+04  0.7818608E-02  0.8465341E-01
         -2   -1    0    0    0  501 -0.00000000000E+00  0.00000000000E+00  0.91888019183E+03  0.91888019183E+03  0.00000000000E+00 0.  1.
          1   -1    0    0  501    0  0.00000000000E+00 -0.00000000000E+00 -0.14798051828E+04  0.14798051828E+04  0.00000000000E+00 0. -1.
        -24    2    1    2    0    0  0.42009828920E+03 -0.82733950263E+03  0.10256223238E+03  0.93690417671E+03  0.79354896690E+02 0.  0.
        254    2    1    2    0    0 -0.42009828920E+03  0.82733950263E+03 -0.66348722337E+03  0.14617811979E+04  0.91412020537E+03 0.  0.
         23    2    4    4    0    0 -0.47392812409E+03  0.18588133005E+03 -0.62352728375E+03  0.81015349191E+03  0.91666085426E+02 0.  0.
         23    2    4    4    0    0  0.53829834892E+02  0.64145817258E+03 -0.39959939622E+02  0.65162770602E+03  0.93035650080E+02 0.  0.
          3    1    3    3  502    0  0.17193457977E+03 -0.38910877526E+03  0.79434501580E+02  0.43275510251E+03  0.00000000000E+00 0. -1.
         -4    1    3    3    0  502  0.24816370943E+03 -0.43823072737E+03  0.23127730795E+02  0.50414907420E+03  0.00000000000E+00 0.  1.
         11    1    5    5    0    0 -0.34293292655E+03  0.12438264271E+03 -0.37916723941E+03  0.52615760886E+03  0.00000000000E+00 0.  1.
        -11    1    5    5    0    0 -0.13099519754E+03  0.61498687335E+02 -0.24436004433E+03  0.28399588305E+03  0.00000000000E+00 0. -1.
          1    1    6    6  503    0  0.50915163033E+02  0.63055206696E+03 -0.25280230255E+02  0.63310927415E+03  0.00000000000E+00 0. -1.
         -1    1    6    6    0  503  0.29146718593E+01  0.10906105621E+02 -0.14679709367E+02  0.18518431871E+02  0.00000000000E+00 0.  1.
<mgrwt>
<rscale>  0 0.23321781E+04</rscale>
<asrwt>0</asrwt>
<pdfrwt beam="1">  1        1 0.22766233E+00 0.23321781E+04</pdfrwt>
<pdfrwt beam="2">  1       -2 0.14136619E+00 0.23321781E+04</pdfrwt>
<totfact> 0.18724639E+00</totfact>
</mgrwt>
</event>
<event>
12    4  0.4207946E-008  0.1642767E+04  0.7818608E-02  0.8794697E-01
         -2   -1    0    0    0  501 -0.00000000000E+00  0.00000000000E+00  0.26047867102E+03  0.26047867102E+03  0.00000000000E+00 0.  1.
          1   -1    0    0  501    0  0.00000000000E+00 -0.00000000000E+00 -0.25901199380E+04  0.25901199380E+04  0.00000000000E+00 0. -1.
        -24    2    1    2    0    0 -0.17248741928E+03 -0.28903667272E+03 -0.16144471578E+04  0.16511873298E+04  0.81767136746E+02 0.  0.
        254    2    1    2    0    0  0.17248741928E+03  0.28903667272E+03 -0.71519410915E+03  0.11994112792E+04  0.90210348351E+03 0.  0.
         23    2    4    4    0    0  0.29930007827E+03 -0.15543095822E+03 -0.76652262064E+01  0.34991746711E+03  0.92973966651E+02 0.  0.
         23    2    4    4    0    0 -0.12681265899E+03  0.44446763094E+03 -0.70752888294E+03  0.84949381210E+03  0.86079563045E+02 0.  0.
          3    1    3    3  502    0 -0.13776385796E+03 -0.17828420254E+03 -0.92543481880E+03  0.95246718646E+03  0.00000000000E+00 0. -1.
         -2    1    3    3    0  502 -0.34723561320E+02 -0.11075247018E+03 -0.68901233901E+03  0.69872014331E+03  0.00000000000E+00 0.  1.
         11    1    5    5    0    0  0.67392852069E+02  0.54015315057E+01 -0.21950393216E+01  0.67644595129E+02  0.00000000000E+00 0. -1.
        -11    1    5    5    0    0  0.23190722620E+03 -0.16083248972E+03 -0.54701868848E+01  0.28227287198E+03  0.00000000000E+00 0.  1.
          1    1    6    6  503    0 -0.42842279136E+02  0.21660869731E+03 -0.26706469204E+03  0.34652321476E+03  0.00000000000E+00 0. -1.
         -1    1    6    6    0  503 -0.83970379850E+02  0.22785893363E+03 -0.44046419091E+03  0.50297059735E+03  0.00000000000E+00 0.  1.
<mgrwt>
<rscale>  0 0.16427672E+04</rscale>
<asrwt>0</asrwt>
<pdfrwt beam="1">  1        1 0.39847999E+00 0.16427672E+04</pdfrwt>
<pdfrwt beam="2">  1       -2 0.40073642E-01 0.16427672E+04</pdfrwt>
<totfact> 0.58137576E+00</totfact>
</mgrwt>
</event>
<event>
12    4  0.4207946E-008  0.1671944E+04  0.7818608E-02  0.8777530E-01
         -2   -1    0    0    0  501 -0.00000000000E+00  0.00000000000E+00  0.42211211574E+03  0.42211211574E+03  0.00000000000E+00 0.  1.
          1   -1    0    0  501    0  0.00000000000E+00 -0.00000000000E+00 -0.16556006069E+04  0.16556006069E+04  0.00000000000E+00 0. -1.
        -24    2    1    2    0    0 -0.19373692567E+03  0.27857130525E+03 -0.10381638307E+04  0.10950872169E+04  0.79346737202E+02 0.  0.
        254    2    1    2    0    0  0.19373692567E+03 -0.27857130525E+03 -0.19532466040E+03  0.98262550572E+03  0.90125756199E+03 0.  0.
         23    2    4    4    0    0 -0.23060217618E+03 -0.41268522469E+03 -0.21455462719E+03  0.52737808602E+03  0.92776609242E+02 0.  0.
         23    2    4    4    0    0  0.42433910186E+03  0.13411391945E+03  0.19229966794E+02  0.45524741970E+03  0.93969169229E+02 0.  0.
          1    1    3    3  502    0 -0.74039078939E+02  0.14431841062E+03 -0.38890442009E+03  0.42137422420E+03  0.00000000000E+00 0. -1.
         -2    1    3    3    0  502 -0.11969784673E+03  0.13425289462E+03 -0.64925941062E+03  0.67371299268E+03  0.00000000000E+00 0.  1.
         11    1    5    5    0    0 -0.78670078446E+02 -0.65505335682E+02 -0.54764494939E+02  0.11609944079E+03  0.00000000000E+00 0.  1.
        -11    1    5    5    0    0 -0.15193209774E+03 -0.34717988901E+03 -0.15979013225E+03  0.41127864523E+03  0.00000000000E+00 0. -1.
          2    1    6    6  503    0  0.37775579400E+03  0.13282368754E+03 -0.94314016371E+01  0.40053779249E+03  0.00000000000E+00 0. -1.
         -2    1    6    6    0  503  0.46583307853E+02  0.12902319007E+01  0.28661368431E+02  0.54709627207E+02  0.00000000000E+00 0.  1.
<mgrwt>
<rscale>  0 0.16719439E+04</rscale>
<asrwt>0</asrwt>
<pdfrwt beam="1">  1        1 0.25470779E+00 0.16719439E+04</pdfrwt>
<pdfrwt beam="2">  1       -2 0.64940325E-01 0.16719439E+04</pdfrwt>
<totfact> 0.93598186E+00</totfact>
</mgrwt>
</event>
<event>
12    4  0.4207946E-008  0.2168900E+04  0.7818608E-02  0.8531485E-01
          1   -1    0    0  501    0  0.00000000000E+00  0.00000000000E+00  0.16459193451E+04  0.16459193451E+04  0.00000000000E+00 0. -1.
         -2   -1    0    0    0  501 -0.00000000000E+00 -0.00000000000E+00 -0.71451395043E+03  0.71451395043E+03  0.00000000000E+00 0.  1.
        -24    2    1    2    0    0  0.88743770794E+03 -0.16325451964E+02  0.34133451151E+03  0.95425682193E+03  0.79275643161E+02 0.  0.
        254    2    1    2    0    0 -0.88743770794E+03  0.16325451964E+02  0.59007088315E+03  0.14061764736E+04  0.91724392715E+03 0.  0.
         23    2    4    4    0    0 -0.36180538610E+02 -0.28565615294E+03  0.35956669597E+03  0.46951478634E+03  0.90815508879E+02 0.  0.
         23    2    4    4    0    0 -0.85125716933E+03  0.30198160491E+03  0.23050418718E+03  0.93666168725E+03  0.91494688511E+02 0.  0.
          1    1    3    3  502    0  0.60274463138E+03 -0.48079015041E+02  0.23286262947E+03  0.64794883020E+03  0.00000000000E+00 0. -1.
         -2    1    3    3    0  502  0.28469307655E+03  0.31753563078E+02  0.10847188204E+03  0.30630799173E+03  0.00000000000E+00 0.  1.
         11    1    5    5    0    0 -0.56259003363E+02 -0.27076867049E+03  0.33584416551E+03  0.43505407927E+03  0.00000000000E+00 0. -1.
        -11    1    5    5    0    0  0.20078464753E+02 -0.14887482452E+02  0.23722530452E+02  0.34460707068E+02  0.00000000000E+00 0.  1.
          4    1    6    6  503    0 -0.31338064327E+03  0.14875538814E+03  0.11607947463E+03  0.36580054334E+03  0.00000000000E+00 0. -1.
         -4    1    6    6    0  503 -0.53787652606E+03  0.15322621677E+03  0.11442471255E+03  0.57086114391E+03  0.00000000000E+00 0.  1.
<mgrwt>
<rscale>  0 0.21689005E+04</rscale>
<asrwt>0</asrwt>
<pdfrwt beam="1">  1        1 0.25321836E+00 0.21689005E+04</pdfrwt>
<pdfrwt beam="2">  1       -2 0.10992522E+00 0.21689005E+04</pdfrwt>
<totfact> 0.27415401E+00</totfact>
</mgrwt>
</event>
<event>
12    4  0.4207946E-008  0.1769821E+04  0.7818608E-02  0.8722515E-01
         -4   -1    0    0    0  501 -0.00000000000E+00  0.00000000000E+00  0.76160645438E+03  0.76160645438E+03  0.00000000000E+00 0.  1.
          3   -1    0    0  501    0  0.00000000000E+00 -0.00000000000E+00 -0.10281772110E+04  0.10281772110E+04  0.00000000000E+00 0. -1.
        -24    2    1    2    0    0  0.40829991334E+03 -0.40546624911E+03  0.21920127453E+03  0.62121769835E+03  0.82161618675E+02 0.  0.
        254    2    1    2    0    0 -0.40829991334E+03  0.40546624911E+03 -0.48577203117E+03  0.11685659671E+04  0.89356603264E+03 0.  0.
         23    2    4    4    0    0 -0.17894303984E+03  0.27254410399E+03  0.22377173219E+03  0.40579028341E+03  0.91055290078E+02 0.  0.
         23    2    4    4    0    0 -0.22935687350E+03  0.13292214512E+03 -0.70954376337E+03  0.76277568365E+03  0.90008440432E+02 0.  0.
          3    1    3    3  502    0  0.12837547203E+03 -0.16568893852E+03  0.11048605683E+03  0.23693934861E+03  0.00000000000E+00 0. -1.
         -4    1    3    3    0  502  0.27992444130E+03 -0.23977731059E+03  0.10871521770E+03  0.38427834974E+03  0.00000000000E+00 0.  1.
         11    1    5    5    0    0 -0.14254052028E+03  0.21669149564E+03  0.21809960795E+03  0.33888116382E+03  0.00000000000E+00 0. -1.
        -11    1    5    5    0    0 -0.36402519559E+02  0.55852608354E+02  0.56721242375E+01  0.66909119584E+02  0.00000000000E+00 0.  1.
          3    1    6    6  503    0 -0.21584200166E+03  0.14513284901E+03 -0.63873944019E+03  0.68966614097E+03  0.00000000000E+00 0. -1.
         -3    1    6    6    0  503 -0.13514871833E+02 -0.12210703894E+02 -0.70804323172E+02  0.73109542675E+02  0.00000000000E+00 0.  1.
<mgrwt>
<rscale>  0 0.17698208E+04</rscale>
<asrwt>0</asrwt>
<pdfrwt beam="1">  1        3 0.15818111E+00 0.17698208E+04</pdfrwt>
<pdfrwt beam="2">  1       -4 0.11717022E+00 0.17698208E+04</pdfrwt>
<totfact> 0.34282760E-01</totfact>
</mgrwt>
</event>
<event>
12    4  0.4207946E-008  0.2422437E+04  0.7818608E-02  0.8431151E-01
          3   -1    0    0  501    0  0.00000000000E+00  0.00000000000E+00  0.10121763264E+04  0.10121763264E+04  0.00000000000E+00 0. -1.
         -4   -1    0    0    0  501 -0.00000000000E+00 -0.00000000000E+00 -0.14494016930E+04  0.14494016930E+04  0.00000000000E+00 0.  1.
        -24    2    1    2    0    0 -0.93339901147E+03 -0.25811341231E+03 -0.60426255824E+03  0.11441098470E+04  0.77445816633E+02 0.  0.
        254    2    1    2    0    0  0.93339901147E+03  0.25811341231E+03  0.16703719164E+03  0.13174681724E+04  0.87747633231E+03 0.  0.
         23    2    4    4    0    0  0.51124696870E+03  0.40757691311E+03  0.43175680017E+03  0.78882763271E+03  0.91338362853E+02 0.  0.
         23    2    4    4    0    0  0.42215204276E+03 -0.14946350080E+03 -0.26471960853E+03  0.52864053972E+03  0.93982252674E+02 0.  0.
          3    1    3    3  502    0 -0.21227504156E+02 -0.18939860949E+02 -0.19994722171E+02  0.34772319165E+02  0.00000000000E+00 0. -1.
         -4    1    3    3    0  502 -0.91217150731E+03 -0.23917355136E+03 -0.58426783607E+03  0.11093375278E+04  0.00000000000E+00 0.  1.
         11    1    5    5    0    0  0.25927226490E+02  0.53327456900E+02  0.40792780109E+02  0.71972839613E+02  0.00000000000E+00 0. -1.
        -11    1    5    5    0    0  0.48531974221E+03  0.35424945621E+03  0.39096402006E+03  0.71685479310E+03  0.00000000000E+00 0.  1.
          2    1    6    6  503    0  0.63124799037E+02 -0.38912392656E+02 -0.10145833684E+02  0.74845524227E+02  0.00000000000E+00 0. -1.
         -2    1    6    6    0  503  0.35902724372E+03 -0.11055110814E+03 -0.25457377485E+03  0.45379501549E+03  0.00000000000E+00 0.  1.
<mgrwt>
<rscale>  0 0.24224369E+04</rscale>
<asrwt>0</asrwt>
<pdfrwt beam="1">  1        3 0.15571944E+00 0.24224369E+04</pdfrwt>
<pdfrwt beam="2">  1       -4 0.22298487E+00 0.24224369E+04</pdfrwt>
<totfact> 0.56061901E-02</totfact>
</mgrwt>
</event>
<event>
12    4  0.4207946E-008  0.1947419E+04  0.7818608E-02  0.8631607E-01
          1   -1    0    0  501    0  0.00000000000E+00  0.00000000000E+00  0.24984630351E+04  0.24984630351E+04  0.00000000000E+00 0. -1.
         -2   -1    0    0    0  501 -0.00000000000E+00 -0.00000000000E+00 -0.37947725228E+03  0.37947725228E+03  0.00000000000E+00 0.  1.
        -24    2    1    2    0    0 -0.43140718309E+03  0.61537106947E+03  0.10284369999E+04  0.12762708953E+04  0.79943885252E+02 0.  0.
        254    2    1    2    0    0  0.43140718309E+03 -0.61537106947E+03  0.10905487829E+04  0.16016693920E+04  0.90069666519E+03 0.  0.
         23    2    4    4    0    0 -0.10377703114E+03 -0.42207662810E+03  0.88468947114E+03  0.98994883325E+03  0.91678132235E+02 0.  0.
         23    2    4    4    0    0  0.53518421423E+03 -0.19329444137E+03  0.20585931179E+03  0.61172055879E+03  0.89661037090E+02 0.  0.
          3    1    3    3  502    0 -0.30570191746E+02  0.30258391256E+02  0.92031594032E+02  0.10158701278E+03  0.00000000000E+00 0. -1.
         -4    1    3    3    0  502 -0.40083699134E+03  0.58511267822E+03  0.93640540586E+03  0.11746838826E+04  0.00000000000E+00 0.  1.
         11    1    5    5    0    0 -0.46257182052E+02 -0.30430806518E+03  0.68644081833E+03  0.75229257772E+03  0.00000000000E+00 0. -1.
        -11    1    5    5    0    0 -0.57519849089E+02 -0.11776856293E+03  0.19824865280E+03  0.23765625553E+03  0.00000000000E+00 0.  1.
          1    1    6    6  503    0  0.12251929425E+03 -0.11817458682E+02  0.22889820051E+02  0.12519813759E+03  0.00000000000E+00 0. -1.
         -1    1    6    6    0  503  0.41266491998E+03 -0.18147698269E+03  0.18296949174E+03  0.48652242120E+03  0.00000000000E+00 0.  1.
<mgrwt>
<rscale>  0 0.19474187E+04</rscale>
<asrwt>0</asrwt>
<pdfrwt beam="1">  1        1 0.38437892E+00 0.19474187E+04</pdfrwt>
<pdfrwt beam="2">  1       -2 0.58381117E-01 0.19474187E+04</pdfrwt>
<totfact> 0.30521542E+00</totfact>
</mgrwt>
</event>
<event>
12    4  0.4207946E-008  0.1310837E+04  0.7818608E-02  0.9021015E-01
         -2   -1    0    0    0  501 -0.00000000000E+00  0.00000000000E+00  0.38042517154E+03  0.38042517154E+03  0.00000000000E+00 0.  1.
          1   -1    0    0  501    0  0.00000000000E+00 -0.00000000000E+00 -0.11291927942E+04  0.11291927942E+04  0.00000000000E+00 0. -1.
        -24    2    1    2    0    0  0.31396852482E+03 -0.12645347407E+03 -0.18764375343E+03  0.39498369692E+03  0.78963453231E+02 0.  0.
        254    2    1    2    0    0 -0.31396852482E+03  0.12645347407E+03 -0.56112386918E+03  0.11146342688E+04  0.90165561103E+03 0.  0.
         23    2    4    4    0    0  0.10692680801E+03  0.33307945235E+03  0.20323059319E+02  0.36216085528E+03  0.91499696761E+02 0.  0.
         23    2    4    4    0    0 -0.42089533284E+03 -0.20662597828E+03 -0.58144692850E+03  0.75247341350E+03  0.91041371143E+02 0.  0.
          1    1    3    3  502    0  0.29858632644E+03 -0.13590481178E+03 -0.16900440544E+03  0.36903441745E+03  0.00000000000E+00 0. -1.
         -2    1    3    3    0  502  0.15382198386E+02  0.94513377109E+01 -0.18639347991E+02  0.25949279474E+02  0.00000000000E+00 0.  1.
         11    1    5    5    0    0  0.12280483517E+03  0.31079881616E+03  0.17193159634E+02  0.33462297650E+03  0.00000000000E+00 0.  1.
        -11    1    5    5    0    0 -0.15878027156E+02  0.22280636195E+02  0.31298996850E+01  0.27537878779E+02  0.00000000000E+00 0. -1.
          1    1    6    6  503    0 -0.13030507120E+03 -0.11243631152E+03 -0.20417521777E+03  0.26703717958E+03  0.00000000000E+00 0. -1.
         -1    1    6    6    0  503 -0.29059026164E+03 -0.94189666763E+02 -0.37727171073E+03  0.48543623392E+03  0.00000000000E+00 0.  1.
<mgrwt>
<rscale>  0 0.13108369E+04</rscale>
<asrwt>0</asrwt>
<pdfrwt beam="1">  1        1 0.17372197E+00 0.13108369E+04</pdfrwt>
<pdfrwt beam="2">  1       -2 0.58526950E-01 0.13108369E+04</pdfrwt>
<totfact> 0.28327040E+01</totfact>
</mgrwt>
</event>
<event>
12    4  0.4207946E-008  0.1587439E+04  0.7818608E-02  0.8828302E-01
         -2   -1    0    0    0  501 -0.00000000000E+00  0.00000000000E+00  0.43631514644E+03  0.43631514644E+03  0.00000000000E+00 0.  1.
          1   -1    0    0  501    0  0.00000000000E+00 -0.00000000000E+00 -0.14438883956E+04  0.14438883956E+04  0.00000000000E+00 0. -1.
        -24    2    1    2    0    0  0.11770692625E+03  0.26380276559E+03  0.19084885581E+03  0.35410026863E+03  0.74275802664E+02 0.  0.
        254    2    1    2    0    0 -0.11770692625E+03 -0.26380276559E+03 -0.11984221050E+04  0.15261032734E+04  0.89962705594E+03 0.  0.
         23    2    4    4    0    0 -0.38276101167E+03 -0.30869204102E+03 -0.29881994802E+03  0.58251614545E+03  0.90746515819E+02 0.  0.
         23    2    4    4    0    0  0.26505408542E+03  0.44889275422E+02 -0.89960215695E+03  0.94358712795E+03  0.93829163937E+02 0.  0.
          1    1    3    3  502    0  0.35616648386E+02  0.39232455355E+02  0.65122346315E+02  0.83956245658E+02  0.00000000000E+00 0. -1.
         -2    1    3    3    0  502  0.82090277863E+02  0.22457031024E+03  0.12572650949E+03  0.27014402298E+03  0.00000000000E+00 0.  1.
         11    1    5    5    0    0 -0.23859203335E+03 -0.20247019064E+03 -0.23886621262E+03  0.39367169572E+03  0.00000000000E+00 0. -1.
        -11    1    5    5    0    0 -0.14416897831E+03 -0.10622185038E+03 -0.59953735401E+02  0.18884444973E+03  0.00000000000E+00 0.  1.
          1    1    6    6  503    0  0.24330960522E+03  0.30042696099E+02 -0.68841304183E+03  0.73076305582E+03  0.00000000000E+00 0. -1.
         -1    1    6    6    0  503  0.21744480198E+02  0.14846579324E+02 -0.21118911512E+03  0.21282407214E+03  0.00000000000E+00 0.  1.
<mgrwt>
<rscale>  0 0.15874387E+04</rscale>
<asrwt>0</asrwt>
<pdfrwt beam="1">  1        1 0.22213668E+00 0.15874387E+04</pdfrwt>
<pdfrwt beam="2">  1       -2 0.67125407E-01 0.15874387E+04</pdfrwt>
<totfact> 0.12284717E+01</totfact>
</mgrwt>
</event>
<event>
12    4  0.4207946E-008  0.1195334E+04  0.7818608E-02  0.9116950E-01
          1   -1    0    0  501    0  0.00000000000E+00  0.00000000000E+00  0.29541148065E+03  0.29541148065E+03  0.00000000000E+00 0. -1.
         -2   -1    0    0    0  501 -0.00000000000E+00 -0.00000000000E+00 -0.12091809470E+04  0.12091809470E+04  0.00000000000E+00 0.  1.
        -24    2    1    2    0    0 -0.15298022408E+03  0.49952451479E+02  0.47056675411E+02  0.18389187390E+03  0.75522805957E+02 0.  0.
        254    2    1    2    0    0  0.15298022408E+03 -0.49952451479E+02 -0.96082614175E+03  0.13207005537E+04  0.89172018122E+03 0.  0.
         23    2    4    4    0    0 -0.16339122775E+03 -0.11781298370E+03  0.73554826795E+02  0.23312448159E+03  0.91433685999E+02 0.  0.
         23    2    4    4    0    0  0.31637145183E+03  0.67860532223E+02 -0.10343809685E+04  0.10875760721E+04  0.90453177100E+02 0.  0.
          1    1    3    3  502    0 -0.14108857343E+03  0.24035732714E+02  0.56476869602E+02  0.15386142727E+03  0.00000000000E+00 0. -1.
         -2    1    3    3    0  502 -0.11891650641E+02  0.25916718765E+02 -0.94201941905E+01  0.30030446635E+02  0.00000000000E+00 0.  1.
         11    1    5    5    0    0 -0.66428656401E+01 -0.11539250953E+02  0.38226656535E+02  0.40479121116E+02  0.00000000000E+00 0.  1.
        -11    1    5    5    0    0 -0.15674836211E+03 -0.10627373275E+03  0.35328170260E+02  0.19264536047E+03  0.00000000000E+00 0. -1.
          3    1    6    6  503    0  0.78457558097E+02  0.58514903091E+02 -0.30098517393E+03  0.31649906355E+03  0.00000000000E+00 0. -1.
         -3    1    6    6    0  503  0.23791389373E+03  0.93456291312E+01 -0.73339579462E+03  0.77107700859E+03  0.00000000000E+00 0.  1.
<mgrwt>
<rscale>  0 0.11953342E+04</rscale>
<asrwt>0</asrwt>
<pdfrwt beam="1">  1        1 0.45447920E-01 0.11953342E+04</pdfrwt>
<pdfrwt beam="2">  1       -2 0.18602784E+00 0.11953342E+04</pdfrwt>
<totfact> 0.12731383E+01</totfact>
</mgrwt>
</event>
<event>
12    4  0.4207946E-008  0.1577501E+04  0.7818608E-02  0.8834491E-01
         -2   -1    0    0    0  501 -0.00000000000E+00  0.00000000000E+00  0.38715910042E+03  0.38715910042E+03  0.00000000000E+00 0.  1.
          1   -1    0    0  501    0  0.00000000000E+00 -0.00000000000E+00 -0.16069028760E+04  0.16069028760E+04  0.00000000000E+00 0. -1.
        -24    2    1    2    0    0  0.22728181200E+03  0.16748246617E+03 -0.97671017705E+03  0.10196593187E+04  0.77684990754E+02 0.  0.
        254    2    1    2    0    0 -0.22728181200E+03 -0.16748246617E+03 -0.24303359849E+03  0.97440265764E+03  0.90038203596E+03 0.  0.
         23    2    4    4    0    0 -0.15555956926E+03 -0.33301772132E+03 -0.51103990626E+03  0.63599104333E+03  0.90682077084E+02 0.  0.
         23    2    4    4    0    0 -0.71722242749E+02  0.16553525515E+03  0.26800630777E+03  0.33841161431E+03  0.10074243840E+03 0.  0.
          3    1    3    3  502    0  0.14016764580E+03  0.14276158129E+03 -0.61185434727E+03  0.64373409129E+03  0.00000000000E+00 0. -1.
         -4    1    3    3    0  502  0.87114166209E+02  0.24720884888E+02 -0.36485582978E+03  0.37592522745E+03  0.00000000000E+00 0.  1.
         11    1    5    5    0    0 -0.15115738891E+03 -0.32006448350E+03 -0.44529959442E+03  0.56884229679E+03  0.00000000000E+00 0.  1.
        -11    1    5    5    0    0 -0.44021803467E+01 -0.12953237820E+02 -0.65740311837E+02  0.67148746543E+02  0.00000000000E+00 0. -1.
          3    1    6    6  503    0 -0.68500626954E+00 -0.46032678564E+01 -0.63417575607E+01  0.78662060426E+01  0.00000000000E+00 0. -1.
         -3    1    6    6    0  503 -0.71037236480E+02  0.17013852300E+03  0.27434806533E+03  0.33054540827E+03  0.00000000000E+00 0.  1.
<mgrwt>
<rscale>  0 0.15775006E+04</rscale>
<asrwt>0</asrwt>
<pdfrwt beam="1">  1        1 0.24721583E+00 0.15775006E+04</pdfrwt>
<pdfrwt beam="2">  1       -2 0.59562939E-01 0.15775006E+04</pdfrwt>
<totfact> 0.12247996E+01</totfact>
</mgrwt>
</event>
<event>
12    4  0.4207946E-008  0.1556695E+04  0.7818608E-02  0.8847603E-01
         -2   -1    0    0    0  501 -0.00000000000E+00  0.00000000000E+00  0.13392292886E+04  0.13392292886E+04  0.00000000000E+00 0.  1.
          1   -1    0    0  501    0  0.00000000000E+00 -0.00000000000E+00 -0.45236839378E+03  0.45236839378E+03  0.00000000000E+00 0. -1.
        -24    2    1    2    0    0  0.35597189306E+03 -0.16818289846E+03  0.66340464442E+03  0.77920738761E+03  0.10980416515E+03 0.  0.
        254    2    1    2    0    0 -0.35597189306E+03  0.16818289846E+03  0.22345625044E+03  0.10123902948E+04  0.90553847913E+03 0.  0.
         23    2    4    4    0    0  0.76247801049E+02 -0.93689519569E+02  0.43113982005E+03  0.45691097414E+03  0.91074917575E+02 0.  0.
         23    2    4    4    0    0 -0.43221969411E+03  0.26187241803E+03 -0.20768356961E+03  0.55547932068E+03  0.10016877414E+03 0.  0.
          1    1    3    3  502    0  0.55292319725E+02  0.54698357533E+01  0.14482387740E+03  0.15511645686E+03  0.00000000000E+00 0. -1.
         -2    1    3    3    0  502  0.30067957333E+03 -0.17365273421E+03  0.51858076702E+03  0.62409093075E+03  0.00000000000E+00 0.  1.
         11    1    5    5    0    0  0.94784475410E+02 -0.71129655900E+02  0.29995383345E+03  0.32251484761E+03  0.00000000000E+00 0. -1.
        -11    1    5    5    0    0 -0.18536674361E+02 -0.22559863669E+02  0.13118598660E+03  0.13439612652E+03  0.00000000000E+00 0.  1.
          1    1    6    6  503    0 -0.35663285612E+03  0.17524050758E+03 -0.13599710885E+03  0.41998981318E+03  0.00000000000E+00 0. -1.
         -1    1    6    6    0  503 -0.75586837989E+02  0.86631910446E+02 -0.71686460756E+02  0.13548950749E+03  0.00000000000E+00 0.  1.
<mgrwt>
<rscale>  0 0.15566952E+04</rscale>
<asrwt>0</asrwt>
<pdfrwt beam="1">  1        1 0.69595138E-01 0.15566952E+04</pdfrwt>
<pdfrwt beam="2">  1       -2 0.20603527E+00 0.15566952E+04</pdfrwt>
<totfact> 0.51952079E+00</totfact>
</mgrwt>
</event>
<event>
12    4  0.4207946E-008  0.1459993E+04  0.7818608E-02  0.8911502E-01
         -2   -1    0    0    0  501 -0.00000000000E+00  0.00000000000E+00  0.40362561355E+03  0.40362561355E+03  0.00000000000E+00 0.  1.
          1   -1    0    0  501    0  0.00000000000E+00 -0.00000000000E+00 -0.13202698260E+04  0.13202698260E+04  0.00000000000E+00 0. -1.
        -24    2    1    2    0    0 -0.14577004387E+03  0.31693124815E+03 -0.66664641943E+03  0.75657784701E+03  0.79361629891E+02 0.  0.
        254    2    1    2    0    0  0.14577004387E+03 -0.31693124815E+03 -0.24999779306E+03  0.96731759258E+03  0.86689682583E+03 0.  0.
         23    2    4    4    0    0 -0.31007041587E+03 -0.33795509276E+03 -0.96599862296E+02  0.47761334322E+03  0.91791419602E+02 0.  0.
         23    2    4    4    0    0  0.45584045974E+03  0.21023844602E+02 -0.15339793077E+03  0.48970424935E+03  0.89703956939E+02 0.  0.
          3    1    3    3  502    0 -0.87821615124E+02  0.26624438833E+03 -0.50754162251E+03  0.57982515380E+03  0.00000000000E+00 0. -1.
         -4    1    3    3    0  502 -0.57948428749E+02  0.50686859823E+02 -0.15910479692E+03  0.17675269321E+03  0.00000000000E+00 0.  1.
         11    1    5    5    0    0 -0.30643736474E+03 -0.34158097824E+03 -0.87490448693E+02  0.46715736301E+03  0.00000000000E+00 0.  1.
        -11    1    5    5    0    0 -0.36330511262E+01  0.36258854803E+01 -0.91094136029E+01  0.10455980212E+02  0.00000000000E+00 0. -1.
          2    1    6    6  503    0  0.43273068055E+02  0.13125724917E+02 -0.43342115291E+02  0.62636906304E+02  0.00000000000E+00 0. -1.
         -2    1    6    6    0  503  0.41256739169E+03  0.78981196848E+01 -0.11005581548E+03  0.42706734305E+03  0.00000000000E+00 0.  1.
<mgrwt>
<rscale>  0 0.14599928E+04</rscale>
<asrwt>0</asrwt>
<pdfrwt beam="1">  1        1 0.20311844E+00 0.14599928E+04</pdfrwt>
<pdfrwt beam="2">  1       -2 0.62096247E-01 0.14599928E+04</pdfrwt>
<totfact> 0.17932685E+01</totfact>
</mgrwt>
</event>
<event>
12    4  0.4207946E-008  0.2251532E+04  0.7818608E-02  0.8497280E-01
          1   -1    0    0  501    0  0.00000000000E+00  0.00000000000E+00  0.32695824294E+04  0.32695824294E+04  0.00000000000E+00 0. -1.
         -2   -1    0    0    0  501 -0.00000000000E+00 -0.00000000000E+00 -0.38761805449E+03  0.38761805449E+03  0.00000000000E+00 0.  1.
        -24    2    1    2    0    0 -0.44707856116E+03  0.72826252088E+03  0.57526582598E+03  0.10329662202E+04  0.76438880490E+02 0.  0.
        254    2    1    2    0    0  0.44707856116E+03 -0.72826252088E+03  0.23066985489E+04  0.26242342636E+04  0.91405784045E+03 0.  0.
         23    2    4    4    0    0  0.47273387504E+03 -0.78220866923E+03  0.11943735043E+04  0.15065704185E+04  0.88874289744E+02 0.  0.
         23    2    4    4    0    0 -0.25655313880E+02  0.53946148351E+02  0.11123250446E+04  0.11176638451E+04  0.91307632425E+02 0.  0.
          1    1    3    3  502    0 -0.30592424326E+03  0.44259258016E+03  0.38838019992E+03  0.66356387357E+03  0.00000000000E+00 0. -1.
         -2    1    3    3    0  502 -0.14115431791E+03  0.28566994072E+03  0.18688562606E+03  0.36940234667E+03  0.00000000000E+00 0.  1.
         11    1    5    5    0    0  0.43029632172E+03 -0.70418962474E+03  0.11169584802E+04  0.13887527493E+04  0.00000000000E+00 0. -1.
        -11    1    5    5    0    0  0.42437553328E+02 -0.78019044487E+02  0.77415024073E+02  0.11781766925E+03  0.00000000000E+00 0.  1.
          3    1    6    6  503    0 -0.36382766208E+01  0.36442595800E+02  0.10302928353E+04  0.10309435612E+04  0.00000000000E+00 0. -1.
         -3    1    6    6    0  503 -0.22017037259E+02  0.17503552551E+02  0.82032209273E+02  0.86720283901E+02  0.00000000000E+00 0.  1.
<mgrwt>
<rscale>  0 0.22515321E+04</rscale>
<asrwt>0</asrwt>
<pdfrwt beam="1">  1        1 0.50301266E+00 0.22515321E+04</pdfrwt>
<pdfrwt beam="2">  1       -2 0.59633549E-01 0.22515321E+04</pdfrwt>
<totfact> 0.78958235E-01</totfact>
</mgrwt>
</event>
<event>
12    4  0.4207946E-008  0.1548435E+04  0.7818608E-02  0.8852868E-01
         -2   -1    0    0    0  501 -0.00000000000E+00  0.00000000000E+00  0.38628741666E+03  0.38628741666E+03  0.00000000000E+00 0.  1.
          1   -1    0    0  501    0  0.00000000000E+00 -0.00000000000E+00 -0.15517280871E+04  0.15517280871E+04  0.00000000000E+00 0. -1.
        -24    2    1    2    0    0 -0.26691965454E+03  0.27688278549E+03 -0.77582067721E+03  0.86969848668E+03  0.81040456963E+02 0.  0.
        254    2    1    2    0    0  0.26691965454E+03 -0.27688278549E+03 -0.38961999319E+03  0.10683170171E+04  0.91738069031E+03 0.  0.
         23    2    4    4    0    0 -0.31230453640E+03  0.30784939405E+01 -0.33645342094E+02  0.32688743817E+03  0.90442178266E+02 0.  0.
         23    2    4    4    0    0  0.57922419093E+03 -0.27996127943E+03 -0.35597465110E+03  0.74142957888E+03  0.95503334371E+02 0.  0.
          3    1    3    3  502    0 -0.23876695213E+03  0.26913630373E+03 -0.74451246456E+03  0.82688742722E+03  0.00000000000E+00 0. -1.
         -4    1    3    3    0  502 -0.28152702404E+02  0.77464817624E+01 -0.31308212654E+02  0.42811059458E+02  0.00000000000E+00 0.  1.
         11    1    5    5    0    0 -0.15233271988E+03  0.18512023380E+02  0.25651779508E+02  0.15558266725E+03  0.00000000000E+00 0.  1.
        -11    1    5    5    0    0 -0.15997181651E+03 -0.15433529439E+02 -0.59297121602E+02  0.17130477092E+03  0.00000000000E+00 0. -1.
          4    1    6    6  503    0  0.25407431635E+03 -0.96020509648E+02 -0.10410844191E+03  0.29088187324E+03  0.00000000000E+00 0. -1.
         -4    1    6    6    0  503  0.32514987458E+03 -0.18394076978E+03 -0.25186620919E+03  0.45054770564E+03  0.00000000000E+00 0.  1.
<mgrwt>
<rscale>  0 0.15484354E+04</rscale>
<asrwt>0</asrwt>
<pdfrwt beam="1">  1        1 0.23872740E+00 0.15484354E+04</pdfrwt>
<pdfrwt beam="2">  1       -2 0.59428833E-01 0.15484354E+04</pdfrwt>
<totfact> 0.13461979E+01</totfact>
</mgrwt>
</event>
<event>
12    4  0.4207946E-008  0.1817670E+04  0.7818608E-02  0.8696959E-01
          1   -1    0    0  501    0  0.00000000000E+00  0.00000000000E+00  0.59538155847E+03  0.59538155847E+03  0.00000000000E+00 0. -1.
         -2   -1    0    0    0  501 -0.00000000000E+00 -0.00000000000E+00 -0.13873141981E+04  0.13873141981E+04  0.00000000000E+00 0.  1.
        -24    2    1    2    0    0  0.55126303807E+03 -0.85168652124E+02 -0.72504287497E+03  0.91824764675E+03  0.79667645681E+02 0.  0.
        254    2    1    2    0    0 -0.55126303807E+03  0.85168652124E+02 -0.66889764637E+02  0.10644481098E+04  0.90411885359E+03 0.  0.
         23    2    4    4    0    0  0.47962025398E+02  0.14459771818E+03  0.30359444674E+03  0.35138102765E+03  0.89945441901E+02 0.  0.
         23    2    4    4    0    0 -0.59922506346E+03 -0.59429066057E+02 -0.37048421137E+03  0.71306708216E+03  0.92755712507E+02 0.  0.
          3    1    3    3  502    0  0.10757000331E+02  0.40561728050E+01 -0.37046990362E+02  0.38789754947E+02  0.00000000000E+00 0. -1.
         -4    1    3    3    0  502  0.54050603773E+03 -0.89224824929E+02 -0.68799588461E+03  0.87945789180E+03  0.00000000000E+00 0.  1.
         11    1    5    5    0    0  0.19824341021E+02  0.77172112791E+02  0.24529247496E+03  0.25790877798E+03  0.00000000000E+00 0.  1.
        -11    1    5    5    0    0  0.28137684377E+02  0.67425605389E+02  0.58301971777E+02  0.93472249664E+02  0.00000000000E+00 0. -1.
          4    1    6    6  503    0 -0.47805835710E+02 -0.30879714110E+02 -0.39999751459E+02  0.69562452431E+02  0.00000000000E+00 0. -1.
         -4    1    6    6    0  503 -0.55141922775E+03 -0.28549351947E+02 -0.33048445991E+03  0.64350462973E+03  0.00000000000E+00 0.  1.
<mgrwt>
<rscale>  0 0.18176703E+04</rscale>
<asrwt>0</asrwt>
<pdfrwt beam="1">  1        1 0.91597163E-01 0.18176703E+04</pdfrwt>
<pdfrwt beam="2">  1       -2 0.21343295E+00 0.18176703E+04</pdfrwt>
<totfact> 0.31068518E+00</totfact>
</mgrwt>
</event>
<event>
12    4  0.4207946E-008  0.2038573E+04  0.7818608E-02  0.8588796E-01
          1   -1    0    0  501    0  0.00000000000E+00  0.00000000000E+00  0.17473882234E+04  0.17473882234E+04  0.00000000000E+00 0. -1.
         -2   -1    0    0    0  501 -0.00000000000E+00 -0.00000000000E+00 -0.59456997154E+03  0.59456997154E+03  0.00000000000E+00 0.  1.
        -24    2    1    2    0    0 -0.48259430978E+03  0.43284541562E+03 -0.10880991895E+03  0.66283982363E+03  0.85232691291E+02 0.  0.
        254    2    1    2    0    0  0.48259430978E+03 -0.43284541562E+03  0.12616281709E+04  0.16791183714E+04  0.89859915527E+03 0.  0.
         23    2    4    4    0    0  0.19133626123E+03  0.22522044115E+03  0.13145989050E+03  0.33574397685E+03  0.90047227623E+02 0.  0.
         23    2    4    4    0    0  0.29125804856E+03 -0.65806585678E+03  0.11301682804E+04  0.13433743945E+04  0.97429457504E+02 0.  0.
          3    1    3    3  502    0 -0.24990177029E+03  0.17145666142E+03 -0.67119405414E+02  0.31040827328E+03  0.00000000000E+00 0. -1.
         -4    1    3    3    0  502 -0.23269253949E+03  0.26138875421E+03 -0.41690513539E+02  0.35243155035E+03  0.00000000000E+00 0.  1.
         11    1    5    5    0    0  0.32639618645E+02  0.10194554566E+03  0.58298373427E+02  0.12188904516E+03  0.00000000000E+00 0.  1.
        -11    1    5    5    0    0  0.15869664258E+03  0.12327489549E+03  0.73161517076E+02  0.21385493169E+03  0.00000000000E+00 0. -1.
          2    1    6    6  503    0  0.78368735641E+02 -0.22201574989E+03  0.44980001662E+03  0.50769351668E+03  0.00000000000E+00 0. -1.
         -2    1    6    6    0  503  0.21288931291E+03 -0.43605010689E+03  0.68036826373E+03  0.83568087783E+03  0.00000000000E+00 0.  1.
<mgrwt>
<rscale>  0 0.20385726E+04</rscale>
<asrwt>0</asrwt>
<pdfrwt beam="1">  1        1 0.26882896E+00 0.20385726E+04</pdfrwt>
<pdfrwt beam="2">  1       -2 0.91472304E-01 0.20385726E+04</pdfrwt>
<totfact> 0.36556838E+00</totfact>
</mgrwt>
</event>
<event>
12    4  0.4207946E-008  0.1690434E+04  0.7818608E-02  0.8766839E-01
          1   -1    0    0  501    0  0.00000000000E+00  0.00000000000E+00  0.40500541455E+04  0.40500541455E+04  0.00000000000E+00 0. -1.
         -2   -1    0    0    0  501 -0.00000000000E+00 -0.00000000000E+00 -0.17639057727E+03  0.17639057727E+03  0.00000000000E+00 0.  1.
        -24    2    1    2    0    0 -0.44697669088E+03  0.26122887817E+03  0.62382644265E+03  0.81447116923E+03  0.78582224233E+02 0.  0.
        254    2    1    2    0    0  0.44697669088E+03 -0.26122887817E+03  0.32498371255E+04  0.34119735535E+04  0.90116230410E+03 0.  0.
         23    2    4    4    0    0  0.44016098603E+03 -0.40843261813E+03  0.31576391930E+04  0.32155649938E+04  0.92811957946E+02 0.  0.
         23    2    4    4    0    0  0.68157048544E+01  0.14720373996E+03  0.92197932587E+02  0.19640855967E+03  0.91435598365E+02 0.  0.
          3    1    3    3  502    0 -0.96127702175E+02  0.32715793656E+02  0.16107540254E+03  0.19041046080E+03  0.00000000000E+00 0. -1.
         -4    1    3    3    0  502 -0.35084898871E+03  0.22851308452E+03  0.46275104011E+03  0.62406070843E+03  0.00000000000E+00 0.  1.
         11    1    5    5    0    0  0.34101438019E+03 -0.32014823847E+03  0.26434962905E+04  0.26845592450E+04  0.00000000000E+00 0.  1.
        -11    1    5    5    0    0  0.99146605843E+02 -0.88284379668E+02  0.51414290247E+03  0.53100574884E+03  0.00000000000E+00 0. -1.
          1    1    6    6  503    0  0.34198391042E+01  0.11261823889E+03  0.10991287917E+03  0.15740204585E+03  0.00000000000E+00 0. -1.
         -1    1    6    6    0  503  0.33958657502E+01  0.34585501072E+02 -0.17714946580E+02  0.39006513827E+02  0.00000000000E+00 0.  1.
<mgrwt>
<rscale>  0 0.16904335E+04</rscale>
<asrwt>0</asrwt>
<pdfrwt beam="1">  1        1 0.62308518E+00 0.16904335E+04</pdfrwt>
<pdfrwt beam="2">  1       -2 0.27137015E-01 0.16904335E+04</pdfrwt>
<totfact> 0.90825898E-01</totfact>
</mgrwt>
</event>
<event>
12    4  0.4207946E-008  0.1464123E+04  0.7818608E-02  0.8908668E-01
         -2   -1    0    0    0  501 -0.00000000000E+00  0.00000000000E+00  0.12841814744E+04  0.12841814744E+04  0.00000000000E+00 0.  1.
          1   -1    0    0  501    0  0.00000000000E+00 -0.00000000000E+00 -0.41731936036E+03  0.41731936036E+03  0.00000000000E+00 0. -1.
        -24    2    1    2    0    0 -0.26113434229E+03 -0.13984071758E+03  0.70994647147E+03  0.77401597331E+03  0.85616374361E+02 0.  0.
        254    2    1    2    0    0  0.26113434229E+03  0.13984071758E+03  0.15691564257E+03  0.92748486146E+03  0.86478845872E+03 0.  0.
         23    2    4    4    0    0 -0.11453892959E+03 -0.28071779149E+03  0.16470157732E+03  0.35619266393E+03  0.88458800698E+02 0.  0.
         23    2    4    4    0    0  0.37567327188E+03  0.42055850907E+03 -0.77859347427E+01  0.57129219752E+03  0.91182714475E+02 0.  0.
          1    1    3    3  502    0 -0.36496344425E+02 -0.59226258025E+02  0.15165100080E+03  0.16684651282E+03  0.00000000000E+00 0. -1.
         -2    1    3    3    0  502 -0.22463799787E+03 -0.80614459554E+02  0.55829547068E+03  0.60716946049E+03  0.00000000000E+00 0.  1.
         11    1    5    5    0    0 -0.44157057132E+02 -0.13341163201E+03  0.28069516170E+02  0.14330529295E+03  0.00000000000E+00 0.  1.
        -11    1    5    5    0    0 -0.70381872457E+02 -0.14730615948E+03  0.13663206115E+03  0.21288737098E+03  0.00000000000E+00 0. -1.
          4    1    6    6  503    0  0.18503134229E+03  0.19695947893E+03  0.41314844580E+02  0.27337986457E+03  0.00000000000E+00 0. -1.
         -4    1    6    6    0  503  0.19064192959E+03  0.22359903014E+03 -0.49100779323E+02  0.29791233295E+03  0.00000000000E+00 0.  1.
<mgrwt>
<rscale>  0 0.14641227E+04</rscale>
<asrwt>0</asrwt>
<pdfrwt beam="1">  1        1 0.64202979E-01 0.14641227E+04</pdfrwt>
<pdfrwt beam="2">  1       -2 0.19756638E+00 0.14641227E+04</pdfrwt>
<totfact> 0.66274373E+00</totfact>
</mgrwt>
</event>
<event>
12    4  0.4207946E-008  0.1766841E+04  0.7818608E-02  0.8724134E-01
          1   -1    0    0  501    0  0.00000000000E+00  0.00000000000E+00  0.17469166703E+04  0.17469166703E+04  0.00000000000E+00 0. -1.
         -2   -1    0    0    0  501 -0.00000000000E+00 -0.00000000000E+00 -0.44674827789E+03  0.44674827789E+03  0.00000000000E+00 0.  1.
        -24    2    1    2    0    0 -0.15254624917E+03 -0.26523788740E+02  0.12698874490E+04  0.12822143241E+04  0.86519190192E+02 0.  0.
        254    2    1    2    0    0  0.15254624917E+03  0.26523788740E+02  0.30280943390E+02  0.91145062408E+03  0.89769228308E+03 0.  0.
         23    2    4    4    0    0 -0.23771969329E+03 -0.25442849422E+03 -0.15026151246E+03  0.38949383924E+03  0.88782979427E+02 0.  0.
         23    2    4    4    0    0  0.39026594246E+03  0.28095228296E+03  0.18054245585E+03  0.52195678484E+03  0.92744895984E+02 0.  0.
          3    1    3    3  502    0 -0.93460539356E+02 -0.34161318809E+02  0.10393664157E+04  0.10441189655E+04  0.00000000000E+00 0. -1.
         -4    1    3    3    0  502 -0.59085709811E+02  0.76375300685E+01  0.23052103337E+03  0.23809535861E+03  0.00000000000E+00 0.  1.
         11    1    5    5    0    0 -0.16739673913E+03 -0.18227962313E+03 -0.14872142513E+03  0.28873100210E+03  0.00000000000E+00 0. -1.
        -11    1    5    5    0    0 -0.70322954162E+02 -0.72148871084E+02 -0.15400873276E+01  0.10076283715E+03  0.00000000000E+00 0.  1.
          1    1    6    6  503    0  0.18119018419E+03  0.78475010230E+02  0.91238850186E+02  0.21751491411E+03  0.00000000000E+00 0. -1.
         -1    1    6    6    0  503  0.20907575827E+03  0.20247727273E+03  0.89303605660E+02  0.30444187072E+03  0.00000000000E+00 0.  1.
<mgrwt>
<rscale>  0 0.17668413E+04</rscale>
<asrwt>0</asrwt>
<pdfrwt beam="1">  1        1 0.26875641E+00 0.17668413E+04</pdfrwt>
<pdfrwt beam="2">  1       -2 0.68730505E-01 0.17668413E+04</pdfrwt>
<totfact> 0.71151652E+00</totfact>
</mgrwt>
</event>
<event>
12    4  0.4207946E-008  0.1331359E+04  0.7818608E-02  0.9005060E-01
         -2   -1    0    0    0  501 -0.00000000000E+00  0.00000000000E+00  0.44417823231E+03  0.44417823231E+03  0.00000000000E+00 0.  1.
          1   -1    0    0  501    0  0.00000000000E+00 -0.00000000000E+00 -0.99763827277E+03  0.99763827277E+03  0.00000000000E+00 0. -1.
        -24    2    1    2    0    0 -0.19856489249E+03  0.25717080702E+03 -0.30405596485E+01  0.33602070053E+03  0.85649434718E+02 0.  0.
        254    2    1    2    0    0  0.19856489249E+03 -0.25717080702E+03 -0.55041948082E+03  0.11057958046E+04  0.90236240834E+03 0.  0.
         23    2    4    4    0    0  0.19429038801E+03 -0.35912034901E+03 -0.75286679981E+03  0.86123389025E+03  0.90549519702E+02 0.  0.
         23    2    4    4    0    0  0.42745044841E+01  0.10194954199E+03  0.20244731899E+03  0.24456191430E+03  0.91725854917E+02 0.  0.
          3    1    3    3  502    0 -0.15799328281E+03  0.14298340132E+03 -0.18353516691E+02  0.21387609039E+03  0.00000000000E+00 0. -1.
         -4    1    3    3    0  502 -0.40571609684E+02  0.11418740570E+03  0.15312957043E+02  0.12214461014E+03  0.00000000000E+00 0.  1.
         11    1    5    5    0    0  0.14623973917E+03 -0.31567917570E+03 -0.57645167506E+03  0.67330226271E+03  0.00000000000E+00 0.  1.
        -11    1    5    5    0    0  0.48050648837E+02 -0.43441173307E+02 -0.17641512474E+03  0.18793162754E+03  0.00000000000E+00 0. -1.
          1    1    6    6  503    0 -0.58473911620E+01  0.12688898398E+02  0.12551131580E+03  0.12628654132E+03  0.00000000000E+00 0. -1.
         -1    1    6    6    0  503  0.10121895646E+02  0.89260643594E+02  0.76936003190E+02  0.11827537298E+03  0.00000000000E+00 0.  1.
<mgrwt>
<rscale>  0 0.13313590E+04</rscale>
<asrwt>0</asrwt>
<pdfrwt beam="1">  1        1 0.15348281E+00 0.13313590E+04</pdfrwt>
<pdfrwt beam="2">  1       -2 0.68335113E-01 0.13313590E+04</pdfrwt>
<totfact> 0.25583915E+01</totfact>
</mgrwt>
</event>
<event>
12    4  0.4207946E-008  0.2178508E+04  0.7818608E-02  0.8527427E-01
         -2   -1    0    0    0  501 -0.00000000000E+00  0.00000000000E+00  0.10312747199E+04  0.10312747199E+04  0.00000000000E+00 0.  1.
          1   -1    0    0  501    0  0.00000000000E+00 -0.00000000000E+00 -0.11504924469E+04  0.11504924469E+04  0.00000000000E+00 0. -1.
        -24    2    1    2    0    0  0.33362145466E+03  0.55461140782E+03  0.57618307887E+03  0.87017237905E+03  0.79472889650E+02 0.  0.
        254    2    1    2    0    0 -0.33362145466E+03 -0.55461140782E+03 -0.69540080580E+03  0.13115947878E+04  0.90432379040E+03 0.  0.
         23    2    4    4    0    0  0.46856175502E+02  0.16260179674E+03  0.56810119973E+02  0.20093502617E+03  0.92264020749E+02 0.  0.
         23    2    4    4    0    0 -0.38047763016E+03 -0.71721320456E+03 -0.75221092577E+03  0.11106597616E+04  0.92659707054E+02 0.  0.
          3    1    3    3  502    0  0.65016343337E+02  0.10793093485E+03  0.72607172411E+02  0.14542356441E+03  0.00000000000E+00 0. -1.
         -4    1    3    3    0  502  0.26860511132E+03  0.44668047297E+03  0.50357590646E+03  0.72474881464E+03  0.00000000000E+00 0.  1.
         11    1    5    5    0    0  0.65631480041E+02  0.93725276149E+02  0.60538267673E+02  0.12944806068E+03  0.00000000000E+00 0.  1.
        -11    1    5    5    0    0 -0.18775304539E+02  0.68876520593E+02 -0.37281476999E+01  0.71486965489E+02  0.00000000000E+00 0. -1.
          3    1    6    6  503    0 -0.60792308397E+02 -0.14362116153E+03 -0.10075534477E+03  0.18567278287E+03  0.00000000000E+00 0. -1.
         -3    1    6    6    0  503 -0.31968532176E+03 -0.57359204303E+03 -0.65145558099E+03  0.92498697872E+03  0.00000000000E+00 0.  1.
<mgrwt>
<rscale>  0 0.21785075E+04</rscale>
<asrwt>0</asrwt>
<pdfrwt beam="1">  1        1 0.17699884E+00 0.21785075E+04</pdfrwt>
<pdfrwt beam="2">  1       -2 0.15865765E+00 0.21785075E+04</pdfrwt>
<totfact> 0.24000109E+00</totfact>
</mgrwt>
</event>
<event>
12    4  0.4207946E-008  0.2474054E+04  0.7818608E-02  0.8412288E-01
          1   -1    0    0  501    0  0.00000000000E+00  0.00000000000E+00  0.19269748217E+04  0.19269748217E+04  0.00000000000E+00 0. -1.
         -2   -1    0    0    0  501 -0.00000000000E+00 -0.00000000000E+00 -0.79411315238E+03  0.79411315238E+03  0.00000000000E+00 0.  1.
        -24    2    1    2    0    0  0.39133482349E+02  0.33264823673E+03 -0.62316075717E+03  0.71047454278E+03  0.65256936940E+02 0.  0.
        254    2    1    2    0    0 -0.39133482349E+02 -0.33264823673E+03  0.17560224265E+04  0.20106134313E+04  0.92019852691E+03 0.  0.
         23    2    4    4    0    0  0.34637019551E+03  0.92007275405E+02  0.45515941216E+03  0.58619868432E+03  0.89560906407E+02 0.  0.
         23    2    4    4    0    0 -0.38550367786E+03 -0.42465551214E+03  0.13008630143E+04  0.14244147469E+04  0.88132852642E+02 0.  0.
          1    1    3    3  502    0  0.11067855652E-01  0.16405049179E+03 -0.35840112171E+03  0.39416231178E+03  0.00000000000E+00 0. -1.
         -2    1    3    3    0  502  0.39122414493E+02  0.16859774494E+03 -0.26475963545E+03  0.31631223100E+03  0.00000000000E+00 0.  1.
         11    1    5    5    0    0  0.11113776099E+03  0.65248172380E+02  0.12181123251E+03  0.17733274453E+03  0.00000000000E+00 0. -1.
        -11    1    5    5    0    0  0.23523243452E+03  0.26759103025E+02  0.33334817966E+03  0.40886593980E+03  0.00000000000E+00 0.  1.
          3    1    6    6  503    0 -0.10114710175E+03 -0.15708879125E+03  0.49092678890E+03  0.52527777089E+03  0.00000000000E+00 0. -1.
         -3    1    6    6    0  503 -0.28435657611E+03 -0.26756672089E+03  0.80993622539E+03  0.89913697605E+03  0.00000000000E+00 0.  1.
<mgrwt>
<rscale>  0 0.24740542E+04</rscale>
<asrwt>0</asrwt>
<pdfrwt beam="1">  1        1 0.29645766E+00 0.24740542E+04</pdfrwt>
<pdfrwt beam="2">  1       -2 0.12217125E+00 0.24740542E+04</pdfrwt>
<totfact> 0.13269544E+00</totfact>
</mgrwt>
</event>
<event>
12    4  0.4207946E-008  0.1524048E+04  0.7818608E-02  0.8868617E-01
         -4   -1    0    0    0  501 -0.00000000000E+00  0.00000000000E+00  0.32716654718E+03  0.32716654718E+03  0.00000000000E+00 0.  1.
          3   -1    0    0  501    0  0.00000000000E+00 -0.00000000000E+00 -0.17748773118E+04  0.17748773118E+04  0.00000000000E+00 0. -1.
        -24    2    1    2    0    0  0.35007617177E+03 -0.25771499464E+03 -0.17441428702E+03  0.47518706475E+03  0.80075330045E+02 0.  0.
        254    2    1    2    0    0 -0.35007617177E+03  0.25771499464E+03 -0.12732964776E+04  0.16268567942E+04  0.91455386093E+03 0.  0.
         23    2    4    4    0    0  0.23459600350E+03  0.65607020265E+02 -0.81213686486E+03  0.85272539662E+03  0.90745516702E+02 0.  0.
         23    2    4    4    0    0 -0.58467217527E+03  0.19210797438E+03 -0.46115961271E+03  0.77413139758E+03  0.88680358431E+02 0.  0.
          3    1    3    3  502    0  0.11765133878E+03 -0.94587166296E+02 -0.10184953025E+03  0.18210408111E+03  0.00000000000E+00 0. -1.
         -4    1    3    3    0  502  0.23242483300E+03 -0.16312782835E+03 -0.72564756762E+02  0.29308298364E+03  0.00000000000E+00 0.  1.
         11    1    5    5    0    0  0.19301013253E+03  0.72012493407E+02 -0.74929246454E+03  0.77709581641E+03  0.00000000000E+00 0. -1.
        -11    1    5    5    0    0  0.41585870969E+02 -0.64054731419E+01 -0.62844400325E+02  0.75629580209E+02  0.00000000000E+00 0.  1.
          2    1    6    6  503    0 -0.51034208225E+03  0.14001962877E+03 -0.41364756746E+03  0.67168359175E+03  0.00000000000E+00 0. -1.
         -2    1    6    6    0  503 -0.74330093022E+02  0.52088345604E+02 -0.47512045245E+02  0.10244780583E+03  0.00000000000E+00 0.  1.
<mgrwt>
<rscale>  0 0.15240479E+04</rscale>
<asrwt>0</asrwt>
<pdfrwt beam="1">  1        3 0.27305805E+00 0.15240479E+04</pdfrwt>
<pdfrwt beam="2">  1       -4 0.50333315E-01 0.15240479E+04</pdfrwt>
<totfact> 0.46124384E-01</totfact>
</mgrwt>
</event>
<event>
12    4  0.4207946E-008  0.1525545E+04  0.7818608E-02  0.8867641E-01
         -2   -1    0    0    0  501 -0.00000000000E+00  0.00000000000E+00  0.65438573470E+03  0.65438573470E+03  0.00000000000E+00 0.  1.
          1   -1    0    0  501    0  0.00000000000E+00 -0.00000000000E+00 -0.88911132899E+03  0.88911132899E+03  0.00000000000E+00 0. -1.
        -24    2    1    2    0    0  0.57410618600E+02 -0.21664819929E+03  0.36717780578E+03  0.43732394186E+03  0.78741778529E+02 0.  0.
        254    2    1    2    0    0 -0.57410618600E+02  0.21664819929E+03 -0.60190340007E+03  0.11061731218E+04  0.90061026590E+03 0.  0.
         23    2    4    4    0    0 -0.13302301942E+03  0.54292414322E+03 -0.46356286730E+03  0.73195258263E+03  0.91664073071E+02 0.  0.
         23    2    4    4    0    0  0.75612400817E+02 -0.32627594392E+03 -0.13834053277E+03  0.37422053920E+03  0.93432768395E+02 0.  0.
          1    1    3    3  502    0 -0.18156250404E+02 -0.28832767791E+02  0.68415442278E+02  0.76430691932E+02  0.00000000000E+00 0. -1.
         -2    1    3    3    0  502  0.75566869004E+02 -0.18781543150E+03  0.29876236350E+03  0.36089324993E+03  0.00000000000E+00 0.  1.
         11    1    5    5    0    0 -0.11805254708E+03  0.32959893963E+03 -0.32060014368E+03  0.47471709154E+03  0.00000000000E+00 0.  1.
        -11    1    5    5    0    0 -0.14970472336E+02  0.21332520359E+03 -0.14296272363E+03  0.25723549109E+03  0.00000000000E+00 0. -1.
          1    1    6    6  503    0  0.46166884731E+02 -0.30928441952E+03 -0.13294850800E+03  0.33979926307E+03  0.00000000000E+00 0. -1.
         -1    1    6    6    0  503  0.29445516085E+02 -0.16991524405E+02 -0.53920247645E+01  0.34421276127E+02  0.00000000000E+00 0.  1.
<mgrwt>
<rscale>  0 0.15255448E+04</rscale>
<asrwt>0</asrwt>
<pdfrwt beam="1">  1        1 0.13678636E+00 0.15255448E+04</pdfrwt>
<pdfrwt beam="2">  1       -2 0.10067473E+00 0.15255448E+04</pdfrwt>
<totfact> 0.12775161E+01</totfact>
</mgrwt>
</event>
<event>
12    4  0.4207946E-008  0.1532614E+04  0.7818608E-02  0.8863050E-01
          1   -1    0    0  501    0  0.00000000000E+00  0.00000000000E+00  0.53010495520E+03  0.53010495520E+03  0.00000000000E+00 0. -1.
         -2   -1    0    0    0  501 -0.00000000000E+00 -0.00000000000E+00 -0.11077557076E+04  0.11077557076E+04  0.00000000000E+00 0.  1.
        -24    2    1    2    0    0 -0.14251052885E+03  0.16494199549E+03 -0.61198816909E+03  0.65415314281E+03  0.76627034626E+02 0.  0.
        254    2    1    2    0    0  0.14251052885E+03 -0.16494199549E+03  0.34337416720E+02  0.98370751996E+03  0.95863773863E+03 0.  0.
         23    2    4    4    0    0 -0.12353572970E+03  0.18025854958E+02 -0.40385663091E+03  0.43194655865E+03  0.88834921273E+02 0.  0.
         23    2    4    4    0    0  0.26604625855E+03 -0.18296785044E+03  0.43819404763E+03  0.55176096131E+03  0.90378587433E+02 0.  0.
          1    1    3    3  502    0  0.49526424588E+01  0.31643079707E+02 -0.95844579400E+02  0.10105442376E+03  0.00000000000E+00 0. -1.
         -2    1    3    3    0  502 -0.14746317131E+03  0.13329891578E+03 -0.51614358969E+03  0.55309871905E+03  0.00000000000E+00 0.  1.
         11    1    5    5    0    0  0.12937920016E+02 -0.61307235971E+00 -0.17505846993E+02  0.21776600079E+02  0.00000000000E+00 0. -1.
        -11    1    5    5    0    0 -0.13647364971E+03  0.18638927318E+02 -0.38635078392E+03  0.41016995857E+03  0.00000000000E+00 0.  1.
          3    1    6    6  503    0  0.78243609953E+02 -0.20766304175E+02  0.15762161660E+03  0.17719445789E+03  0.00000000000E+00 0. -1.
         -3    1    6    6    0  503  0.18780264859E+03 -0.16220154627E+03  0.28057243103E+03  0.37456650342E+03  0.00000000000E+00 0.  1.
<mgrwt>
<rscale>  0 0.15326145E+04</rscale>
<asrwt>0</asrwt>
<pdfrwt beam="1">  1        1 0.81554608E-01 0.15326145E+04</pdfrwt>
<pdfrwt beam="2">  1       -2 0.17042396E+00 0.15326145E+04</pdfrwt>
<totfact> 0.72917688E+00</totfact>
</mgrwt>
</event>
<event>
12    4  0.4207946E-008  0.2715438E+04  0.7818608E-02  0.8330013E-01
          1   -1    0    0  501    0  0.00000000000E+00  0.00000000000E+00  0.35429160165E+04  0.35429160165E+04  0.00000000000E+00 0. -1.
         -2   -1    0    0    0  501 -0.00000000000E+00 -0.00000000000E+00 -0.52030609821E+03  0.52030609821E+03  0.00000000000E+00 0.  1.
        -24    2    1    2    0    0 -0.11986600529E+04  0.14421155508E+03  0.13203845730E+04  0.17909663486E+04  0.81007076264E+02 0.  0.
        254    2    1    2    0    0  0.11986600529E+04 -0.14421155508E+03  0.17022253453E+04  0.22722557660E+04  0.89888388867E+03 0.  0.
         23    2    4    4    0    0  0.11719299030E+04 -0.27311927769E+03  0.17302191278E+04  0.21097604993E+04  0.97042757939E+02 0.  0.
         23    2    4    4    0    0  0.26730149903E+02  0.12890772261E+03 -0.27993782561E+02  0.16249526673E+03  0.91045911418E+02 0.  0.
          3    1    3    3  502    0 -0.15313122281E+03  0.36919567624E+01  0.13540298940E+03  0.20444258725E+03  0.00000000000E+00 0. -1.
         -4    1    3    3    0  502 -0.10455288300E+04  0.14051959831E+03  0.11849815836E+04  0.15865237614E+04  0.00000000000E+00 0.  1.
         11    1    5    5    0    0  0.72600237769E+03 -0.12135658742E+03  0.10695781260E+04  0.12983852438E+04  0.00000000000E+00 0. -1.
        -11    1    5    5    0    0  0.44592752527E+03 -0.15176269027E+03  0.66064100186E+03  0.81137525553E+03  0.00000000000E+00 0.  1.
          1    1    6    6  503    0  0.56120164406E+02  0.70034634757E+02 -0.34984570619E+02  0.96323637286E+02  0.00000000000E+00 0. -1.
         -1    1    6    6    0  503 -0.29390014503E+02  0.58873087855E+02  0.69907880589E+01  0.66171629447E+02  0.00000000000E+00 0.  1.
<mgrwt>
<rscale>  0 0.27154379E+04</rscale>
<asrwt>0</asrwt>
<pdfrwt beam="1">  1        1 0.54506399E+00 0.27154379E+04</pdfrwt>
<pdfrwt beam="2">  1       -2 0.80047094E-01 0.27154379E+04</pdfrwt>
<totfact> 0.24471151E-01</totfact>
</mgrwt>
</event>
<event>
12    4  0.4207946E-008  0.2584978E+04  0.7818608E-02  0.8373322E-01
          1   -1    0    0  501    0  0.00000000000E+00  0.00000000000E+00  0.17095579549E+04  0.17095579549E+04  0.00000000000E+00 0. -1.
         -2   -1    0    0    0  501 -0.00000000000E+00 -0.00000000000E+00 -0.97716917160E+03  0.97716917160E+03  0.00000000000E+00 0.  1.
        -24    2    1    2    0    0 -0.36128156448E+03  0.92538081513E+03 -0.24517232151E+03  0.10265257659E+04  0.82411521524E+02 0.  0.
        254    2    1    2    0    0  0.36128156448E+03 -0.92538081513E+03  0.97756110482E+03  0.16602013607E+04  0.90210244564E+03 0.  0.
         23    2    4    4    0    0 -0.21665058110E+03 -0.19350751973E+01  0.89227011155E+02  0.25160936658E+03  0.91676578382E+02 0.  0.
         23    2    4    4    0    0  0.57793214559E+03 -0.92344573993E+03  0.88833409367E+03  0.14085919941E+04  0.90754307376E+02 0.  0.
          3    1    3    3  502    0 -0.12079717749E+03  0.35557237521E+03 -0.55448873802E+02  0.37960275250E+03  0.00000000000E+00 0. -1.
         -4    1    3    3    0  502 -0.24048438700E+03  0.56980843992E+03 -0.18972344771E+03  0.64692301335E+03  0.00000000000E+00 0.  1.
         11    1    5    5    0    0 -0.21353218907E+03 -0.21382529125E+02  0.87785001497E+02  0.23186076600E+03  0.00000000000E+00 0.  1.
        -11    1    5    5    0    0 -0.31183920304E+01  0.19447453928E+02  0.14420096582E+01  0.19748600583E+02  0.00000000000E+00 0. -1.
          2    1    6    6  503    0  0.23142138268E+03 -0.45175409855E+03  0.42875548598E+03  0.66443125203E+03  0.00000000000E+00 0. -1.
         -2    1    6    6    0  503  0.34651076290E+03 -0.47169164138E+03  0.45957860769E+03  0.74416074205E+03  0.00000000000E+00 0.  1.
<mgrwt>
<rscale>  0 0.25849776E+04</rscale>
<asrwt>0</asrwt>
<pdfrwt beam="1">  1        1 0.26300892E+00 0.25849776E+04</pdfrwt>
<pdfrwt beam="2">  1       -2 0.15033372E+00 0.25849776E+04</pdfrwt>
<totfact> 0.10834170E+00</totfact>
</mgrwt>
</event>
<event>
12    4  0.4207946E-008  0.2893009E+04  0.7818608E-02  0.8274960E-01
          1   -1    0    0  501    0  0.00000000000E+00  0.00000000000E+00  0.76204419001E+03  0.76204419001E+03  0.00000000000E+00 0. -1.
         -2   -1    0    0    0  501 -0.00000000000E+00 -0.00000000000E+00 -0.27457406575E+04  0.27457406575E+04  0.00000000000E+00 0.  1.
        -24    2    1    2    0    0 -0.37290643992E+03 -0.12325684748E+04 -0.60078897462E+03  0.14231815175E+04  0.78828812557E+02 0.  0.
        254    2    1    2    0    0  0.37290643992E+03  0.12325684748E+04 -0.13829074928E+04  0.20846033300E+04  0.88025771889E+03 0.  0.
         23    2    4    4    0    0  0.37617279196E+03  0.33008463676E+03 -0.95390281227E+03  0.10810575363E+04  0.91065826414E+02 0.  0.
         23    2    4    4    0    0 -0.32663520466E+01  0.90248383804E+03 -0.42900468058E+03  0.10035457937E+04  0.92581839846E+02 0.  0.
          1    1    3    3  502    0 -0.37437007810E+03 -0.12290374697E+04 -0.59415085003E+03  0.14155215611E+04  0.00000000000E+00 0. -1.
         -2    1    3    3    0  502  0.14636381798E+01 -0.35310050631E+01 -0.66381245991E+01  0.76599563752E+01  0.00000000000E+00 0.  1.
         11    1    5    5    0    0  0.38012066284E+03  0.32015475275E+03 -0.92201056720E+03  0.10474226797E+04  0.00000000000E+00 0.  1.
        -11    1    5    5    0    0 -0.39478708768E+01  0.99298840141E+01 -0.31892245071E+02  0.33634856573E+02  0.00000000000E+00 0. -1.
          3    1    6    6  503    0  0.35213625113E+02  0.22261437581E+03 -0.12606771174E+03  0.25824451137E+03  0.00000000000E+00 0. -1.
         -3    1    6    6    0  503 -0.38479977159E+02  0.67986946224E+03 -0.30293696884E+03  0.74530128231E+03  0.00000000000E+00 0.  1.
<mgrwt>
<rscale>  0 0.28930093E+04</rscale>
<asrwt>0</asrwt>
<pdfrwt beam="1">  1        1 0.11723757E+00 0.28930093E+04</pdfrwt>
<pdfrwt beam="2">  1       -2 0.42242164E+00 0.28930093E+04</pdfrwt>
<totfact> 0.95010125E-02</totfact>
</mgrwt>
</event>
<event>
12    4  0.4207946E-008  0.1611204E+04  0.7818608E-02  0.8813695E-01
          1   -1    0    0  501    0  0.00000000000E+00  0.00000000000E+00  0.69057068469E+03  0.69057068469E+03  0.00000000000E+00 0. -1.
         -2   -1    0    0    0  501 -0.00000000000E+00 -0.00000000000E+00 -0.93979402378E+03  0.93979402378E+03  0.00000000000E+00 0.  1.
        -24    2    1    2    0    0 -0.11053890018E+03  0.19382081124E+02 -0.61500306026E+03  0.63025869571E+03  0.80017159813E+02 0.  0.
        254    2    1    2    0    0  0.11053890018E+03 -0.19382081124E+02  0.36577972117E+03  0.10001060128E+04  0.92402528039E+03 0.  0.
         23    2    4    4    0    0  0.41630250637E+03 -0.92683115612E+02 -0.84635880188E+02  0.44329648697E+03  0.86316895317E+02 0.  0.
         23    2    4    4    0    0 -0.30576360619E+03  0.73301034488E+02  0.45041560136E+03  0.55680952578E+03  0.91094508745E+02 0.  0.
          1    1    3    3  502    0 -0.26681260179E+02  0.28697603191E+01 -0.35575670812E+02  0.44561794429E+02  0.00000000000E+00 0. -1.
         -2    1    3    3    0  502 -0.83857640004E+02  0.16512320805E+02 -0.57942738945E+03  0.58569690128E+03  0.00000000000E+00 0.  1.
         11    1    5    5    0    0  0.23886551168E+03 -0.57047574812E+02 -0.51674444689E+01  0.24563766190E+03  0.00000000000E+00 0. -1.
        -11    1    5    5    0    0  0.17743699469E+03 -0.35635540800E+02 -0.79468435719E+02  0.19765882507E+03  0.00000000000E+00 0.  1.
          1    1    6    6  503    0 -0.29286109854E+03  0.75834148152E+02  0.45164795329E+03  0.54360308569E+03  0.00000000000E+00 0. -1.
         -1    1    6    6    0  503 -0.12902507650E+02 -0.25331136643E+01 -0.12323519299E+01  0.13206440087E+02  0.00000000000E+00 0.  1.
<mgrwt>
<rscale>  0 0.16112035E+04</rscale>
<asrwt>0</asrwt>
<pdfrwt beam="1">  1        1 0.10624164E+00 0.16112035E+04</pdfrwt>
<pdfrwt beam="2">  1       -2 0.14458370E+00 0.16112035E+04</pdfrwt>
<totfact> 0.77033734E+00</totfact>
</mgrwt>
</event>
<event>
12    4  0.4207946E-008  0.1818037E+04  0.7818608E-02  0.8696766E-01
         -2   -1    0    0    0  501 -0.00000000000E+00  0.00000000000E+00  0.44894468148E+03  0.44894468148E+03  0.00000000000E+00 0.  1.
          1   -1    0    0  501    0  0.00000000000E+00 -0.00000000000E+00 -0.18405702829E+04  0.18405702829E+04  0.00000000000E+00 0. -1.
        -24    2    1    2    0    0 -0.60019456909E+03 -0.13076495012E+03 -0.15906522192E+03  0.63949127696E+03  0.79462919243E+02 0.  0.
        254    2    1    2    0    0  0.60019456909E+03  0.13076495012E+03 -0.12325603795E+04  0.16500236874E+04  0.90886747493E+03 0.  0.
         23    2    4    4    0    0  0.61305485209E+03 -0.12474559783E+03 -0.12243606301E+04  0.13779974218E+04  0.91761790182E+02 0.  0.
         23    2    4    4    0    0 -0.12860283001E+02  0.25551054795E+03 -0.81997493934E+01  0.27202626560E+03  0.92087058233E+02 0.  0.
          3    1    3    3  502    0 -0.55327099531E+02  0.10922593868E+02 -0.13472019386E+02  0.57981775634E+02  0.00000000000E+00 0. -1.
         -4    1    3    3    0  502 -0.54486746956E+03 -0.14168754399E+03 -0.14559320254E+03  0.58150950132E+03  0.00000000000E+00 0.  1.
         11    1    5    5    0    0  0.38239459087E+03 -0.41972853436E+02 -0.80720289878E+03  0.89418334997E+03  0.00000000000E+00 0. -1.
        -11    1    5    5    0    0  0.23066026122E+03 -0.82772744395E+02 -0.41715773132E+03  0.48381407185E+03  0.00000000000E+00 0.  1.
          1    1    6    6  503    0 -0.24742985021E+02  0.21139406746E+03 -0.39730439022E+02  0.21651368282E+03  0.00000000000E+00 0. -1.
         -1    1    6    6    0  503  0.11882702020E+02  0.44116480492E+02  0.31530689629E+02  0.55512582779E+02  0.00000000000E+00 0.  1.
<mgrwt>
<rscale>  0 0.18180366E+04</rscale>
<asrwt>0</asrwt>
<pdfrwt beam="1">  1        1 0.28316466E+00 0.18180366E+04</pdfrwt>
<pdfrwt beam="2">  1       -2 0.69068413E-01 0.18180366E+04</pdfrwt>
<totfact> 0.60535075E+00</totfact>
</mgrwt>
</event>
<event>
12    4  0.4207946E-008  0.1404403E+04  0.7818608E-02  0.8950638E-01
          1   -1    0    0  501    0  0.00000000000E+00  0.00000000000E+00  0.44398111054E+03  0.44398111054E+03  0.00000000000E+00 0. -1.
         -2   -1    0    0    0  501 -0.00000000000E+00 -0.00000000000E+00 -0.11106035712E+04  0.11106035712E+04  0.00000000000E+00 0.  1.
        -24    2    1    2    0    0 -0.32370819062E+03 -0.23759247699E+03 -0.20827692999E+03  0.45962360306E+03  0.81470234590E+02 0.  0.
        254    2    1    2    0    0  0.32370819062E+03  0.23759247699E+03 -0.45834553070E+03  0.10949610787E+04  0.90973730307E+03 0.  0.
         23    2    4    4    0    0 -0.10054527250E+03  0.41273331428E+03  0.72665460412E+01  0.43419404931E+03  0.89518317850E+02 0.  0.
         23    2    4    4    0    0  0.42425346312E+03 -0.17514083729E+03 -0.46561207674E+03  0.66076702940E+03  0.95672082037E+02 0.  0.
          3    1    3    3  502    0 -0.15700687757E+03 -0.97414615150E+02 -0.13848795829E+03  0.23091054856E+03  0.00000000000E+00 0. -1.
         -4    1    3    3    0  502 -0.16670131306E+03 -0.14017786184E+03 -0.69788971705E+02  0.22871305450E+03  0.00000000000E+00 0.  1.
         11    1    5    5    0    0 -0.10741658178E+03  0.41136143326E+03  0.15603693923E+01  0.42515760086E+03  0.00000000000E+00 0.  1.
        -11    1    5    5    0    0  0.68713092784E+01  0.13718810172E+01  0.57061766490E+01  0.90364484547E+01  0.00000000000E+00 0. -1.
          3    1    6    6  503    0  0.25563085886E+02  0.41851391595E+01 -0.55949611537E+02  0.61655054788E+02  0.00000000000E+00 0. -1.
         -3    1    6    6    0  503  0.39869037723E+03 -0.17932597645E+03 -0.40966246521E+03  0.59911197461E+03  0.00000000000E+00 0.  1.
<mgrwt>
<rscale>  0 0.14044031E+04</rscale>
<asrwt>0</asrwt>
<pdfrwt beam="1">  1        1 0.68304787E-01 0.14044031E+04</pdfrwt>
<pdfrwt beam="2">  1       -2 0.17086209E+00 0.14044031E+04</pdfrwt>
<totfact> 0.93274531E+00</totfact>
</mgrwt>
</event>
<event>
12    4  0.4207946E-008  0.1243391E+04  0.7818608E-02  0.9075702E-01
         -2   -1    0    0    0  501 -0.00000000000E+00  0.00000000000E+00  0.41179943598E+03  0.41179943598E+03  0.00000000000E+00 0.  1.
          1   -1    0    0  501    0  0.00000000000E+00 -0.00000000000E+00 -0.93857726126E+03  0.93857726126E+03  0.00000000000E+00 0. -1.
        -24    2    1    2    0    0 -0.90880722567E+02  0.27159551397E+03 -0.59589702699E+02  0.30278356260E+03  0.78125054705E+02 0.  0.
        254    2    1    2    0    0  0.90880722567E+02 -0.27159551397E+03 -0.46718812259E+03  0.10475931346E+04  0.89283996601E+03 0.  0.
         23    2    4    4    0    0 -0.28017563252E+03  0.49492073283E+02  0.75626495042E+02  0.30856755403E+03  0.92448462805E+02 0.  0.
         23    2    4    4    0    0  0.37105635508E+03 -0.32108758725E+03 -0.54281461763E+03  0.73902558060E+03  0.10359074444E+03 0.  0.
          3    1    3    3  502    0 -0.20437078433E+02  0.49295217297E+02 -0.43831408652E+02  0.69057114099E+02  0.00000000000E+00 0. -1.
         -2    1    3    3    0  502 -0.70443644133E+02  0.22230029667E+03 -0.15758294047E+02  0.23372644851E+03  0.00000000000E+00 0.  1.
         11    1    5    5    0    0 -0.34541182965E+02  0.17952784523E+01 -0.20854893478E+02  0.40388648496E+02  0.00000000000E+00 0. -1.
        -11    1    5    5    0    0 -0.24563444955E+03  0.47696794831E+02  0.96481388521E+02  0.26817890554E+03  0.00000000000E+00 0.  1.
          4    1    6    6  503    0  0.36558700747E+02 -0.40673674342E+02 -0.20657034065E+02  0.58460238121E+02  0.00000000000E+00 0. -1.
         -4    1    6    6    0  503  0.33449765434E+03 -0.28041391291E+03 -0.52215758357E+03  0.68056534248E+03  0.00000000000E+00 0.  1.
<mgrwt>
<rscale>  0 0.12433915E+04</rscale>
<asrwt>0</asrwt>
<pdfrwt beam="1">  1        1 0.14439650E+00 0.12433915E+04</pdfrwt>
<pdfrwt beam="2">  1       -2 0.63353761E-01 0.12433915E+04</pdfrwt>
<totfact> 0.33774377E+01</totfact>
</mgrwt>
</event>
<event>
12    4  0.4207946E-008  0.3502893E+04  0.7818608E-02  0.8113105E-01
         -2   -1    0    0    0  501 -0.00000000000E+00  0.00000000000E+00  0.15082063599E+04  0.15082063599E+04  0.00000000000E+00 0.  1.
          1   -1    0    0  501    0  0.00000000000E+00 -0.00000000000E+00 -0.20339156907E+04  0.20339156907E+04  0.00000000000E+00 0. -1.
        -24    2    1    2    0    0 -0.15195892226E+03  0.35722572948E+03 -0.18242778526E+04  0.18668956765E+04  0.81289899332E+02 0.  0.
        254    2    1    2    0    0  0.15195892226E+03 -0.35722572948E+03  0.12985685218E+04  0.16752263740E+04  0.98458187199E+03 0.  0.
         23    2    4    4    0    0  0.54899323161E+03 -0.18685724650E+03  0.54363274732E+03  0.80016219582E+03  0.91726641389E+02 0.  0.
         23    2    4    4    0    0 -0.39703430935E+03 -0.17036848298E+03  0.75493577448E+03  0.87506417823E+03  0.95643241507E+02 0.  0.
          3    1    3    3  502    0 -0.10949403292E+03  0.25880142784E+03 -0.14753372751E+04  0.15018612445E+04  0.00000000000E+00 0. -1.
         -4    1    3    3    0  502 -0.42464889341E+02  0.98424301639E+02 -0.34894057749E+03  0.36503443207E+03  0.00000000000E+00 0.  1.
         11    1    5    5    0    0  0.17543433158E+03 -0.74232933694E+02  0.12469225065E+03  0.22767496681E+03  0.00000000000E+00 0. -1.
        -11    1    5    5    0    0  0.37355890003E+03 -0.11262431281E+03  0.41894049667E+03  0.57248722900E+03  0.00000000000E+00 0.  1.
          1    1    6    6  503    0 -0.15285683706E+02 -0.91823280207E+01  0.88688706570E+02  0.90463550380E+02  0.00000000000E+00 0. -1.
         -1    1    6    6    0  503 -0.38174862564E+03 -0.16118615496E+03  0.66624706791E+03  0.78460062785E+03  0.00000000000E+00 0.  1.
<mgrwt>
<rscale>  0 0.35028929E+04</rscale>
<asrwt>0</asrwt>
<pdfrwt beam="1">  1        1 0.31291011E+00 0.35028929E+04</pdfrwt>
<pdfrwt beam="2">  1       -2 0.23203175E+00 0.35028929E+04</pdfrwt>
<totfact> 0.16829632E-01</totfact>
</mgrwt>
</event>
<event>
12    4  0.4207946E-008  0.1781434E+04  0.7818608E-02  0.8716235E-01
          1   -1    0    0  501    0  0.00000000000E+00  0.00000000000E+00  0.87441673487E+03  0.87441673487E+03  0.00000000000E+00 0. -1.
         -2   -1    0    0    0  501 -0.00000000000E+00 -0.00000000000E+00 -0.90732124821E+03  0.90732124821E+03  0.00000000000E+00 0.  1.
        -24    2    1    2    0    0  0.43229847509E+03 -0.62904400678E+02 -0.51640616036E+03  0.68125308200E+03  0.81188078522E+02 0.  0.
        254    2    1    2    0    0 -0.43229847509E+03  0.62904400678E+02  0.48350164701E+03  0.11004849011E+04  0.88682255251E+03 0.  0.
         23    2    4    4    0    0 -0.16800930435E+03 -0.17267781720E+03  0.64976580019E+03  0.69898170112E+03  0.91296596336E+02 0.  0.
         23    2    4    4    0    0 -0.26428917074E+03  0.23558221787E+03 -0.16626415318E+03  0.40150319996E+03  0.90627279542E+02 0.  0.
          3    1    3    3  502    0  0.10411737188E+03 -0.32436969757E+02 -0.17884234687E+03  0.20946877850E+03  0.00000000000E+00 0. -1.
         -4    1    3    3    0  502  0.32818110321E+03 -0.30467430920E+02 -0.33756381349E+03  0.47178430350E+03  0.00000000000E+00 0.  1.
         11    1    5    5    0    0 -0.14012648703E+02 -0.10535217777E+02  0.78082218954E+01  0.19191494638E+02  0.00000000000E+00 0. -1.
        -11    1    5    5    0    0 -0.15399665565E+03 -0.16214259942E+03  0.64195757829E+03  0.67979020648E+03  0.00000000000E+00 0.  1.
          4    1    6    6  503    0 -0.25968181550E+03  0.22641958740E+03 -0.17641838066E+03  0.38707094943E+03  0.00000000000E+00 0.  1.
         -4    1    6    6    0  503 -0.46073552396E+01  0.91626304728E+01  0.10154227483E+02  0.14432250526E+02  0.00000000000E+00 0. -1.
<mgrwt>
<rscale>  0 0.17814341E+04</rscale>
<asrwt>0</asrwt>
<pdfrwt beam="1">  1        1 0.13452565E+00 0.17814341E+04</pdfrwt>
<pdfrwt beam="2">  1       -2 0.13958788E+00 0.17814341E+04</pdfrwt>
<totfact> 0.57250852E+00</totfact>
</mgrwt>
</event>
<event>
12    4  0.4207946E-008  0.1559285E+04  0.7818608E-02  0.8845959E-01
         -2   -1    0    0    0  501 -0.00000000000E+00  0.00000000000E+00  0.23077605366E+03  0.23077605366E+03  0.00000000000E+00 0.  1.
          1   -1    0    0  501    0  0.00000000000E+00 -0.00000000000E+00 -0.26339047505E+04  0.26339047505E+04  0.00000000000E+00 0. -1.
        -24    2    1    2    0    0  0.11411052471E+03 -0.53819548611E+02 -0.17010859316E+04  0.17077450635E+04  0.82353502612E+02 0.  0.
        254    2    1    2    0    0 -0.11411052471E+03  0.53819548611E+02 -0.70204276527E+03  0.11569357407E+04  0.91088885615E+03 0.  0.
         23    2    4    4    0    0 -0.39802570702E+03 -0.74175497923E+02 -0.72135855087E+03  0.83214780794E+03  0.90472909746E+02 0.  0.
         23    2    4    4    0    0  0.28391518232E+03  0.12799504653E+03  0.19315785601E+02  0.32478793280E+03  0.90130677526E+02 0.  0.
          3    1    3    3  502    0  0.75040139089E+02 -0.50774350801E+02 -0.15081635960E+04  0.15108826856E+04  0.00000000000E+00 0. -1.
         -4    1    3    3    0  502  0.39070385618E+02 -0.30451978100E+01 -0.19292233557E+03  0.19686237788E+03  0.00000000000E+00 0.  1.
         11    1    5    5    0    0 -0.25728876920E+03 -0.17807311403E+02 -0.51630555360E+03  0.57713606349E+03  0.00000000000E+00 0. -1.
        -11    1    5    5    0    0 -0.14073693782E+03 -0.56368186521E+02 -0.20505299727E+03  0.25501174445E+03  0.00000000000E+00 0.  1.
          1    1    6    6  503    0  0.17013965120E+03  0.34173295975E+02 -0.12278624524E+02  0.17397149103E+03  0.00000000000E+00 0. -1.
         -1    1    6    6    0  503  0.11377553111E+03  0.93821750559E+02  0.31594410125E+02  0.15081644177E+03  0.00000000000E+00 0.  1.
<mgrwt>
<rscale>  0 0.15592846E+04</rscale>
<asrwt>0</asrwt>
<pdfrwt beam="1">  1        1 0.40521611E+00 0.15592846E+04</pdfrwt>
<pdfrwt beam="2">  1       -2 0.35504009E-01 0.15592846E+04</pdfrwt>
<totfact> 0.69038119E+00</totfact>
</mgrwt>
</event>
<event>
12    4  0.4207946E-008  0.1888538E+04  0.7818608E-02  0.8660583E-01
          1   -1    0    0  501    0  0.00000000000E+00  0.00000000000E+00  0.88851405941E+03  0.88851405941E+03  0.00000000000E+00 0. -1.
         -2   -1    0    0    0  501 -0.00000000000E+00 -0.00000000000E+00 -0.10035225107E+04  0.10035225107E+04  0.00000000000E+00 0.  1.
        -24    2    1    2    0    0 -0.79094563333E+02  0.55581061339E+02  0.67577329692E+03  0.68713370469E+03  0.78345229280E+02 0.  0.
        254    2    1    2    0    0  0.79094563333E+02 -0.55581061339E+02 -0.79078174822E+03  0.12049028654E+04  0.90394133521E+03 0.  0.
         23    2    4    4    0    0 -0.11808211984E+02  0.41199248154E+03 -0.41009899141E+03  0.58852619884E+03  0.91129936063E+02 0.  0.
         23    2    4    4    0    0  0.90902775317E+02 -0.46757354288E+03 -0.38068275681E+03  0.61637666660E+03  0.90069424520E+02 0.  0.
          1    1    3    3  502    0 -0.84587025477E+02  0.60118618046E+02  0.66992894952E+03  0.67791888196E+03  0.00000000000E+00 0. -1.
         -2    1    3    3    0  502  0.54924621437E+01 -0.45375567070E+01  0.58443474055E+01  0.92148227257E+01  0.00000000000E+00 0.  1.
         11    1    5    5    0    0 -0.14339638854E+02  0.41474831349E+03 -0.41159785646E+03  0.58449515330E+03  0.00000000000E+00 0.  1.
        -11    1    5    5    0    0  0.25314268697E+01 -0.27558319500E+01  0.14988650474E+01  0.40310455423E+01  0.00000000000E+00 0. -1.
          1    1    6    6  503    0  0.21978136635E+02 -0.99360773343E+02 -0.13227771706E+03  0.16689216938E+03  0.00000000000E+00 0. -1.
         -1    1    6    6    0  503  0.68924638682E+02 -0.36821276954E+03 -0.24840503975E+03  0.44948449722E+03  0.00000000000E+00 0.  1.
<mgrwt>
<rscale>  0 0.18885379E+04</rscale>
<asrwt>0</asrwt>
<pdfrwt beam="1">  1        1 0.13669447E+00 0.18885379E+04</pdfrwt>
<pdfrwt beam="2">  1       -2 0.15438808E+00 0.18885379E+04</pdfrwt>
<totfact> 0.42336605E+00</totfact>
</mgrwt>
</event>
<event>
12    4  0.4207946E-008  0.1202809E+04  0.7818608E-02  0.9110402E-01
         -2   -1    0    0    0  501 -0.00000000000E+00  0.00000000000E+00  0.65550393937E+03  0.65550393937E+03  0.00000000000E+00 0.  1.
          1   -1    0    0  501    0  0.00000000000E+00 -0.00000000000E+00 -0.55176957750E+03  0.55176957750E+03  0.00000000000E+00 0. -1.
        -24    2    1    2    0    0 -0.23504216082E+03 -0.50198594746E+02  0.62244387783E+02  0.26360685851E+03  0.88597380120E+02 0.  0.
        254    2    1    2    0    0  0.23504216082E+03  0.50198594746E+02  0.41489974083E+02  0.94366665836E+03  0.91160332814E+03 0.  0.
         23    2    4    4    0    0  0.37336012867E+02  0.45233869036E+03 -0.81554922512E+02  0.47010242789E+03  0.91328082592E+02 0.  0.
         23    2    4    4    0    0  0.19770614796E+03 -0.40214009562E+03  0.12304489660E+03  0.47356423047E+03  0.91206668388E+02 0.  0.
          3    1    3    3  502    0 -0.53461050111E+01 -0.24433581326E+02  0.65441332060E+01  0.25853557098E+02  0.00000000000E+00 0. -1.
         -4    1    3    3    0  502 -0.22969605581E+03 -0.25765013419E+02  0.55700254577E+02  0.23775330141E+03  0.00000000000E+00 0.  1.
         11    1    5    5    0    0  0.34429860176E+02  0.45447247954E+03 -0.86572379140E+02  0.46392394501E+03  0.00000000000E+00 0.  1.
        -11    1    5    5    0    0  0.29061526907E+01 -0.21337891729E+01  0.50174566273E+01  0.61784828803E+01  0.00000000000E+00 0. -1.
          1    1    6    6  503    0  0.43843588431E+02 -0.10069356886E+03 -0.91827113117E+01  0.11020788195E+03  0.00000000000E+00 0. -1.
         -1    1    6    6    0  503  0.15386255953E+03 -0.30144652675E+03  0.13222760791E+03  0.36335634852E+03  0.00000000000E+00 0.  1.
<mgrwt>
<rscale>  0 0.12028086E+04</rscale>
<asrwt>0</asrwt>
<pdfrwt beam="1">  1        1 0.84887627E-01 0.12028086E+04</pdfrwt>
<pdfrwt beam="2">  1       -2 0.10084676E+00 0.12028086E+04</pdfrwt>
<totfact> 0.27066485E+01</totfact>
</mgrwt>
</event>
<event>
12    4  0.4207946E-008  0.2737924E+04  0.7818608E-02  0.8322804E-01
          1   -1    0    0  501    0  0.00000000000E+00  0.00000000000E+00  0.13673921656E+04  0.13673921656E+04  0.00000000000E+00 0. -1.
         -2   -1    0    0    0  501 -0.00000000000E+00 -0.00000000000E+00 -0.13705335847E+04  0.13705335847E+04  0.00000000000E+00 0.  1.
        -24    2    1    2    0    0  0.11579106750E+04  0.37840810476E+03 -0.32072688391E+03  0.12623395637E+04  0.81765611276E+02 0.  0.
        254    2    1    2    0    0 -0.11579106750E+04 -0.37840810476E+03  0.31758546479E+03  0.14755861866E+04  0.76976895342E+03 0.  0.
         23    2    4    4    0    0 -0.31532570137E+03 -0.24051388517E+03  0.44978552340E+03  0.60671792757E+03  0.92316843910E+02 0.  0.
         23    2    4    4    0    0 -0.84258497359E+03 -0.13789421959E+03 -0.13220005861E+03  0.86886825901E+03  0.92146310296E+02 0.  0.
          1    1    3    3  502    0  0.13905639423E+03  0.64484800312E+02 -0.19738877193E+02  0.15454641219E+03  0.00000000000E+00 0. -1.
         -4    1    3    3    0  502  0.10188542807E+04  0.31392330445E+03 -0.30098800672E+03  0.11077931516E+04  0.00000000000E+00 0.  1.
         11    1    5    5    0    0 -0.86531812697E+02 -0.26296276027E+02  0.13508545471E+03  0.16256484495E+03  0.00000000000E+00 0. -1.
        -11    1    5    5    0    0 -0.22879388867E+03 -0.21421760915E+03  0.31470006869E+03  0.44415308262E+03  0.00000000000E+00 0.  1.
          3    1    6    6  503    0 -0.35337311818E+03 -0.12286872012E+02 -0.48395402664E+02  0.35688323423E+03  0.00000000000E+00 0. -1.
         -3    1    6    6    0  503 -0.48921185541E+03 -0.12560734757E+03 -0.83804655948E+02  0.51198502478E+03  0.00000000000E+00 0.  1.
<mgrwt>
<rscale>  0 0.27379239E+04</rscale>
<asrwt>0</asrwt>
<pdfrwt beam="1">  1        1 0.21036803E+00 0.27379239E+04</pdfrwt>
<pdfrwt beam="2">  1       -2 0.21085132E+00 0.27379239E+04</pdfrwt>
<totfact> 0.69987459E-01</totfact>
</mgrwt>
</event>
<event>
12    4  0.4207946E-008  0.1997349E+04  0.7818608E-02  0.8607861E-01
         -2   -1    0    0    0  501 -0.00000000000E+00  0.00000000000E+00  0.94098823624E+03  0.94098823624E+03  0.00000000000E+00 0.  1.
          1   -1    0    0  501    0  0.00000000000E+00 -0.00000000000E+00 -0.10598975808E+04  0.10598975808E+04  0.00000000000E+00 0. -1.
        -24    2    1    2    0    0 -0.80173204210E+02  0.32410017918E+03  0.67541163533E+03  0.75772779546E+03  0.80634149448E+02 0.  0.
        254    2    1    2    0    0  0.80173204210E+02 -0.32410017918E+03 -0.79432097986E+03  0.12431580215E+04  0.89611794907E+03 0.  0.
         23    2    4    4    0    0  0.24395942985E+03 -0.13291046874E+03  0.10043397848E+03  0.30924995759E+03  0.91472160364E+02 0.  0.
         23    2    4    4    0    0 -0.16378622564E+03 -0.19118971044E+03 -0.89475495835E+03  0.93390806395E+03  0.90655409828E+02 0.  0.
          3    1    3    3  502    0 -0.60701307087E+02  0.18648124110E+03  0.31054541522E+03  0.36728511660E+03  0.00000000000E+00 0. -1.
         -4    1    3    3    0  502 -0.19471897123E+02  0.13761893808E+03  0.36486622012E+03  0.39044267886E+03  0.00000000000E+00 0.  1.
         11    1    5    5    0    0  0.19121422613E+03 -0.77388016435E+02  0.10701158472E+03  0.23238602503E+03  0.00000000000E+00 0. -1.
        -11    1    5    5    0    0  0.52745203724E+02 -0.55522452303E+02 -0.65776062405E+01  0.76863932566E+02  0.00000000000E+00 0.  1.
          3    1    6    6  503    0 -0.89240059365E+02 -0.14158700158E+03 -0.69722661497E+03  0.71703250961E+03  0.00000000000E+00 0. -1.
         -3    1    6    6    0  503 -0.74546166278E+02 -0.49602708856E+02 -0.19752834338E+03  0.21687555434E+03  0.00000000000E+00 0.  1.
<mgrwt>
<rscale>  0 0.19973494E+04</rscale>
<asrwt>0</asrwt>
<pdfrwt beam="1">  1        1 0.16306116E+00 0.19973494E+04</pdfrwt>
<pdfrwt beam="2">  1       -2 0.14476742E+00 0.19973494E+04</pdfrwt>
<totfact> 0.36406567E+00</totfact>
</mgrwt>
</event>
<event>
12    4  0.4207946E-008  0.1174611E+04  0.7818608E-02  0.9135375E-01
         -2   -1    0    0    0  501 -0.00000000000E+00  0.00000000000E+00  0.12070910583E+03  0.12070910583E+03  0.00000000000E+00 0.  1.
          1   -1    0    0  501    0  0.00000000000E+00 -0.00000000000E+00 -0.28575100696E+04  0.28575100696E+04  0.00000000000E+00 0. -1.
        -24    2    1    2    0    0 -0.19902632612E+03 -0.36219165607E+02 -0.26105134815E+03  0.33983091702E+03  0.80087073549E+02 0.  0.
        254    2    1    2    0    0  0.19902632612E+03  0.36219165607E+02 -0.24757496156E+04  0.26383882584E+04  0.88928799406E+03 0.  0.
         23    2    4    4    0    0  0.41357974819E+01 -0.14414142582E+03 -0.23017871482E+04  0.23080613455E+04  0.90162317976E+02 0.  0.
         23    2    4    4    0    0  0.19489052864E+03  0.18036059143E+03 -0.17396246746E+03  0.33032691292E+03  0.91327258935E+02 0.  0.
          3    1    3    3  502    0 -0.53582493436E+02 -0.44008056454E+02 -0.60850804609E+02  0.92252984002E+02  0.00000000000E+00 0. -1.
         -2    1    3    3    0  502 -0.14544383268E+03  0.77888908473E+01 -0.20020054354E+03  0.24757793302E+03  0.00000000000E+00 0.  1.
         11    1    5    5    0    0 -0.16484664026E+02 -0.14530852355E+03 -0.21345494317E+04  0.21395531280E+04  0.00000000000E+00 0.  1.
        -11    1    5    5    0    0  0.20620461508E+02  0.11670977246E+01 -0.16723771646E+03  0.16850821747E+03  0.00000000000E+00 0. -1.
          4    1    6    6  503    0  0.57090567063E+02  0.14123401639E+02 -0.67678046644E+02  0.89661147210E+02  0.00000000000E+00 0. -1.
         -4    1    6    6    0  503  0.13779996157E+03  0.16623718979E+03 -0.10628442082E+03  0.24066576571E+03  0.00000000000E+00 0.  1.
<mgrwt>
<rscale>  0 0.11746105E+04</rscale>
<asrwt>0</asrwt>
<pdfrwt beam="1">  1        1 0.43961692E+00 0.11746105E+04</pdfrwt>
<pdfrwt beam="2">  1       -2 0.18570632E-01 0.11746105E+04</pdfrwt>
<totfact> 0.16249795E+01</totfact>
</mgrwt>
</event>
<event>
12    4  0.4207946E-008  0.1360985E+04  0.7818608E-02  0.8982554E-01
         -2   -1    0    0    0  501 -0.00000000000E+00  0.00000000000E+00  0.47039457375E+03  0.47039457375E+03  0.00000000000E+00 0.  1.
          1   -1    0    0  501    0  0.00000000000E+00 -0.00000000000E+00 -0.98442829706E+03  0.98442829706E+03  0.00000000000E+00 0. -1.
        -24    2    1    2    0    0 -0.52328746512E+01 -0.35728736875E+03 -0.97645117650E+01  0.36896358238E+03  0.91417353857E+02 0.  0.
        254    2    1    2    0    0  0.52328746512E+01  0.35728736875E+03 -0.50426921154E+03  0.10858592884E+04  0.89281650395E+03 0.  0.
         23    2    4    4    0    0  0.10372841704E+03  0.83004555800E+01  0.22650738793E+03  0.26517815516E+03  0.90473062951E+02 0.  0.
         23    2    4    4    0    0 -0.98495542390E+02  0.34898691317E+03 -0.73077659948E+03  0.82068113328E+03  0.89385942626E+02 0.  0.
          3    1    3    3  502    0 -0.38928890626E+02 -0.17622141137E+03 -0.32559455756E+02  0.18338364842E+03  0.00000000000E+00 0. -1.
         -4    1    3    3    0  502  0.33696015975E+02 -0.18106595739E+03  0.22794943991E+02  0.18557993396E+03  0.00000000000E+00 0.  1.
         11    1    5    5    0    0  0.60912227562E+01 -0.14837802529E+01 -0.84683829379E+01  0.10536513090E+02  0.00000000000E+00 0.  1.
        -11    1    5    5    0    0  0.97637194285E+02  0.97842358329E+01  0.23497577087E+03  0.25464164207E+03  0.00000000000E+00 0. -1.
          4    1    6    6  503    0 -0.10746126098E+03  0.33762516883E+03 -0.66682335207E+03  0.75511062773E+03  0.00000000000E+00 0. -1.
         -4    1    6    6    0  503  0.89657185937E+01  0.11361744344E+02 -0.63953247408E+02  0.65570505553E+02  0.00000000000E+00 0.  1.
<mgrwt>
<rscale>  0 0.13609845E+04</rscale>
<asrwt>0</asrwt>
<pdfrwt beam="1">  1        1 0.15145051E+00 0.13609845E+04</pdfrwt>
<pdfrwt beam="2">  1       -2 0.72368396E-01 0.13609845E+04</pdfrwt>
<totfact> 0.23059109E+01</totfact>
</mgrwt>
</event>
<event>
12    4  0.4207946E-008  0.2282535E+04  0.7818608E-02  0.8484839E-01
         -2   -1    0    0    0  501 -0.00000000000E+00  0.00000000000E+00  0.19521821087E+04  0.19521821087E+04  0.00000000000E+00 0.  1.
          1   -1    0    0  501    0  0.00000000000E+00 -0.00000000000E+00 -0.66719784262E+03  0.66719784262E+03  0.00000000000E+00 0. -1.
        -24    2    1    2    0    0  0.56858255596E+03 -0.64904856927E+03  0.10359180923E+04  0.13499469926E+04  0.68413599873E+02 0.  0.
        254    2    1    2    0    0 -0.56858255596E+03  0.64904856927E+03  0.24906617384E+03  0.12694329588E+04  0.89714876673E+03 0.  0.
         23    2    4    4    0    0 -0.27470463196E+02  0.29397931788E+03  0.48401864904E+03  0.57456074249E+03  0.93099562348E+02 0.  0.
         23    2    4    4    0    0 -0.54111209277E+03  0.35506925139E+03 -0.23495247520E+03  0.69487221628E+03  0.93638993670E+02 0.  0.
          1    1    3    3  502    0  0.20493018586E+03 -0.19236337533E+03  0.36288040874E+03  0.45900135108E+03  0.00000000000E+00 0. -1.
         -2    1    3    3    0  502  0.36365237010E+03 -0.45668519394E+03  0.67303768354E+03  0.89094564150E+03  0.00000000000E+00 0.  1.
         11    1    5    5    0    0 -0.20203214062E+02  0.17184290643E+03  0.36468292194E+03  0.40364809909E+03  0.00000000000E+00 0.  1.
        -11    1    5    5    0    0 -0.72672491340E+01  0.12213641145E+03  0.11933572710E+03  0.17091264340E+03  0.00000000000E+00 0. -1.
          2    1    6    6  503    0 -0.24444827650E+03  0.16250375039E+03 -0.15628599748E+03  0.33254735269E+03  0.00000000000E+00 0. -1.
         -2    1    6    6    0  503 -0.29666381626E+03  0.19256550101E+03 -0.78666477718E+02  0.36232486359E+03  0.00000000000E+00 0.  1.
<mgrwt>
<rscale>  0 0.22825352E+04</rscale>
<asrwt>0</asrwt>
<pdfrwt beam="1">  1        1 0.10264582E+00 0.22825352E+04</pdfrwt>
<pdfrwt beam="2">  1       -2 0.30033571E+00 0.22825352E+04</pdfrwt>
<totfact> 0.73535160E-01</totfact>
</mgrwt>
</event>
<event>
12    4  0.4207946E-008  0.1038256E+04  0.7818608E-02  0.9267553E-01
          1   -1    0    0  501    0  0.00000000000E+00  0.00000000000E+00  0.13823872427E+04  0.13823872427E+04  0.00000000000E+00 0. -1.
         -2   -1    0    0    0  501 -0.00000000000E+00 -0.00000000000E+00 -0.19494834749E+03  0.19494834749E+03  0.00000000000E+00 0.  1.
        -24    2    1    2    0    0  0.85075515668E+02 -0.17829207456E+02  0.53748515246E+02  0.12907233913E+03  0.78835536608E+02 0.  0.
        254    2    1    2    0    0 -0.85075515668E+02  0.17829207456E+02  0.11336903799E+04  0.14482632510E+04  0.89702666778E+03 0.  0.
         23    2    4    4    0    0 -0.33091144813E+03 -0.32268516051E+03  0.57739466742E+03  0.74547837436E+03  0.93409342946E+02 0.  0.
         23    2    4    4    0    0  0.24583593246E+03  0.34051436796E+03  0.55629571250E+03  0.70278487666E+03  0.89757019950E+02 0.  0.
          1    1    3    3  502    0  0.54742801157E+02  0.14512137309E+02  0.61998491854E+02  0.83971360594E+02  0.00000000000E+00 0. -1.
         -2    1    3    3    0  502  0.30332714511E+02 -0.32341344765E+02 -0.82499766074E+01  0.45100978535E+02  0.00000000000E+00 0.  1.
         11    1    5    5    0    0 -0.20222877556E+03 -0.22207925167E+03  0.30641510308E+03  0.42907561931E+03  0.00000000000E+00 0.  1.
        -11    1    5    5    0    0 -0.12868267257E+03 -0.10060590884E+03  0.27097956434E+03  0.31640275505E+03  0.00000000000E+00 0. -1.
          4    1    6    6  503    0  0.22586902721E+03  0.25568213308E+03  0.46299465523E+03  0.57511235545E+03  0.00000000000E+00 0.  1.
         -4    1    6    6    0  503  0.19966905248E+02  0.84832234890E+02  0.93301057278E+02  0.12767252120E+03  0.00000000000E+00 0. -1.
<mgrwt>
<rscale>  0 0.10382564E+04</rscale>
<asrwt>0</asrwt>
<pdfrwt beam="1">  1        1 0.21267495E+00 0.10382564E+04</pdfrwt>
<pdfrwt beam="2">  1       -2 0.29992054E-01 0.10382564E+04</pdfrwt>
<totfact> 0.71156093E+01</totfact>
</mgrwt>
</event>
<event>
12    4  0.4207946E-008  0.1701630E+04  0.7818608E-02  0.8760435E-01
         -2   -1    0    0    0  501 -0.00000000000E+00  0.00000000000E+00  0.95138447640E+03  0.95138447640E+03  0.00000000000E+00 0.  1.
          1   -1    0    0  501    0  0.00000000000E+00 -0.00000000000E+00 -0.76087643512E+03  0.76087643512E+03  0.00000000000E+00 0. -1.
        -24    2    1    2    0    0 -0.48530894119E+02 -0.31365930880E+03 -0.45922824728E+03  0.56410120382E+03  0.81130606862E+02 0.  0.
        254    2    1    2    0    0  0.48530894119E+02  0.31365930880E+03  0.64973628856E+03  0.11481597077E+04  0.89183858406E+03 0.  0.
         23    2    4    4    0    0  0.20729759441E+03  0.57887981228E+03  0.46515589719E+03  0.77646873504E+03  0.91975855987E+02 0.  0.
         23    2    4    4    0    0 -0.15876670029E+03 -0.26522050348E+03  0.18458039137E+03  0.37169097266E+03  0.92387649028E+02 0.  0.
          3    1    3    3  502    0 -0.17204048573E+02 -0.25795614028E+03 -0.40398520644E+03  0.47962630934E+03  0.00000000000E+00 0. -1.
         -4    1    3    3    0  502 -0.31326845546E+02 -0.55703168522E+02 -0.55243040847E+02  0.84474894479E+02  0.00000000000E+00 0.  1.
         11    1    5    5    0    0  0.46183707483E+02  0.75949576118E+02  0.35715964085E+02  0.95796153576E+02  0.00000000000E+00 0.  1.
        -11    1    5    5    0    0  0.16111388693E+03  0.50293023616E+03  0.42943993311E+03  0.68067258146E+03  0.00000000000E+00 0. -1.
          1    1    6    6  503    0 -0.98956774171E+02 -0.17164557129E+03  0.65054311395E+02  0.20853467033E+03  0.00000000000E+00 0. -1.
         -1    1    6    6    0  503 -0.59809926119E+02 -0.93574932185E+02  0.11952607998E+03  0.16315630233E+03  0.00000000000E+00 0.  1.
<mgrwt>
<rscale>  0 0.17016298E+04</rscale>
<asrwt>0</asrwt>
<pdfrwt beam="1">  1        1 0.11705791E+00 0.17016298E+04</pdfrwt>
<pdfrwt beam="2">  1       -2 0.14636684E+00 0.17016298E+04</pdfrwt>
<totfact> 0.63769013E+00</totfact>
</mgrwt>
</event>
<event>
12    4  0.4207946E-008  0.1431019E+04  0.7818608E-02  0.8931667E-01
          1   -1    0    0  501    0  0.00000000000E+00  0.00000000000E+00  0.15086677326E+04  0.15086677326E+04  0.00000000000E+00 0. -1.
         -2   -1    0    0    0  501 -0.00000000000E+00 -0.00000000000E+00 -0.33934152903E+03  0.33934152903E+03  0.00000000000E+00 0.  1.
        -24    2    1    2    0    0 -0.13473294172E+03  0.25317225997E+03  0.78190651879E+03  0.83672438912E+03  0.80503045996E+02 0.  0.
        254    2    1    2    0    0  0.13473294172E+03 -0.25317225997E+03  0.38741968477E+03  0.10112848725E+04  0.88901851634E+03 0.  0.
         23    2    4    4    0    0  0.25525664140E+03 -0.47680878932E+03  0.47659030630E+03  0.72653623817E+03  0.90631179890E+02 0.  0.
         23    2    4    4    0    0 -0.12052369967E+03  0.22363652935E+03 -0.89170621528E+02  0.28474863433E+03  0.92688324841E+02 0.  0.
          1    1    3    3  502    0 -0.14546607012E+02  0.94800314477E+01  0.11949329002E+03  0.12074817238E+03  0.00000000000E+00 0. -1.
         -2    1    3    3    0  502 -0.12018633471E+03  0.24369222852E+03  0.66241322877E+03  0.71597621674E+03  0.00000000000E+00 0.  1.
         11    1    5    5    0    0  0.53744856031E+02 -0.18870489165E+03  0.18692049577E+03  0.27099320549E+03  0.00000000000E+00 0. -1.
        -11    1    5    5    0    0  0.20151178536E+03 -0.28810389768E+03  0.28966981053E+03  0.45554303269E+03  0.00000000000E+00 0.  1.
          3    1    6    6  503    0 -0.36276084837E+02  0.13624414484E+03 -0.82104317666E+02  0.16315495798E+03  0.00000000000E+00 0. -1.
         -3    1    6    6    0  503 -0.84247614836E+02  0.87392384516E+02 -0.70663038617E+01  0.12159367635E+03  0.00000000000E+00 0.  1.
<mgrwt>
<rscale>  0 0.14310187E+04</rscale>
<asrwt>0</asrwt>
<pdfrwt beam="1">  1        1 0.23210272E+00 0.14310187E+04</pdfrwt>
<pdfrwt beam="2">  1       -2 0.52206390E-01 0.14310187E+04</pdfrwt>
<totfact> 0.19071156E+01</totfact>
</mgrwt>
</event>
<event>
12    4  0.4207946E-008  0.2406632E+04  0.7818608E-02  0.8437025E-01
         -2   -1    0    0    0  501 -0.00000000000E+00  0.00000000000E+00  0.64323192272E+03  0.64323192272E+03  0.00000000000E+00 0.  1.
          1   -1    0    0  501    0  0.00000000000E+00 -0.00000000000E+00 -0.22510844163E+04  0.22510844163E+04  0.00000000000E+00 0. -1.
        -24    2    1    2    0    0 -0.30972695557E+03 -0.29576805909E+03  0.43689641658E+03  0.61691782993E+03  0.79370008721E+02 0.  0.
        254    2    1    2    0    0  0.30972695557E+03  0.29576805909E+03 -0.20447489101E+04  0.22773985091E+04  0.90671733844E+03 0.  0.
         23    2    4    4    0    0 -0.30340994370E+02  0.11636393879E+03  0.39252608715E+02  0.15628291312E+03  0.91773849507E+02 0.  0.
         23    2    4    4    0    0  0.34006794994E+03  0.17940412030E+03 -0.20840015189E+04  0.21211155960E+04  0.90757874799E+02 0.  0.
          1    1    3    3  502    0 -0.33727284612E+02 -0.45948557620E+02  0.98639556574E+02  0.11392349097E+03  0.00000000000E+00 0. -1.
         -2    1    3    3    0  502 -0.27599967096E+03 -0.24981950147E+03  0.33825686001E+03  0.50299433896E+03  0.00000000000E+00 0.  1.
         11    1    5    5    0    0  0.26130155680E+02  0.25736747204E+02 -0.10967876848E+02  0.38281320707E+02  0.00000000000E+00 0. -1.
        -11    1    5    5    0    0 -0.56471150050E+02  0.90627191587E+02  0.50220485563E+02  0.11800159242E+03  0.00000000000E+00 0.  1.
          1    1    6    6  503    0  0.14648042543E+02 -0.10648573732E+02 -0.86353411791E+02  0.88231904665E+02  0.00000000000E+00 0. -1.
         -1    1    6    6    0  503  0.32541990740E+03  0.19005269403E+03 -0.19976481071E+04  0.20328836913E+04  0.00000000000E+00 0.  1.
<mgrwt>
<rscale>  0 0.24066320E+04</rscale>
<asrwt>0</asrwt>
<pdfrwt beam="1">  1        1 0.34632069E+00 0.24066320E+04</pdfrwt>
<pdfrwt beam="2">  1       -2 0.98958754E-01 0.24066320E+04</pdfrwt>
<totfact> 0.13396582E+00</totfact>
</mgrwt>
</event>
<event>
12    4  0.4207946E-008  0.1412571E+04  0.7818608E-02  0.8944769E-01
          1   -1    0    0  501    0  0.00000000000E+00  0.00000000000E+00  0.11298790792E+04  0.11298790792E+04  0.00000000000E+00 0. -1.
         -2   -1    0    0    0  501 -0.00000000000E+00 -0.00000000000E+00 -0.44149803680E+03  0.44149803680E+03  0.00000000000E+00 0.  1.
        -24    2    1    2    0    0  0.18380652681E+03  0.33795209827E+03  0.16302558820E+02  0.39213911108E+03  0.74235092725E+02 0.  0.
        254    2    1    2    0    0 -0.18380652681E+03 -0.33795209827E+03  0.67207848357E+03  0.11792380049E+04  0.88933476495E+03 0.  0.
         23    2    4    4    0    0 -0.36313338724E+02 -0.17254976305E+03  0.85478938030E+03  0.87737939603E+03  0.89652889644E+02 0.  0.
         23    2    4    4    0    0 -0.14749318808E+03 -0.16540233522E+03 -0.18271089673E+03  0.30185860888E+03  0.92861051826E+02 0.  0.
          3    1    3    3  502    0  0.16420260331E+03  0.30853612472E+03 -0.73831125284E+01  0.34958767933E+03  0.00000000000E+00 0. -1.
         -4    1    3    3    0  502  0.19603923498E+02  0.29415973549E+02  0.23685671349E+02  0.42551431746E+02  0.00000000000E+00 0.  1.
         11    1    5    5    0    0 -0.21312202686E+02 -0.57173478963E+02  0.13371239380E+03  0.14697625977E+03  0.00000000000E+00 0. -1.
        -11    1    5    5    0    0 -0.15001136038E+02 -0.11537628408E+03  0.72107698649E+03  0.73040313626E+03  0.00000000000E+00 0.  1.
          2    1    6    6  503    0  0.12425094686E+02 -0.21119141033E+02 -0.13666220624E+02  0.28056490908E+02  0.00000000000E+00 0. -1.
         -2    1    6    6    0  503 -0.15991828277E+03 -0.14428319419E+03 -0.16904467611E+03  0.27380211798E+03  0.00000000000E+00 0.  1.
<mgrwt>
<rscale>  0 0.14125713E+04</rscale>
<asrwt>0</asrwt>
<pdfrwt beam="1">  1        1 0.17382755E+00 0.14125713E+04</pdfrwt>
<pdfrwt beam="2">  1       -2 0.67922775E-01 0.14125713E+04</pdfrwt>
<totfact> 0.20417673E+01</totfact>
</mgrwt>
</event>
<event>
12    4  0.4207946E-008  0.1763072E+04  0.7818608E-02  0.8726188E-01
         -2   -1    0    0    0  501 -0.00000000000E+00  0.00000000000E+00  0.14102077708E+04  0.14102077708E+04  0.00000000000E+00 0.  1.
          1   -1    0    0  501    0  0.00000000000E+00 -0.00000000000E+00 -0.55105729598E+03  0.55105729598E+03  0.00000000000E+00 0. -1.
        -24    2    1    2    0    0 -0.30643232273E+03  0.31534641797E+03  0.85864509929E+03  0.96794064895E+03  0.79331970958E+02 0.  0.
        254    2    1    2    0    0  0.30643232273E+03 -0.31534641797E+03  0.50537557430E+00  0.99332441788E+03  0.89070141574E+03 0.  0.
         23    2    4    4    0    0  0.66213211080E+02 -0.56132513051E+03 -0.17247856018E+03  0.59797511215E+03  0.91407273047E+02 0.  0.
         23    2    4    4    0    0  0.24021911165E+03  0.24597871255E+03  0.17298393576E+03  0.39534930572E+03  0.90370807659E+02 0.  0.
          1    1    3    3  502    0 -0.33441112768E+02  0.25545425084E+02  0.14230700755E+03  0.14839865621E+03  0.00000000000E+00 0. -1.
         -2    1    3    3    0  502 -0.27299120996E+03  0.28980099288E+03  0.71633809174E+03  0.81954199274E+03  0.00000000000E+00 0.  1.
         11    1    5    5    0    0  0.12163292934E+01 -0.36222838299E+03 -0.12529811200E+03  0.38328905251E+03  0.00000000000E+00 0.  1.
        -11    1    5    5    0    0  0.64996881787E+02 -0.19909674752E+03 -0.47180448181E+02  0.21468605965E+03  0.00000000000E+00 0. -1.
          4    1    6    6  503    0  0.18974122838E+03  0.23402220070E+03  0.16292168337E+03  0.34250780879E+03  0.00000000000E+00 0. -1.
         -4    1    6    6    0  503  0.50477883270E+02  0.11956511842E+02  0.10062252383E+02  0.52841496931E+02  0.00000000000E+00 0.  1.
<mgrwt>
<rscale>  0 0.17630715E+04</rscale>
<asrwt>0</asrwt>
<pdfrwt beam="1">  1        1 0.84778046E-01 0.17630715E+04</pdfrwt>
<pdfrwt beam="2">  1       -2 0.21695504E+00 0.17630715E+04</pdfrwt>
<totfact> 0.33095443E+00</totfact>
</mgrwt>
</event>
<event>
12    4  0.5888954E-008  0.1495945E+04  0.7818608E-02  0.8887154E-01
         -2   -1    0    0    0  501 -0.00000000000E+00  0.00000000000E+00  0.67104624152E+03  0.67104624152E+03  0.00000000000E+00 0.  1.
          1   -1    0    0  501    0  0.00000000000E+00 -0.00000000000E+00 -0.83371785500E+03  0.83371785500E+03  0.00000000000E+00 0. -1.
        -24    2    1    2    0    0  0.82823080368E+02  0.19997296442E+03  0.36915999867E+03  0.43547617851E+03  0.80694165145E+02 0.  0.
        254    2    1    2    0    0 -0.82823080368E+02 -0.19997296442E+03 -0.53183161215E+03  0.10692879180E+04  0.90204375658E+03 0.  0.
         23    2    4    4    0    0  0.22650228384E+03 -0.32549041852E+03  0.29464811213E+02  0.41000322512E+03  0.99935841319E+02 0.  0.
         23    2    4    4    0    0 -0.30932536421E+03  0.12551745410E+03 -0.56129642337E+03  0.65928469289E+03  0.90364922206E+02 0.  0.
          1    1    3    3  502    0  0.48357218053E+02  0.32460478917E+02  0.11838972014E+03  0.13194024808E+03  0.00000000000E+00 0. -1.
         -2    1    3    3    0  502  0.34465862314E+02  0.16751248550E+03  0.25077027853E+03  0.30353593042E+03  0.00000000000E+00 0.  1.
         11    1    5    5    0    0 -0.36744785606E+01 -0.29497466753E+02  0.18244460788E+02  0.34877825147E+02  0.00000000000E+00 0. -1.
        -11    1    5    5    0    0  0.23017676240E+03 -0.29599295176E+03  0.11220350425E+02  0.37512539998E+03  0.00000000000E+00 0.  1.
          1    1    6    6  503    0  0.28666286028E+01  0.13365988585E+02 -0.29406073363E+02  0.32428141499E+02  0.00000000000E+00 0. -1.
         -1    1    6    6    0  503 -0.31219199281E+03  0.11215146552E+03 -0.53189035000E+03  0.62685655139E+03  0.00000000000E+00 0.  1.
<mgrwt>
<rscale>  0 0.14959455E+04</rscale>
<asrwt>0</asrwt>
<pdfrwt beam="1">  1        1 0.12826429E+00 0.14959455E+04</pdfrwt>
<pdfrwt beam="2">  1       -2 0.10323788E+00 0.14959455E+04</pdfrwt>
<totfact> 0.13419582E+01</totfact>
</mgrwt>
</event>
<event>
12    4  0.4207946E-008  0.1480616E+04  0.7818608E-02  0.8897447E-01
         -2   -1    0    0    0  501 -0.00000000000E+00  0.00000000000E+00  0.19505545223E+04  0.19505545223E+04  0.00000000000E+00 0.  1.
          1   -1    0    0  501    0  0.00000000000E+00 -0.00000000000E+00 -0.28097430027E+03  0.28097430027E+03  0.00000000000E+00 0. -1.
        -24    2    1    2    0    0 -0.23509339251E+03  0.10824186119E+03 -0.42957863666E+02  0.27575443197E+03  0.84911277137E+02 0.  0.
        254    2    1    2    0    0  0.23509339251E+03 -0.10824186119E+03  0.17125380857E+04  0.19557743906E+04  0.90845009120E+03 0.  0.
         23    2    4    4    0    0  0.54458633360E+03 -0.21231016898E+03  0.12466231585E+04  0.13799334677E+04  0.92180222636E+02 0.  0.
         23    2    4    4    0    0 -0.30949294109E+03  0.10406830779E+03  0.46591492715E+03  0.57584092282E+03  0.88881695451E+02 0.  0.
          1    1    3    3  502    0 -0.22143774512E+03  0.99615256112E+02 -0.14763185254E+02  0.24326081858E+03  0.00000000000E+00 0. -1.
         -2    1    3    3    0  502 -0.13655647388E+02  0.86266050777E+01 -0.28194678412E+02  0.32493613395E+02  0.00000000000E+00 0.  1.
         11    1    5    5    0    0  0.53716142819E+03 -0.20483085140E+03  0.11812467229E+04  0.13137130196E+04  0.00000000000E+00 0. -1.
        -11    1    5    5    0    0  0.74249054058E+01 -0.74793175758E+01  0.65376435635E+02  0.66220448111E+02  0.00000000000E+00 0.  1.
          2    1    6    6  503    0 -0.31412369669E+03  0.10506332954E+03  0.46516826135E+03  0.57104598012E+03  0.00000000000E+00 0. -1.
         -2    1    6    6    0  503  0.46307556023E+01 -0.99502175320E+00  0.74666579643E+00  0.47949427055E+01  0.00000000000E+00 0.  1.
<mgrwt>
<rscale>  0 0.14806157E+04</rscale>
<asrwt>0</asrwt>
<pdfrwt beam="1">  1        1 0.43226817E-01 0.14806157E+04</pdfrwt>
<pdfrwt beam="2">  1       -2 0.30008530E+00 0.14806157E+04</pdfrwt>
<totfact> 0.25747774E+00</totfact>
</mgrwt>
</event>
<event>
12    4  0.4207946E-008  0.1436164E+04  0.7818608E-02  0.8928049E-01
          1   -1    0    0  501    0  0.00000000000E+00  0.00000000000E+00  0.12532184854E+04  0.12532184854E+04  0.00000000000E+00 0. -1.
         -2   -1    0    0    0  501 -0.00000000000E+00 -0.00000000000E+00 -0.41145424458E+03  0.41145424458E+03  0.00000000000E+00 0.  1.
        -24    2    1    2    0    0 -0.33617794365E+03 -0.26832964070E+03  0.31740048386E+03  0.54039036647E+03  0.79134538227E+02 0.  0.
        254    2    1    2    0    0  0.33617794365E+03  0.26832964070E+03  0.52436375696E+03  0.11242823635E+04  0.89668114591E+03 0.  0.
         23    2    4    4    0    0  0.30234013120E+03 -0.95111984066E+02  0.64749096169E+03  0.72702058379E+03  0.94119813747E+02 0.  0.
         23    2    4    4    0    0  0.33837812457E+02  0.36344162477E+03 -0.12312720472E+03  0.39726177973E+03  0.97065961745E+02 0.  0.
          3    1    3    3  502    0 -0.29534683710E+03 -0.21180489525E+03  0.29187604782E+03  0.46613591915E+03  0.00000000000E+00 0. -1.
         -4    1    3    3    0  502 -0.40831106554E+02 -0.56524745452E+02  0.25524436044E+02  0.74254447316E+02  0.00000000000E+00 0.  1.
         11    1    5    5    0    0  0.12819276863E+03  0.21817745851E+01  0.30175374180E+03  0.32786196297E+03  0.00000000000E+00 0.  1.
        -11    1    5    5    0    0  0.17414736256E+03 -0.97293758651E+02  0.34573721988E+03  0.39915862082E+03  0.00000000000E+00 0. -1.
          4    1    6    6  503    0  0.65473803207E+02  0.29386888451E+03 -0.93004018728E+02  0.31511186535E+03  0.00000000000E+00 0. -1.
         -4    1    6    6    0  503 -0.31635990750E+02  0.69572740259E+02 -0.30123185996E+02  0.82149914379E+02  0.00000000000E+00 0.  1.
<mgrwt>
<rscale>  0 0.14361644E+04</rscale>
<asrwt>0</asrwt>
<pdfrwt beam="1">  1        1 0.19280284E+00 0.14361644E+04</pdfrwt>
<pdfrwt beam="2">  1       -2 0.63300654E-01 0.14361644E+04</pdfrwt>
<totfact> 0.19262986E+01</totfact>
</mgrwt>
</event>
<event>
12    4  0.4207946E-008  0.1962340E+04  0.7818608E-02  0.8624433E-01
          1   -1    0    0  501    0  0.00000000000E+00  0.00000000000E+00  0.16618908818E+04  0.16618908818E+04  0.00000000000E+00 0. -1.
         -2   -1    0    0    0  501 -0.00000000000E+00 -0.00000000000E+00 -0.57927646531E+03  0.57927646531E+03  0.00000000000E+00 0.  1.
        -24    2    1    2    0    0 -0.67839367914E+03 -0.18804297026E+03  0.24155829375E+03  0.74763250384E+03  0.70892940134E+02 0.  0.
        254    2    1    2    0    0  0.67839367914E+03  0.18804297026E+03  0.84105612276E+03  0.14935348433E+04  0.10137518355E+04 0.  0.
         23    2    4    4    0    0 -0.19595026227E+03  0.25015840400E+03  0.36273379685E+03  0.49082530840E+03  0.91421789575E+02 0.  0.
         23    2    4    4    0    0  0.87434394141E+03 -0.62115433739E+02  0.47832232590E+03  0.10027095349E+04  0.91096151963E+02 0.  0.
          3    1    3    3  502    0 -0.54350077950E+03 -0.12460548074E+03  0.17532881799E+03  0.58451673848E+03  0.00000000000E+00 0. -1.
         -4    1    3    3    0  502 -0.13489289964E+03 -0.63437489513E+02  0.66229475762E+02  0.16311576536E+03  0.00000000000E+00 0.  1.
         11    1    5    5    0    0 -0.14594559516E+03  0.11356148857E+03  0.19311287184E+03  0.26737410066E+03  0.00000000000E+00 0. -1.
        -11    1    5    5    0    0 -0.50004667106E+02  0.13659691542E+03  0.16962092502E+03  0.22345120773E+03  0.00000000000E+00 0.  1.
          1    1    6    6  503    0  0.54006362097E+03  0.58838615897E+01  0.29816711828E+03  0.61693351744E+03  0.00000000000E+00 0. -1.
         -1    1    6    6    0  503  0.33428032044E+03 -0.67999295329E+02  0.18015520762E+03  0.38577601744E+03  0.00000000000E+00 0.  1.
<mgrwt>
<rscale>  0 0.19623397E+04</rscale>
<asrwt>0</asrwt>
<pdfrwt beam="1">  1        1 0.25567552E+00 0.19623397E+04</pdfrwt>
<pdfrwt beam="2">  1       -2 0.89119457E-01 0.19623397E+04</pdfrwt>
<totfact> 0.44695666E+00</totfact>
</mgrwt>
</event>
<event>
12    4  0.4207946E-008  0.4352606E+04  0.7818608E-02  0.7936962E-01
          1   -1    0    0  501    0  0.00000000000E+00  0.00000000000E+00  0.41223968075E+04  0.41223968075E+04  0.00000000000E+00 0. -1.
         -2   -1    0    0    0  501 -0.00000000000E+00 -0.00000000000E+00 -0.11489179698E+04  0.11489179698E+04  0.00000000000E+00 0.  1.
        -24    2    1    2    0    0  0.24536895981E+03  0.14533824149E+03 -0.10755316530E+04  0.11154884285E+04  0.78847743203E+02 0.  0.
        254    2    1    2    0    0 -0.24536895981E+03 -0.14533824149E+03  0.40490104907E+04  0.41558263488E+04  0.89167121573E+03 0.  0.
         23    2    4    4    0    0 -0.55610665519E+03 -0.65581475808E+02  0.19645390936E+04  0.20448150877E+04  0.91100771651E+02 0.  0.
         23    2    4    4    0    0  0.31073769538E+03 -0.79756765678E+02  0.20844713971E+04  0.21110112611E+04  0.91806766598E+02 0.  0.
          3    1    3    3  502    0  0.72788763292E+02  0.12000681327E+02 -0.19903026444E+03  0.21226225895E+03  0.00000000000E+00 0. -1.
         -4    1    3    3    0  502  0.17258019652E+03  0.13333756016E+03 -0.87650138856E+03  0.90322616953E+03  0.00000000000E+00 0.  1.
         11    1    5    5    0    0  0.19622862363E+01  0.25694422255E+01  0.34511437552E+01  0.47289527215E+01  0.00000000000E+00 0.  1.
        -11    1    5    5    0    0 -0.55806894142E+03 -0.68150918034E+02  0.19610879499E+04  0.20400861350E+04  0.00000000000E+00 0. -1.
          3    1    6    6  503    0  0.26719815251E+03 -0.71734190455E+02  0.15328979473E+04  0.15576638802E+04  0.00000000000E+00 0. -1.
         -3    1    6    6    0  503  0.43539542871E+02 -0.80225752227E+01  0.55157344977E+03  0.55334738094E+03  0.00000000000E+00 0.  1.
<mgrwt>
<rscale>  0 0.43526065E+04</rscale>
<asrwt>0</asrwt>
<pdfrwt beam="1">  1        1 0.63421489E+00 0.43526065E+04</pdfrwt>
<pdfrwt beam="2">  1       -2 0.17675661E+00 0.43526065E+04</pdfrwt>
<totfact> 0.95084467E-03</totfact>
</mgrwt>
</event>
<event>
12    4  0.4207946E-008  0.1750688E+04  0.7818608E-02  0.8732972E-01
          1   -1    0    0  501    0  0.00000000000E+00  0.00000000000E+00  0.33073468975E+03  0.33073468975E+03  0.00000000000E+00 0. -1.
         -2   -1    0    0    0  501 -0.00000000000E+00 -0.00000000000E+00 -0.23167433596E+04  0.23167433596E+04  0.00000000000E+00 0.  1.
        -24    2    1    2    0    0  0.43269709171E+03  0.19766461828E+03 -0.13761706378E+04  0.14578433249E+04  0.71857227506E+02 0.  0.
        254    2    1    2    0    0 -0.43269709171E+03 -0.19766461828E+03 -0.60983803208E+03  0.11896347245E+04  0.90389727170E+03 0.  0.
         23    2    4    4    0    0 -0.17933269613E+03 -0.28408130627E+03  0.14981790021E+03  0.37868351665E+03  0.89963315216E+02 0.  0.
         23    2    4    4    0    0 -0.25336439558E+03  0.86416687997E+02 -0.75965593229E+03  0.81095120782E+03  0.94357644563E+02 0.  0.
          3    1    3    3  502    0  0.69483078734E+02  0.10640824404E+02 -0.15626392194E+03  0.17134625375E+03  0.00000000000E+00 0. -1.
         -4    1    3    3    0  502  0.36321401297E+03  0.18702379387E+03 -0.12199067159E+04  0.12864970712E+04  0.00000000000E+00 0.  1.
         11    1    5    5    0    0 -0.88984674799E+02 -0.21049332956E+03  0.12127218774E+03  0.25871346632E+03  0.00000000000E+00 0. -1.
        -11    1    5    5    0    0 -0.90348021328E+02 -0.73587976717E+02  0.28545712467E+02  0.11997005033E+03  0.00000000000E+00 0.  1.
          3    1    6    6  503    0 -0.21515274063E+03  0.83353281596E+02 -0.71880809352E+03  0.75493280937E+03  0.00000000000E+00 0. -1.
         -3    1    6    6    0  503 -0.38211654946E+02  0.30634064016E+01 -0.40847838771E+02  0.56018398448E+02  0.00000000000E+00 0.  1.
<mgrwt>
<rscale>  0 0.17506883E+04</rscale>
<asrwt>0</asrwt>
<pdfrwt beam="1">  1        1 0.50882261E-01 0.17506883E+04</pdfrwt>
<pdfrwt beam="2">  1       -2 0.35642205E+00 0.17506883E+04</pdfrwt>
<totfact> 0.90951014E-01</totfact>
</mgrwt>
</event>
<event>
12    4  0.4207946E-008  0.1822081E+04  0.7818608E-02  0.8694645E-01
          1   -1    0    0  501    0  0.00000000000E+00  0.00000000000E+00  0.77531026282E+03  0.77531026282E+03  0.00000000000E+00 0. -1.
         -2   -1    0    0    0  501 -0.00000000000E+00 -0.00000000000E+00 -0.10705321764E+04  0.10705321764E+04  0.00000000000E+00 0.  1.
        -24    2    1    2    0    0 -0.59957649389E+03  0.26814432108E+03 -0.30533939971E+03  0.72883878954E+03  0.81120177326E+02 0.  0.
        254    2    1    2    0    0  0.59957649389E+03 -0.26814432108E+03  0.10117486160E+02  0.11170036497E+04  0.90343867576E+03 0.  0.
         23    2    4    4    0    0  0.35953428649E+03  0.18189660850E+03  0.31139766441E+03  0.51737484132E+03  0.91416309757E+02 0.  0.
         23    2    4    4    0    0  0.24004220740E+03 -0.45004092957E+03 -0.30128017825E+03  0.59962880833E+03  0.92886287212E+02 0.  0.
          3    1    3    3  502    0 -0.16520305521E+03  0.11097497518E+03 -0.75188733615E+02  0.21274595232E+03  0.00000000000E+00 0. -1.
         -4    1    3    3    0  502 -0.43437343869E+03  0.15716934589E+03 -0.23015066609E+03  0.51609283722E+03  0.00000000000E+00 0.  1.
         11    1    5    5    0    0  0.30848546267E+03  0.14064231609E+03  0.29574767743E+03  0.44990024501E+03  0.00000000000E+00 0. -1.
        -11    1    5    5    0    0  0.51048823823E+02  0.41254292401E+02  0.15649986978E+02  0.67474596313E+02  0.00000000000E+00 0.  1.
          2    1    6    6  503    0  0.87041645059E+02 -0.11820478762E+03 -0.12993641231E+03  0.19604104426E+03  0.00000000000E+00 0. -1.
         -2    1    6    6    0  503  0.15300056234E+03 -0.33183614195E+03 -0.17134376594E+03  0.40358776407E+03  0.00000000000E+00 0.  1.
<mgrwt>
<rscale>  0 0.18220808E+04</rscale>
<asrwt>0</asrwt>
<pdfrwt beam="1">  1        1 0.11927850E+00 0.18220808E+04</pdfrwt>
<pdfrwt beam="2">  1       -2 0.16469726E+00 0.18220808E+04</pdfrwt>
<totfact> 0.44603770E+00</totfact>
</mgrwt>
</event>
<event>
12    4  0.4207946E-008  0.1796102E+04  0.7818608E-02  0.8708375E-01
         -2   -1    0    0    0  501 -0.00000000000E+00  0.00000000000E+00  0.16145055859E+04  0.16145055859E+04  0.00000000000E+00 0.  1.
          1   -1    0    0  501    0  0.00000000000E+00 -0.00000000000E+00 -0.49953106175E+03  0.49953106175E+03  0.00000000000E+00 0. -1.
        -24    2    1    2    0    0 -0.20088547276E+03 -0.58274142322E+03  0.10709299128E+03  0.63086793683E+03  0.81135106058E+02 0.  0.
        254    2    1    2    0    0  0.20088547276E+03  0.58274142322E+03  0.10078815329E+04  0.14831687109E+04  0.89667257180E+03 0.  0.
         23    2    4    4    0    0  0.11351766459E+03  0.65545102064E+03  0.11178749768E+04  0.13042179031E+04  0.94008373907E+02 0.  0.
         23    2    4    4    0    0  0.87367808172E+02 -0.72709597425E+02 -0.10999344387E+03  0.17895080779E+03  0.83695964369E+02 0.  0.
          3    1    3    3  502    0 -0.19810477550E+03 -0.49706667956E+03  0.80453283767E+02  0.54110397972E+03  0.00000000000E+00 0. -1.
         -4    1    3    3    0  502 -0.27806972570E+01 -0.85674743661E+02  0.26639707515E+02  0.89763957105E+02  0.00000000000E+00 0.  1.
         11    1    5    5    0    0  0.19274109141E+02  0.62655414104E+02  0.17083786008E+03  0.18298296816E+03  0.00000000000E+00 0. -1.
        -11    1    5    5    0    0  0.94243555448E+02  0.59279560654E+03  0.94703711669E+03  0.11212349349E+04  0.00000000000E+00 0.  1.
          1    1    6    6  503    0 -0.52620490276E+01  0.13117135262E+01  0.92921915409E+01  0.10758930057E+02  0.00000000000E+00 0. -1.
         -1    1    6    6    0  503  0.92629857200E+02 -0.74021310951E+02 -0.11928563541E+03  0.16819187773E+03  0.00000000000E+00 0.  1.
<mgrwt>
<rscale>  0 0.17961021E+04</rscale>
<asrwt>0</asrwt>
<pdfrwt beam="1">  1        1 0.76850933E-01 0.17961021E+04</pdfrwt>
<pdfrwt beam="2">  1       -2 0.24838547E+00 0.17961021E+04</pdfrwt>
<totfact> 0.24099558E+00</totfact>
</mgrwt>
</event>
<event>
12    4  0.4207946E-008  0.1244146E+04  0.7818608E-02  0.9075069E-01
         -2   -1    0    0    0  501 -0.00000000000E+00  0.00000000000E+00  0.81691398863E+03  0.81691398863E+03  0.00000000000E+00 0.  1.
          1   -1    0    0  501    0  0.00000000000E+00 -0.00000000000E+00 -0.47370359920E+03  0.47370359920E+03  0.00000000000E+00 0. -1.
        -24    2    1    2    0    0  0.13910154327E+03 -0.24029945989E+03  0.66272495940E+02  0.29690588615E+03  0.81657772142E+02 0.  0.
        254    2    1    2    0    0 -0.13910154327E+03  0.24029945989E+03  0.27693789349E+03  0.99371170169E+03  0.91305820157E+03 0.  0.
         23    2    4    4    0    0  0.15252175326E+03  0.22912277696E+03  0.52520216968E+03  0.60024767796E+03  0.93272845599E+02 0.  0.
         23    2    4    4    0    0 -0.29162329653E+03  0.11176682929E+02 -0.24826427619E+03  0.39346402373E+03  0.89497049206E+02 0.  0.
          3    1    3    3  502    0  0.10224391198E+03 -0.17012561069E+03  0.82186875294E+01  0.19865570159E+03  0.00000000000E+00 0. -1.
         -4    1    3    3    0  502  0.36857631291E+02 -0.70173849200E+02  0.58053808411E+02  0.98250184564E+02  0.00000000000E+00 0.  1.
         11    1    5    5    0    0  0.15020585556E+03  0.19251042756E+03  0.49778983750E+03  0.55445178878E+03  0.00000000000E+00 0. -1.
        -11    1    5    5    0    0  0.23158976993E+01  0.36612349393E+02  0.27412332175E+02  0.45795889177E+02  0.00000000000E+00 0.  1.
          3    1    6    6  503    0 -0.18139405473E+03  0.45926697373E+02 -0.12827699513E+03  0.22686571381E+03  0.00000000000E+00 0. -1.
         -3    1    6    6    0  503 -0.11022924180E+03 -0.34750014443E+02 -0.11998728106E+03  0.16659830992E+03  0.00000000000E+00 0.  1.
<mgrwt>
<rscale>  0 0.12441464E+04</rscale>
<asrwt>0</asrwt>
<pdfrwt beam="1">  1        1 0.72877477E-01 0.12441464E+04</pdfrwt>
<pdfrwt beam="2">  1       -2 0.12567907E+00 0.12441464E+04</pdfrwt>
<totfact> 0.19469575E+01</totfact>
</mgrwt>
</event>
<event>
12    4  0.4207946E-008  0.1318756E+04  0.7818608E-02  0.9014822E-01
          1   -1    0    0  501    0  0.00000000000E+00  0.00000000000E+00  0.98208318064E+03  0.98208318064E+03  0.00000000000E+00 0. -1.
         -2   -1    0    0    0  501 -0.00000000000E+00 -0.00000000000E+00 -0.44271139098E+03  0.44271139098E+03  0.00000000000E+00 0.  1.
        -24    2    1    2    0    0 -0.88902176411E+02 -0.26359545148E+03 -0.79136155513E+02  0.30002871306E+03  0.79803123626E+02 0.  0.
        254    2    1    2    0    0  0.88902176411E+02  0.26359545148E+03  0.61850794517E+03  0.11247658586E+04  0.89730708195E+03 0.  0.
         23    2    4    4    0    0  0.83069807492E+01  0.27830307743E+03 -0.16177911208E+03  0.33494329672E+03  0.92157051155E+02 0.  0.
         23    2    4    4    0    0  0.80595195662E+02 -0.14707625945E+02  0.78028705724E+03  0.78982256184E+03  0.90883924110E+02 0.  0.
          3    1    3    3  502    0 -0.77565954649E+02 -0.11264294934E+03 -0.51547593393E+02  0.14615767425E+03  0.00000000000E+00 0. -1.
         -4    1    3    3    0  502 -0.11336221762E+02 -0.15095250214E+03 -0.27588562119E+02  0.15387103881E+03  0.00000000000E+00 0.  1.
         11    1    5    5    0    0  0.42706796361E+02  0.21850421857E+03 -0.13816773135E+03  0.26202726190E+03  0.00000000000E+00 0. -1.
        -11    1    5    5    0    0 -0.34399815612E+02  0.59798858854E+02 -0.23611380721E+02  0.72916034820E+02  0.00000000000E+00 0.  1.
          3    1    6    6  503    0  0.20566999509E+01  0.19250016349E+02  0.37998149586E+03  0.38047434913E+03  0.00000000000E+00 0. -1.
         -3    1    6    6    0  503  0.78538495711E+02 -0.33957642294E+02  0.40030556138E+03  0.40934821271E+03  0.00000000000E+00 0.  1.
<mgrwt>
<rscale>  0 0.13187561E+04</rscale>
<asrwt>0</asrwt>
<pdfrwt beam="1">  1        1 0.15108972E+00 0.13187561E+04</pdfrwt>
<pdfrwt beam="2">  1       -2 0.68109445E-01 0.13187561E+04</pdfrwt>
<totfact> 0.26529025E+01</totfact>
</mgrwt>
</event>
<event>
12    4  0.4207946E-008  0.2096205E+04  0.7818608E-02  0.8562917E-01
          1   -1    0    0  501    0  0.00000000000E+00  0.00000000000E+00  0.24063539303E+04  0.24063539303E+04  0.00000000000E+00 0. -1.
         -2   -1    0    0    0  501 -0.00000000000E+00 -0.00000000000E+00 -0.45650755780E+03  0.45650755780E+03  0.00000000000E+00 0.  1.
        -24    2    1    2    0    0 -0.32911214009E+03 -0.14734565001E+03  0.18529735720E+04  0.18894014246E+04  0.79379742667E+02 0.  0.
        254    2    1    2    0    0  0.32911214009E+03  0.14734565001E+03  0.96872800511E+02  0.97346006347E+03  0.89900757191E+03 0.  0.
         23    2    4    4    0    0 -0.25609681087E+03  0.44410592153E+02  0.22858521098E+03  0.35798163196E+03  0.91333306666E+02 0.  0.
         23    2    4    4    0    0  0.58520895096E+03  0.10293505786E+03 -0.13171241047E+03  0.61547843151E+03  0.91653685992E+02 0.  0.
          1    1    3    3  502    0 -0.31655856557E+03 -0.11952302616E+03  0.17203067318E+04  0.17532684708E+04  0.00000000000E+00 0. -1.
         -2    1    3    3    0  502 -0.12553574513E+02 -0.27822623847E+02  0.13266684010E+03  0.13613295374E+03  0.00000000000E+00 0.  1.
         11    1    5    5    0    0 -0.24102213806E+02 -0.98140688405E+01  0.62089585662E+02  0.67322725029E+02  0.00000000000E+00 0. -1.
        -11    1    5    5    0    0 -0.23199459707E+03  0.54224660994E+02  0.16649562532E+03  0.29065890693E+03  0.00000000000E+00 0.  1.
          2    1    6    6  503    0  0.10734194905E+03  0.23184914984E+01  0.76450535082E+01  0.10763882325E+03  0.00000000000E+00 0. -1.
         -2    1    6    6    0  503  0.47786700191E+03  0.10061656636E+03 -0.13935746398E+03  0.50783960825E+03  0.00000000000E+00 0.  1.
<mgrwt>
<rscale>  0 0.20962049E+04</rscale>
<asrwt>0</asrwt>
<pdfrwt beam="1">  1        1 0.37020829E+00 0.20962049E+04</pdfrwt>
<pdfrwt beam="2">  1       -2 0.70231933E-01 0.20962049E+04</pdfrwt>
<totfact> 0.23463537E+00</totfact>
</mgrwt>
</event>
<event>
12    4  0.4207946E-008  0.1418868E+04  0.7818608E-02  0.8940273E-01
         -2   -1    0    0    0  501 -0.00000000000E+00  0.00000000000E+00  0.66221181812E+03  0.66221181812E+03  0.00000000000E+00 0.  1.
          1   -1    0    0  501    0  0.00000000000E+00 -0.00000000000E+00 -0.76002396061E+03  0.76002396061E+03  0.00000000000E+00 0. -1.
        -24    2    1    2    0    0  0.36945923018E+03  0.16978092931E+03  0.20686383433E+02  0.41481854493E+03  0.79503534736E+02 0.  0.
        254    2    1    2    0    0 -0.36945923018E+03 -0.16978092931E+03 -0.11849852592E+03  0.10074172338E+04  0.91406886807E+03 0.  0.
         23    2    4    4    0    0 -0.36884087136E+03  0.31661887492E+03 -0.13258423467E+03  0.51195857451E+03  0.90729831839E+02 0.  0.
         23    2    4    4    0    0 -0.61835881609E+00 -0.48639980422E+03  0.14085708751E+02  0.49545865928E+03  0.93250865693E+02 0.  0.
          1    1    3    3  502    0  0.36792114687E+02  0.44085130886E+02  0.14141173588E+02  0.59136547573E+02  0.00000000000E+00 0. -1.
         -2    1    3    3    0  502  0.33266711549E+03  0.12569579842E+03  0.65452098446E+01  0.35568199736E+03  0.00000000000E+00 0.  1.
         11    1    5    5    0    0 -0.34195221200E+03  0.25362330370E+03 -0.10845746158E+03  0.43933940916E+03  0.00000000000E+00 0.  1.
        -11    1    5    5    0    0 -0.26888659363E+02  0.62995571219E+02 -0.24126773089E+02  0.72619165344E+02  0.00000000000E+00 0. -1.
          1    1    6    6  503    0 -0.29563535651E+02 -0.55040200472E+02 -0.52440182217E+01  0.62697097503E+02  0.00000000000E+00 0. -1.
         -1    1    6    6    0  503  0.28945176835E+02 -0.43135960375E+03  0.19329726973E+02  0.43276156178E+03  0.00000000000E+00 0.  1.
<mgrwt>
<rscale>  0 0.14188684E+04</rscale>
<asrwt>0</asrwt>
<pdfrwt beam="1">  1        1 0.11692676E+00 0.14188684E+04</pdfrwt>
<pdfrwt beam="2">  1       -2 0.10187874E+00 0.14188684E+04</pdfrwt>
<totfact> 0.16164732E+01</totfact>
</mgrwt>
</event>
<event>
12    4  0.4207946E-008  0.2027845E+04  0.7818608E-02  0.8593712E-01
          1   -1    0    0  501    0  0.00000000000E+00  0.00000000000E+00  0.14800305462E+04  0.14800305462E+04  0.00000000000E+00 0. -1.
         -2   -1    0    0    0  501 -0.00000000000E+00 -0.00000000000E+00 -0.69460649304E+03  0.69460649304E+03  0.00000000000E+00 0.  1.
        -24    2    1    2    0    0 -0.36380675485E+03 -0.64415101977E+03 -0.49373728786E+02  0.74560918757E+03  0.78799773796E+02 0.  0.
        254    2    1    2    0    0  0.36380675485E+03  0.64415101977E+03  0.83479778190E+03  0.14290278516E+04  0.89327900059E+03 0.  0.
         23    2    4    4    0    0  0.58972681804E+03  0.16513498312E+03  0.49781780546E+03  0.79463254129E+03  0.92579834097E+02 0.  0.
         23    2    4    4    0    0 -0.22592006319E+03  0.47901603666E+03  0.33697997644E+03  0.63439531034E+03  0.91682424308E+02 0.  0.
          3    1    3    3  502    0 -0.21805857843E+03 -0.32275247409E+03 -0.50000897605E+02  0.39270700645E+03  0.00000000000E+00 0. -1.
         -4    1    3    3    0  502 -0.14574817642E+03 -0.32139854568E+03  0.62716881915E+00  0.35290218112E+03  0.00000000000E+00 0.  1.
         11    1    5    5    0    0  0.55918237572E+03  0.13559395511E+03  0.44851790039E+03  0.72954709029E+03  0.00000000000E+00 0. -1.
        -11    1    5    5    0    0  0.30544442318E+02  0.29541028004E+02  0.49299905070E+02  0.65085451001E+02  0.00000000000E+00 0.  1.
          3    1    6    6  503    0 -0.19845557973E+03  0.35906142959E+03  0.22443763304E+03  0.46763444962E+03  0.00000000000E+00 0. -1.
         -3    1    6    6    0  503 -0.27464483455E+02  0.11995460706E+03  0.11254234340E+03  0.16676086071E+03  0.00000000000E+00 0.  1.
<mgrwt>
<rscale>  0 0.20278450E+04</rscale>
<asrwt>0</asrwt>
<pdfrwt beam="1">  1        1 0.22769701E+00 0.20278450E+04</pdfrwt>
<pdfrwt beam="2">  1       -2 0.10686254E+00 0.20278450E+04</pdfrwt>
<totfact> 0.38656826E+00</totfact>
</mgrwt>
</event>
<event>
12    4  0.4207946E-008  0.1933745E+04  0.7818608E-02  0.8638239E-01
          1   -1    0    0  501    0  0.00000000000E+00  0.00000000000E+00  0.68196622497E+03  0.68196622497E+03  0.00000000000E+00 0. -1.
         -2   -1    0    0    0  501 -0.00000000000E+00 -0.00000000000E+00 -0.13708046323E+04  0.13708046323E+04  0.00000000000E+00 0.  1.
        -24    2    1    2    0    0 -0.93207450543E+02 -0.75865733109E+03 -0.23666606568E+03  0.80428311664E+03  0.81313776201E+02 0.  0.
        254    2    1    2    0    0  0.93207450543E+02  0.75865733109E+03 -0.45217234169E+03  0.12484877407E+04  0.87750398127E+03 0.  0.
         23    2    4    4    0    0 -0.35329100950E+03  0.16242734752E+03 -0.24925064707E+03  0.47101839786E+03  0.92386500346E+02 0.  0.
         23    2    4    4    0    0  0.44649846004E+03  0.59622998358E+03 -0.20292169462E+03  0.77746934281E+03  0.91816647278E+02 0.  0.
          1    1    3    3  502    0  0.14523782068E+02 -0.59033467412E+02 -0.19878677048E+02  0.63961334582E+02  0.00000000000E+00 0. -1.
         -2    1    3    3    0  502 -0.10773123261E+03 -0.69962386368E+03 -0.21678738863E+03  0.74032178205E+03  0.00000000000E+00 0.  1.
         11    1    5    5    0    0 -0.22485922744E+03  0.13814043340E+03 -0.13042889603E+03  0.29437416399E+03  0.00000000000E+00 0. -1.
        -11    1    5    5    0    0 -0.12843178206E+03  0.24286914117E+02 -0.11882175104E+03  0.17664423387E+03  0.00000000000E+00 0.  1.
          1    1    6    6  503    0  0.43279410636E+03  0.54200791049E+03 -0.19808865998E+03  0.72133378595E+03  0.00000000000E+00 0. -1.
         -1    1    6    6    0  503  0.13704353677E+02  0.54222073089E+02 -0.48330346330E+01  0.56135556856E+02  0.00000000000E+00 0.  1.
<mgrwt>
<rscale>  0 0.19337450E+04</rscale>
<asrwt>0</asrwt>
<pdfrwt beam="1">  1        1 0.10491788E+00 0.19337450E+04</pdfrwt>
<pdfrwt beam="2">  1       -2 0.21089302E+00 0.19337450E+04</pdfrwt>
<totfact> 0.26154862E+00</totfact>
</mgrwt>
</event>
<event>
12    4  0.4207946E-008  0.1609254E+04  0.7818608E-02  0.8814883E-01
          1   -1    0    0  501    0  0.00000000000E+00  0.00000000000E+00  0.10258545789E+04  0.10258545789E+04  0.00000000000E+00 0. -1.
         -2   -1    0    0    0  501 -0.00000000000E+00 -0.00000000000E+00 -0.63110726464E+03  0.63110726464E+03  0.00000000000E+00 0.  1.
        -24    2    1    2    0    0 -0.25334410983E+02  0.65600215780E+01 -0.42683961716E+03  0.43509108365E+03  0.80170605767E+02 0.  0.
        254    2    1    2    0    0  0.25334410983E+02 -0.65600215780E+01  0.82158693145E+03  0.12218707599E+04  0.90403440297E+03 0.  0.
         23    2    4    4    0    0  0.22269020968E+03 -0.22484106585E+03  0.85071931267E+03  0.91235085016E+03  0.92283749656E+02 0.  0.
         23    2    4    4    0    0 -0.19735579870E+03  0.21828104427E+03 -0.29132381226E+02  0.30951990976E+03  0.91421842740E+02 0.  0.
          1    1    3    3  502    0  0.23406067028E+02 -0.11778189588E+02 -0.75602532355E+02  0.80014452583E+02  0.00000000000E+00 0. -1.
         -2    1    3    3    0  502 -0.48740478011E+02  0.18338211166E+02 -0.35123708480E+03  0.35507663106E+03  0.00000000000E+00 0.  1.
         11    1    5    5    0    0  0.14255777629E+03 -0.10474544731E+03  0.36468011297E+03  0.40532198696E+03  0.00000000000E+00 0. -1.
        -11    1    5    5    0    0  0.80132433385E+02 -0.12009561855E+03  0.48603919970E+03  0.50702886320E+03  0.00000000000E+00 0.  1.
          3    1    6    6  503    0 -0.72332754549E+02  0.45761106527E+02  0.25980337646E+02  0.89448779731E+02  0.00000000000E+00 0. -1.
         -3    1    6    6    0  503 -0.12502304415E+03  0.17251993775E+03 -0.55112718872E+02  0.22007113002E+03  0.00000000000E+00 0.  1.
<mgrwt>
<rscale>  0 0.16092536E+04</rscale>
<asrwt>0</asrwt>
<pdfrwt beam="1">  1        1 0.15782378E+00 0.16092536E+04</pdfrwt>
<pdfrwt beam="2">  1       -2 0.97093425E-01 0.16092536E+04</pdfrwt>
<totfact> 0.10753440E+01</totfact>
</mgrwt>
</event>
<event>
12    4  0.4207946E-008  0.1219481E+04  0.7818608E-02  0.9095973E-01
          1   -1    0    0  501    0  0.00000000000E+00  0.00000000000E+00  0.15995856633E+04  0.15995856633E+04  0.00000000000E+00 0. -1.
         -2   -1    0    0    0  501 -0.00000000000E+00 -0.00000000000E+00 -0.23242500074E+03  0.23242500074E+03  0.00000000000E+00 0.  1.
        -24    2    1    2    0    0 -0.10919340976E+02  0.16154476880E+03 -0.58262697292E+01  0.18023451418E+03  0.78959422163E+02 0.  0.
        254    2    1    2    0    0  0.10919340976E+02 -0.16154476880E+03  0.13729869322E+04  0.16517761498E+04  0.90391116193E+03 0.  0.
         23    2    4    4    0    0  0.30859226451E+03  0.22567144366E+03  0.81754861079E+03  0.90726922318E+03  0.92708824433E+02 0.  0.
         23    2    4    4    0    0 -0.29767292354E+03 -0.38721621246E+03  0.55543832145E+03  0.74450692664E+03  0.85048634729E+02 0.  0.
          1    1    3    3  502    0 -0.88161571378E+01  0.33991250990E+01  0.17962304331E+02  0.20295887638E+02  0.00000000000E+00 0. -1.
         -2    1    3    3    0  502 -0.21031838382E+01  0.15814564370E+03 -0.23788574061E+02  0.15993862654E+03  0.00000000000E+00 0.  1.
         11    1    5    5    0    0  0.23233422429E+03  0.21464087583E+03  0.65318426774E+03  0.72574071470E+03  0.00000000000E+00 0. -1.
        -11    1    5    5    0    0  0.76258040221E+02  0.11030567838E+02  0.16436434305E+03  0.18152850848E+03  0.00000000000E+00 0.  1.
          4    1    6    6  503    0 -0.20390099608E+03 -0.24770994569E+03  0.42069605161E+03  0.52907561014E+03  0.00000000000E+00 0. -1.
         -4    1    6    6    0  503 -0.93771927452E+02 -0.13950626677E+03  0.13474226984E+03  0.21543131650E+03  0.00000000000E+00 0.  1.
<mgrwt>
<rscale>  0 0.12194814E+04</rscale>
<asrwt>0</asrwt>
<pdfrwt beam="1">  1        1 0.24609009E+00 0.12194814E+04</pdfrwt>
<pdfrwt beam="2">  1       -2 0.35757693E-01 0.12194814E+04</pdfrwt>
<totfact> 0.35610461E+01</totfact>
</mgrwt>
</event>
<event>
12    4  0.4207946E-008  0.3322890E+04  0.7818608E-02  0.8157095E-01
          1   -1    0    0  501    0  0.00000000000E+00  0.00000000000E+00  0.63920891663E+03  0.63920891663E+03  0.00000000000E+00 0. -1.
         -2   -1    0    0    0  501 -0.00000000000E+00 -0.00000000000E+00 -0.43184623693E+04  0.43184623693E+04  0.00000000000E+00 0.  1.
        -24    2    1    2    0    0 -0.53490644941E+02  0.13479727271E+04 -0.60844949518E+03  0.14818986093E+04  0.76947891328E+02 0.  0.
        254    2    1    2    0    0  0.53490644941E+02 -0.13479727271E+04 -0.30708039575E+04  0.34757726766E+04  0.91173846678E+03 0.  0.
         23    2    4    4    0    0  0.24726252147E+02 -0.13203090726E+04 -0.19887778607E+04  0.23890867120E+04  0.93115537976E+02 0.  0.
         23    2    4    4    0    0  0.28764392793E+02 -0.27663654574E+02 -0.10820260968E+04  0.10866859646E+04  0.92267239726E+02 0.  0.
          1    1    3    3  502    0 -0.37236861463E+02  0.69008694435E+03 -0.35242113651E+03  0.77576235541E+03  0.00000000000E+00 0. -1.
         -2    1    3    3    0  502 -0.16253783478E+02  0.65788578278E+03 -0.25602835867E+03  0.70613625392E+03  0.00000000000E+00 0.  1.
         11    1    5    5    0    0 -0.77674523979E+01 -0.97798757658E+03 -0.14132812842E+04  0.17186867142E+04  0.00000000000E+00 0. -1.
        -11    1    5    5    0    0  0.32493704545E+02 -0.34232149598E+03 -0.57549657648E+03  0.67039999775E+03  0.00000000000E+00 0.  1.
          4    1    6    6  503    0  0.17578490158E+02  0.22894913636E+00 -0.98399391942E+03  0.98415094838E+03  0.00000000000E+00 0. -1.
         -4    1    6    6    0  503  0.11185902636E+02 -0.27892603711E+02 -0.98032177353E+02  0.10253501624E+03  0.00000000000E+00 0.  1.
<mgrwt>
<rscale>  0 0.33228901E+04</rscale>
<asrwt>0</asrwt>
<pdfrwt beam="1">  1        1 0.98339832E-01 0.33228901E+04</pdfrwt>
<pdfrwt beam="2">  1       -2 0.66437883E+00 0.33228901E+04</pdfrwt>
<totfact> 0.67687118E-03</totfact>
</mgrwt>
</event>
<event>
12    4  0.4207946E-008  0.1270315E+04  0.7818608E-02  0.9053442E-01
         -2   -1    0    0    0  501 -0.00000000000E+00  0.00000000000E+00  0.69834765030E+03  0.69834765030E+03  0.00000000000E+00 0.  1.
          1   -1    0    0  501    0  0.00000000000E+00 -0.00000000000E+00 -0.57768551984E+03  0.57768551984E+03  0.00000000000E+00 0. -1.
        -24    2    1    2    0    0  0.90308919353E+02  0.15974850616E+03  0.28890597383E+03  0.35135190148E+03  0.79411654162E+02 0.  0.
        254    2    1    2    0    0 -0.90308919353E+02 -0.15974850616E+03 -0.16824384337E+03  0.92468126866E+03  0.89053589015E+03 0.  0.
         23    2    4    4    0    0 -0.14284126828E+03 -0.50561472673E+03 -0.17891104495E+03  0.56184530396E+03  0.87241640114E+02 0.  0.
         23    2    4    4    0    0  0.52532348923E+02  0.34586622057E+03  0.10667201573E+02  0.36283596470E+03  0.95671614798E+02 0.  0.
          3    1    3    3  502    0  0.35732853839E+02  0.93640109809E+01  0.32884503757E+02  0.49456163746E+02  0.00000000000E+00 0. -1.
         -4    1    3    3    0  502  0.54576065514E+02  0.15038449518E+03  0.25602147008E+03  0.30189573773E+03  0.00000000000E+00 0.  1.
         11    1    5    5    0    0 -0.12648144540E+03 -0.47837463341E+03 -0.14555550560E+03  0.51577732708E+03  0.00000000000E+00 0.  1.
        -11    1    5    5    0    0 -0.16359822877E+02 -0.27240093321E+02 -0.33355539348E+02  0.46067976881E+02  0.00000000000E+00 0. -1.
          3    1    6    6  503    0  0.73541744415E+01  0.32192739384E+02 -0.28363844182E+02  0.43531184311E+02  0.00000000000E+00 0. -1.
         -3    1    6    6    0  503  0.45178174482E+02  0.31367348118E+03  0.39031045755E+02  0.31930478039E+03  0.00000000000E+00 0.  1.
<mgrwt>
<rscale>  0 0.12703154E+04</rscale>
<asrwt>0</asrwt>
<pdfrwt beam="1">  1        1 0.88874696E-01 0.12703154E+04</pdfrwt>
<pdfrwt beam="2">  1       -2 0.10743810E+00 0.12703154E+04</pdfrwt>
<totfact> 0.21676124E+01</totfact>
</mgrwt>
</event>
<event>
12    4  0.4207946E-008  0.1564040E+04  0.7818608E-02  0.8842949E-01
         -2   -1    0    0    0  501 -0.00000000000E+00  0.00000000000E+00  0.22073301260E+04  0.22073301260E+04  0.00000000000E+00 0.  1.
          1   -1    0    0  501    0  0.00000000000E+00 -0.00000000000E+00 -0.27705664066E+03  0.27705664066E+03  0.00000000000E+00 0. -1.
        -24    2    1    2    0    0  0.39689274128E+03  0.12937788899E+03  0.87901974710E+03  0.97632341031E+03  0.79178276607E+02 0.  0.
        254    2    1    2    0    0 -0.39689274128E+03 -0.12937788899E+03  0.10512537383E+04  0.15080633564E+04  0.99742577587E+03 0.  0.
         23    2    4    4    0    0 -0.43101358267E+03 -0.43622505689E+03  0.10077606554E+04  0.11831738534E+04  0.90850537074E+02 0.  0.
         23    2    4    4    0    0  0.34120841396E+02  0.30684716790E+03  0.43493082892E+02  0.32488950299E+03  0.91335232157E+02 0.  0.
          3    1    3    3  502    0  0.12394784876E+03  0.17297389278E+02  0.33191511953E+03  0.35472512663E+03  0.00000000000E+00 0. -1.
         -4    1    3    3    0  502  0.27294489252E+03  0.11208049971E+03  0.54710462757E+03  0.62159828368E+03  0.00000000000E+00 0.  1.
         11    1    5    5    0    0 -0.29979792243E+03 -0.26503757449E+03  0.71758239825E+03  0.82161317447E+03  0.00000000000E+00 0. -1.
        -11    1    5    5    0    0 -0.13121566025E+03 -0.17118748240E+03  0.29017825713E+03  0.36156067891E+03  0.00000000000E+00 0.  1.
          3    1    6    6  503    0 -0.10295127805E+02  0.63890710015E+02 -0.23718799561E+02  0.68924552486E+02  0.00000000000E+00 0. -1.
         -3    1    6    6    0  503  0.44415969201E+02  0.24295645788E+03  0.67211882453E+02  0.25596495051E+03  0.00000000000E+00 0.  1.
<mgrwt>
<rscale>  0 0.15640402E+04</rscale>
<asrwt>0</asrwt>
<pdfrwt beam="1">  1        1 0.42624100E-01 0.15640402E+04</pdfrwt>
<pdfrwt beam="2">  1       -2 0.33958924E+00 0.15640402E+04</pdfrwt>
<totfact> 0.14868879E+00</totfact>
</mgrwt>
</event>
<event>
12    4  0.4207946E-008  0.1500478E+04  0.7818608E-02  0.8884135E-01
          1   -1    0    0  501    0  0.00000000000E+00  0.00000000000E+00  0.20201850005E+04  0.20201850005E+04  0.00000000000E+00 0. -1.
         -4   -1    0    0    0  501 -0.00000000000E+00 -0.00000000000E+00 -0.27861747129E+03  0.27861747129E+03  0.00000000000E+00 0.  1.
        -24    2    1    2    0    0 -0.15843063931E+03 -0.27675051008E+03  0.17379938584E+02  0.32910922232E+03  0.79496576342E+02 0.  0.
        254    2    1    2    0    0  0.15843063931E+03  0.27675051008E+03  0.17241875907E+04  0.19696932495E+04  0.89731685430E+03 0.  0.
         23    2    4    4    0    0  0.32982449516E+01  0.21455685018E+03  0.17601491669E+04  0.17755655302E+04  0.91990989757E+02 0.  0.
         23    2    4    4    0    0  0.15513239436E+03  0.62193659902E+02 -0.35961576199E+02  0.19412771926E+03  0.91968610463E+02 0.  0.
          3    1    3    3  502    0 -0.91598392866E+02 -0.14286310437E+03  0.48008582837E+02  0.17636597232E+03  0.00000000000E+00 0. -1.
         -4    1    3    3    0  502 -0.66832246443E+02 -0.13388740571E+03 -0.30628644253E+02  0.15274325000E+03  0.00000000000E+00 0.  1.
         11    1    5    5    0    0 -0.87618174994E+01  0.12752163044E+03  0.13540215724E+04  0.13600415266E+04  0.00000000000E+00 0.  1.
        -11    1    5    5    0    0  0.12060062451E+02  0.87035219733E+02  0.40612759448E+03  0.41552400361E+03  0.00000000000E+00 0. -1.
          3    1    6    6  503    0  0.64295525030E+02 -0.20167684982E+02 -0.44718076121E+01  0.67532563403E+02  0.00000000000E+00 0. -1.
         -3    1    6    6    0  503  0.90836869327E+02  0.82361344884E+02 -0.31489768587E+02  0.12659515585E+03  0.00000000000E+00 0.  1.
<mgrwt>
<rscale>  0 0.15004784E+04</rscale>
<asrwt>0</asrwt>
<pdfrwt beam="1">  1        1 0.31079768E+00 0.15004784E+04</pdfrwt>
<pdfrwt beam="2">  1       -4 0.42864228E-01 0.15004784E+04</pdfrwt>
<totfact> 0.73319509E+00</totfact>
</mgrwt>
</event>
<event>
12    4  0.4207946E-008  0.1415721E+04  0.7818608E-02  0.8942517E-01
         -2   -1    0    0    0  501 -0.00000000000E+00  0.00000000000E+00  0.13565277607E+04  0.13565277607E+04  0.00000000000E+00 0.  1.
          3   -1    0    0  501    0  0.00000000000E+00 -0.00000000000E+00 -0.36937435675E+03  0.36937435675E+03  0.00000000000E+00 0. -1.
        -24    2    1    2    0    0 -0.43624750578E+02  0.36874777556E+03  0.64912730089E+02  0.38613445091E+03  0.83714459967E+02 0.  0.
        254    2    1    2    0    0  0.43624750578E+02 -0.36874777556E+03  0.92224067387E+03  0.13397676665E+04  0.89809325737E+03 0.  0.
         23    2    4    4    0    0  0.33089531499E+03 -0.12472869254E+03  0.29675480966E+02  0.36677300980E+03  0.92697628435E+02 0.  0.
         23    2    4    4    0    0 -0.28727056441E+03 -0.24401908302E+03  0.89256519290E+03  0.97299465675E+03  0.89310069018E+02 0.  0.
          3    1    3    3  502    0 -0.42067769266E+02  0.37289873108E+03  0.60937004741E+02  0.38017953574E+03  0.00000000000E+00 0. -1.
         -4    1    3    3    0  502 -0.15569813115E+01 -0.41509555221E+01  0.39757253474E+01  0.59549151622E+01  0.00000000000E+00 0.  1.
         11    1    5    5    0    0  0.17287756633E+03 -0.29169601138E+02 -0.17456756579E+02  0.17618812934E+03  0.00000000000E+00 0. -1.
        -11    1    5    5    0    0  0.15801774867E+03 -0.95559091401E+02  0.47132237545E+02  0.19058488046E+03  0.00000000000E+00 0.  1.
          3    1    6    6  503    0 -0.49188118524E+02 -0.43138161567E+02  0.25698230377E+03  0.26517970593E+03  0.00000000000E+00 0. -1.
         -3    1    6    6    0  503 -0.23808244589E+03 -0.20088092145E+03  0.63558288913E+03  0.70781495082E+03  0.00000000000E+00 0.  1.
<mgrwt>
<rscale>  0 0.14157211E+04</rscale>
<asrwt>0</asrwt>
<pdfrwt beam="1">  1        3 0.56826825E-01 0.14157211E+04</pdfrwt>
<pdfrwt beam="2">  1       -2 0.20869658E+00 0.14157211E+04</pdfrwt>
<totfact> 0.14501664E+00</totfact>
</mgrwt>
</event>
<event>
12    4  0.4207946E-008  0.2210976E+04  0.7818608E-02  0.8513873E-01
         -2   -1    0    0    0  501 -0.00000000000E+00  0.00000000000E+00  0.20347267639E+04  0.20347267639E+04  0.00000000000E+00 0.  1.
          1   -1    0    0  501    0  0.00000000000E+00 -0.00000000000E+00 -0.60062311283E+03  0.60062311283E+03  0.00000000000E+00 0. -1.
        -24    2    1    2    0    0 -0.17541251781E+03 -0.54497126099E+03 -0.25995503473E+03  0.63352608461E+03  0.77559352016E+02 0.  0.
        254    2    1    2    0    0  0.17541251781E+03  0.54497126099E+03  0.16940586858E+04  0.20018237921E+04  0.89983356074E+03 0.  0.
         23    2    4    4    0    0 -0.15722390029E+03  0.28780776562E+03  0.10628447789E+03  0.35699040562E+03  0.92698946537E+02 0.  0.
         23    2    4    4    0    0  0.33263641810E+03  0.25716349537E+03  0.15877742079E+04  0.16448333865E+04  0.87577874112E+02 0.  0.
          3    1    3    3  502    0 -0.94451956774E+02 -0.39107130524E+03 -0.20235147342E+03  0.45033771408E+03  0.00000000000E+00 0. -1.
         -2    1    3    3    0  502 -0.80960561037E+02 -0.15389995574E+03 -0.57603561312E+02  0.18318837053E+03  0.00000000000E+00 0.  1.
         11    1    5    5    0    0 -0.48009522903E+01 -0.60785408661E+01  0.91180760286E+01  0.11963992328E+02  0.00000000000E+00 0.  1.
        -11    1    5    5    0    0 -0.15242294800E+03  0.29388630649E+03  0.97166401857E+02  0.34502641329E+03  0.00000000000E+00 0. -1.
          3    1    6    6  503    0  0.19546507476E+03  0.11151352120E+03  0.72281451752E+03  0.75703545993E+03  0.00000000000E+00 0. -1.
         -3    1    6    6    0  503  0.13717134335E+03  0.14564997417E+03  0.86495969038E+03  0.88779792656E+03  0.00000000000E+00 0.  1.
<mgrwt>
<rscale>  0 0.22109762E+04</rscale>
<asrwt>0</asrwt>
<pdfrwt beam="1">  1        1 0.92403557E-01 0.22109762E+04</pdfrwt>
<pdfrwt beam="2">  1       -2 0.31303488E+00 0.22109762E+04</pdfrwt>
<totfact> 0.72182877E-01</totfact>
</mgrwt>
</event>
<event>
12    4  0.4207946E-008  0.1284786E+04  0.7818608E-02  0.9041718E-01
         -2   -1    0    0    0  501 -0.00000000000E+00  0.00000000000E+00  0.12036497353E+04  0.12036497353E+04  0.00000000000E+00 0.  1.
          1   -1    0    0  501    0  0.00000000000E+00 -0.00000000000E+00 -0.34284775674E+03  0.34284775674E+03  0.00000000000E+00 0. -1.
        -24    2    1    2    0    0  0.13197429476E+03 -0.30118462056E+03  0.46576868087E+03  0.57597753471E+03  0.81732895865E+02 0.  0.
        254    2    1    2    0    0 -0.13197429476E+03  0.30118462056E+03  0.39503329764E+03  0.97051995728E+03  0.82324254694E+03 0.  0.
         23    2    4    4    0    0  0.33257094188E+03  0.45002184436E+02  0.17138138937E+03  0.38767956095E+03  0.91078171710E+02 0.  0.
         23    2    4    4    0    0 -0.46454523665E+03  0.25618243613E+03  0.22365190827E+03  0.58284039634E+03  0.90835202749E+02 0.  0.
          3    1    3    3  502    0 -0.11142876462E+02 -0.29583634696E+02  0.37657178812E+02  0.49167247775E+02  0.00000000000E+00 0. -1.
         -4    1    3    3    0  502  0.14311717123E+03 -0.27160098587E+03  0.42811150206E+03  0.52681028693E+03  0.00000000000E+00 0.  1.
         11    1    5    5    0    0  0.19793270532E+03  0.71460060894E+02  0.10805166488E+03  0.23655667063E+03  0.00000000000E+00 0. -1.
        -11    1    5    5    0    0  0.13463823656E+03 -0.26457876459E+02  0.63329724499E+02  0.15112289031E+03  0.00000000000E+00 0.  1.
          4    1    6    6  503    0 -0.25499855580E+03  0.93771883129E+02  0.13427701242E+03  0.30306392987E+03  0.00000000000E+00 0. -1.
         -4    1    6    6    0  503 -0.20954668085E+03  0.16241055300E+03  0.89374895848E+02  0.27977646646E+03  0.00000000000E+00 0.  1.
<mgrwt>
<rscale>  0 0.12847858E+04</rscale>
<asrwt>0</asrwt>
<pdfrwt beam="1">  1        1 0.52745809E-01 0.12847858E+04</pdfrwt>
<pdfrwt beam="2">  1       -2 0.18517688E+00 0.12847858E+04</pdfrwt>
<totfact> 0.10551352E+01</totfact>
</mgrwt>
</event>
<event>
12    4  0.4207946E-008  0.1379543E+04  0.7818608E-02  0.8968761E-01
         -2   -1    0    0    0  501 -0.00000000000E+00  0.00000000000E+00  0.37730039567E+03  0.37730039567E+03  0.00000000000E+00 0.  1.
          1   -1    0    0  501    0  0.00000000000E+00 -0.00000000000E+00 -0.12610230119E+04  0.12610230119E+04  0.00000000000E+00 0. -1.
        -24    2    1    2    0    0 -0.17910140844E+03  0.50352240853E+02  0.15445805592E+03  0.25494080123E+03  0.80776595804E+02 0.  0.
        254    2    1    2    0    0  0.17910140844E+03 -0.50352240853E+02 -0.10381806722E+04  0.13833826063E+04  0.89516236786E+03 0.  0.
         23    2    4    4    0    0  0.19725178762E+03  0.28841993807E+03 -0.95675121358E+03  0.10225950624E+04  0.90738352211E+02 0.  0.
         23    2    4    4    0    0 -0.18150379182E+02 -0.33877217892E+03 -0.81429458579E+02  0.36078754395E+03  0.91874205663E+02 0.  0.
          3    1    3    3  502    0 -0.65098303051E+02  0.47773997649E+02  0.10011920528E+03  0.12862347833E+03  0.00000000000E+00 0. -1.
         -4    1    3    3    0  502 -0.11400310539E+03  0.25782432044E+01  0.54338850638E+02  0.12631732290E+03  0.00000000000E+00 0.  1.
         11    1    5    5    0    0 -0.70924801977E+01 -0.19391734097E+00 -0.13859024518E+02  0.15569631976E+02  0.00000000000E+00 0.  1.
        -11    1    5    5    0    0  0.20434426782E+03  0.28861385541E+03 -0.94289218906E+03  0.10070254304E+04  0.00000000000E+00 0. -1.
          1    1    6    6  503    0 -0.34381364790E+02 -0.16995037789E+03 -0.17483222875E+01  0.17340203523E+03  0.00000000000E+00 0. -1.
         -1    1    6    6    0  503  0.16230985608E+02 -0.16882180103E+03 -0.79681136291E+02  0.18738550872E+03  0.00000000000E+00 0.  1.
<mgrwt>
<rscale>  0 0.13795427E+04</rscale>
<asrwt>0</asrwt>
<pdfrwt beam="1">  1        1 0.19400354E+00 0.13795427E+04</pdfrwt>
<pdfrwt beam="2">  1       -2 0.58046214E-01 0.13795427E+04</pdfrwt>
<totfact> 0.22953566E+01</totfact>
</mgrwt>
</event>
<event>
12    4  0.4207946E-008  0.2626033E+04  0.7818608E-02  0.8359412E-01
         -2   -1    0    0    0  501 -0.00000000000E+00  0.00000000000E+00  0.79450003050E+03  0.79450003050E+03  0.00000000000E+00 0.  1.
          1   -1    0    0  501    0  0.00000000000E+00 -0.00000000000E+00 -0.21699343462E+04  0.21699343462E+04  0.00000000000E+00 0. -1.
        -24    2    1    2    0    0 -0.19983227205E+03 -0.84028964613E+03 -0.14699108944E+04  0.17065219203E+04  0.74561388852E+02 0.  0.
        254    2    1    2    0    0  0.19983227205E+03  0.84028964613E+03  0.94476578673E+02  0.12579124564E+04  0.90961436758E+03 0.  0.
         23    2    4    4    0    0  0.49606289118E+03  0.65782931340E+03 -0.12235170843E+03  0.83795617298E+03  0.91557685143E+02 0.  0.
         23    2    4    4    0    0 -0.29623061913E+03  0.18246033272E+03  0.21682828710E+03  0.41995628341E+03  0.91128596853E+02 0.  0.
          1    1    3    3  502    0 -0.17167472871E+03 -0.77244553612E+03 -0.13759476678E+04  0.15872543285E+04  0.00000000000E+00 0. -1.
         -2    1    3    3    0  502 -0.28157543345E+02 -0.67844110011E+02 -0.93963226588E+02  0.11926759183E+03  0.00000000000E+00 0.  1.
         11    1    5    5    0    0  0.34088006322E+03  0.45641295448E+03 -0.41597467990E+02  0.57117628791E+03  0.00000000000E+00 0. -1.
        -11    1    5    5    0    0  0.15518282795E+03  0.20141635892E+03 -0.80754240442E+02  0.26677988508E+03  0.00000000000E+00 0.  1.
          1    1    6    6  503    0 -0.20825285287E+03  0.77206742814E+02  0.12477435195E+03  0.25475237147E+03  0.00000000000E+00 0. -1.
         -1    1    6    6    0  503 -0.87977766255E+02  0.10525358991E+03  0.92053935154E+02  0.16520391194E+03  0.00000000000E+00 0.  1.
<mgrwt>
<rscale>  0 0.26260334E+04</rscale>
<asrwt>0</asrwt>
<pdfrwt beam="1">  1        1 0.33383605E+00 0.26260334E+04</pdfrwt>
<pdfrwt beam="2">  1       -2 0.12223077E+00 0.26260334E+04</pdfrwt>
<totfact> 0.89464473E-01</totfact>
</mgrwt>
</event>
<event>
12    4  0.4207946E-008  0.1899300E+04  0.7818608E-02  0.8655205E-01
          1   -1    0    0  501    0  0.00000000000E+00  0.00000000000E+00  0.81563341831E+03  0.81563341831E+03  0.00000000000E+00 0. -1.
         -2   -1    0    0    0  501 -0.00000000000E+00 -0.00000000000E+00 -0.11056868072E+04  0.11056868072E+04  0.00000000000E+00 0.  1.
        -24    2    1    2    0    0  0.25349662269E+03 -0.59833693006E+03  0.22185487880E+03  0.69133789157E+03  0.80379558885E+02 0.  0.
        254    2    1    2    0    0 -0.25349662269E+03  0.59833693006E+03 -0.51190826772E+03  0.12299823340E+04  0.91024109320E+03 0.  0.
         23    2    4    4    0    0 -0.17541211266E+03  0.56422084329E+03  0.99627455255E+02  0.60610192726E+03  0.91210455112E+02 0.  0.
         23    2    4    4    0    0 -0.78084510029E+02  0.34116086770E+02 -0.61153572298E+03  0.62388040671E+03  0.89385252246E+02 0.  0.
          1    1    3    3  502    0  0.15953306437E+03 -0.36351474597E+03  0.17619543105E+03  0.43432545296E+03  0.00000000000E+00 0. -1.
         -2    1    3    3    0  502  0.93963558315E+02 -0.23482218408E+03  0.45659447750E+02  0.25701243861E+03  0.00000000000E+00 0.  1.
         11    1    5    5    0    0 -0.93716548540E+02  0.16570921246E+03  0.18289851222E+02  0.19125076006E+03  0.00000000000E+00 0.  1.
        -11    1    5    5    0    0 -0.81695564116E+02  0.39851163083E+03  0.81337604033E+02  0.41485116720E+03  0.00000000000E+00 0. -1.
          3    1    6    6  503    0 -0.97716802174E+02  0.35009283192E+02 -0.50803894509E+03  0.51853427376E+03  0.00000000000E+00 0. -1.
         -3    1    6    6    0  503  0.19632292145E+02 -0.89319642193E+00 -0.10349677789E+03  0.10534613295E+03  0.00000000000E+00 0.  1.
<mgrwt>
<rscale>  0 0.18993000E+04</rscale>
<asrwt>0</asrwt>
<pdfrwt beam="1">  1        1 0.12548206E+00 0.18993000E+04</pdfrwt>
<pdfrwt beam="2">  1       -2 0.17010566E+00 0.18993000E+04</pdfrwt>
<totfact> 0.37359932E+00</totfact>
</mgrwt>
</event>
<event>
12    4  0.4207946E-008  0.1247635E+04  0.7818608E-02  0.9072154E-01
         -2   -1    0    0    0  501 -0.00000000000E+00  0.00000000000E+00  0.20635316299E+03  0.20635316299E+03  0.00000000000E+00 0.  1.
          1   -1    0    0  501    0  0.00000000000E+00 -0.00000000000E+00 -0.18858368746E+04  0.18858368746E+04  0.00000000000E+00 0. -1.
        -24    2    1    2    0    0  0.27295759484E+03 -0.81682551019E+02 -0.32024869298E+03  0.43593695872E+03  0.79397222269E+02 0.  0.
        254    2    1    2    0    0 -0.27295759484E+03  0.81682551019E+02 -0.13592350187E+04  0.16562530789E+04  0.90248353874E+03 0.  0.
         23    2    4    4    0    0 -0.55724925145E+03 -0.12063051897E+03 -0.73260208002E+03  0.93310029838E+03  0.94296918452E+02 0.  0.
         23    2    4    4    0    0  0.28429165661E+03  0.20231306998E+03 -0.62663293865E+03  0.72315278054E+03  0.92351393535E+02 0.  0.
          1    1    3    3  502    0  0.16844518493E+03 -0.56808374086E+02 -0.25294669557E+03  0.30916500852E+03  0.00000000000E+00 0. -1.
         -2    1    3    3    0  502  0.10451240991E+03 -0.24874176933E+02 -0.67301997406E+02  0.12677195020E+03  0.00000000000E+00 0.  1.
         11    1    5    5    0    0 -0.22147222054E+03 -0.78593329503E+02 -0.24410643259E+03  0.33884333599E+03  0.00000000000E+00 0. -1.
        -11    1    5    5    0    0 -0.33577703091E+03 -0.42037189462E+02 -0.48849564743E+03  0.59425696239E+03  0.00000000000E+00 0.  1.
          4    1    6    6  503    0  0.16060176928E+03  0.12257263452E+03 -0.44982436270E+03  0.49311148466E+03  0.00000000000E+00 0. -1.
         -4    1    6    6    0  503  0.12368988733E+03  0.79740435467E+02 -0.17680857595E+03  0.23004129587E+03  0.00000000000E+00 0.  1.
<mgrwt>
<rscale>  0 0.12476352E+04</rscale>
<asrwt>0</asrwt>
<pdfrwt beam="1">  1        1 0.29012875E+00 0.12476352E+04</pdfrwt>
<pdfrwt beam="2">  1       -2 0.31746641E-01 0.12476352E+04</pdfrwt>
<totfact> 0.28466943E+01</totfact>
</mgrwt>
</event>
<event>
12    4  0.4207946E-008  0.2321159E+04  0.7818608E-02  0.8469625E-01
         -2   -1    0    0    0  501 -0.00000000000E+00  0.00000000000E+00  0.11952833064E+04  0.11952833064E+04  0.00000000000E+00 0.  1.
          1   -1    0    0  501    0  0.00000000000E+00 -0.00000000000E+00 -0.11268830784E+04  0.11268830784E+04  0.00000000000E+00 0. -1.
        -24    2    1    2    0    0  0.81897301925E+03 -0.51751902134E+03  0.20828297931E+03  0.99405797528E+03  0.78909537100E+02 0.  0.
        254    2    1    2    0    0 -0.81897301925E+03  0.51751902134E+03 -0.13988275136E+03  0.13281084095E+04  0.89764247865E+03 0.  0.
         23    2    4    4    0    0 -0.32353556193E+03 -0.14391695088E+03  0.21478075008E+03  0.42397500214E+03  0.90756174737E+02 0.  0.
         23    2    4    4    0    0 -0.49543745732E+03  0.66143597222E+03 -0.35466350144E+03  0.90413340734E+03  0.93355233075E+02 0.  0.
          1    1    3    3  502    0  0.35947759596E+02 -0.44325167342E+02  0.13851566408E+02  0.58726721106E+02  0.00000000000E+00 0. -1.
         -2    1    3    3    0  502  0.78302525965E+03 -0.47319385400E+03  0.19443141290E+03  0.93533125418E+03  0.00000000000E+00 0.  1.
         11    1    5    5    0    0 -0.29147548103E+03 -0.15011579541E+03  0.21359465424E+03  0.39129960950E+03  0.00000000000E+00 0. -1.
        -11    1    5    5    0    0 -0.32060080899E+02  0.61988445350E+01  0.11860958354E+01  0.32675392640E+02  0.00000000000E+00 0.  1.
          4    1    6    6  503    0 -0.12954100891E+03  0.18973270766E+03 -0.14368405538E+03  0.27096952064E+03  0.00000000000E+00 0.  1.
         -4    1    6    6    0  503 -0.36589644841E+03  0.47170326456E+03 -0.21097944606E+03  0.63316388669E+03  0.00000000000E+00 0. -1.
<mgrwt>
<rscale>  0 0.23211588E+04</rscale>
<asrwt>0</asrwt>
<pdfrwt beam="1">  1        1 0.17336663E+00 0.23211588E+04</pdfrwt>
<pdfrwt beam="2">  1       -2 0.18388974E+00 0.23211588E+04</pdfrwt>
<totfact> 0.16330409E+00</totfact>
</mgrwt>
</event>
<event>
12    4  0.4207946E-008  0.2145532E+04  0.7818608E-02  0.8541447E-01
          1   -1    0    0  501    0  0.00000000000E+00  0.00000000000E+00  0.58750534212E+03  0.58750534212E+03  0.00000000000E+00 0. -1.
         -2   -1    0    0    0  501 -0.00000000000E+00 -0.00000000000E+00 -0.19588371483E+04  0.19588371483E+04  0.00000000000E+00 0.  1.
        -24    2    1    2    0    0 -0.23545035963E+03 -0.29721470214E+03 -0.15104906387E+04  0.15593165317E+04  0.78183281862E+02 0.  0.
        254    2    1    2    0    0  0.23545035963E+03  0.29721470214E+03  0.13915883251E+03  0.98702595869E+03  0.90060069478E+03 0.  0.
         23    2    4    4    0    0  0.58124531185E+02 -0.20699880731E+03  0.33651654367E+03  0.40974386298E+03  0.91758823721E+02 0.  0.
         23    2    4    4    0    0  0.17732582844E+03  0.50421350946E+03 -0.19735771117E+03  0.57728209570E+03  0.92891545965E+02 0.  0.
          3    1    3    3  502    0 -0.90585224172E+02 -0.16925555858E+03 -0.82971190741E+03  0.85163077460E+03  0.00000000000E+00 0. -1.
         -4    1    3    3    0  502 -0.14486513545E+03 -0.12795914356E+03 -0.68077873124E+03  0.70768575710E+03  0.00000000000E+00 0.  1.
         11    1    5    5    0    0  0.50920361371E+02 -0.17362604431E+03  0.32793554019E+03  0.37454052515E+03  0.00000000000E+00 0.  1.
        -11    1    5    5    0    0  0.72041698134E+01 -0.33372763007E+02  0.85810034849E+01  0.35203337828E+02  0.00000000000E+00 0. -1.
          4    1    6    6  503    0  0.69735589966E+02  0.33315422622E+03 -0.12034103934E+03  0.36102182303E+03  0.00000000000E+00 0. -1.
         -4    1    6    6    0  503  0.10759023848E+03  0.17105928324E+03 -0.77016671829E+02  0.21626027267E+03  0.00000000000E+00 0.  1.
<mgrwt>
<rscale>  0 0.21455324E+04</rscale>
<asrwt>0</asrwt>
<pdfrwt beam="1">  1        1 0.90385437E-01 0.21455324E+04</pdfrwt>
<pdfrwt beam="2">  1       -2 0.30135956E+00 0.21455324E+04</pdfrwt>
<totfact> 0.88385572E-01</totfact>
</mgrwt>
</event>
<event>
12    4  0.4207946E-008  0.4429849E+04  0.7818608E-02  0.7923035E-01
          3   -1    0    0  501    0  0.00000000000E+00  0.00000000000E+00  0.21518927986E+04  0.21518927986E+04  0.00000000000E+00 0. -1.
         -4   -1    0    0    0  501 -0.00000000000E+00 -0.00000000000E+00 -0.22798025178E+04  0.22798025178E+04  0.00000000000E+00 0.  1.
        -24    2    1    2    0    0 -0.81682657344E+03 -0.11909336488E+04 -0.16185031033E+04  0.21705329184E+04  0.78308669158E+02 0.  0.
        254    2    1    2    0    0  0.81682657344E+03  0.11909336488E+04  0.14905933841E+04  0.22611623980E+04  0.89747320114E+03 0.  0.
         23    2    4    4    0    0 -0.10000540204E+03  0.19028575834E+03  0.57871323183E+03  0.62378752757E+03  0.89398683366E+02 0.  0.
         23    2    4    4    0    0  0.91683197548E+03  0.10006478904E+04  0.91188015225E+03  0.16373748705E+04  0.87143459177E+02 0.  0.
          1    1    3    3  502    0 -0.65209746191E+03 -0.94308626270E+03 -0.13307383222E+04  0.17565612090E+04  0.00000000000E+00 0. -1.
         -2    1    3    3    0  502 -0.16472911153E+03 -0.24784738606E+03 -0.28776478109E+03  0.41397170942E+03  0.00000000000E+00 0.  1.
         11    1    5    5    0    0 -0.11027428321E+03  0.13427706995E+03  0.46951075928E+03  0.50063070434E+03  0.00000000000E+00 0. -1.
        -11    1    5    5    0    0  0.10268881170E+02  0.56008688382E+02  0.10920247256E+03  0.12315682323E+03  0.00000000000E+00 0.  1.
          2    1    6    6  503    0  0.72239074916E+03  0.73316362444E+03  0.68866284900E+03  0.12383996989E+04  0.00000000000E+00 0. -1.
         -2    1    6    6    0  503  0.19444122632E+03  0.26748426598E+03  0.22321730325E+03  0.39897517155E+03  0.00000000000E+00 0.  1.
<mgrwt>
<rscale>  0 0.44298490E+04</rscale>
<asrwt>0</asrwt>
<pdfrwt beam="1">  1        3 0.33106043E+00 0.44298490E+04</pdfrwt>
<pdfrwt beam="2">  1       -4 0.35073885E+00 0.44298490E+04</pdfrwt>
<totfact> 0.65232478E-04</totfact>
</mgrwt>
</event>
<event>
12    4  0.4207946E-008  0.1514086E+04  0.7818608E-02  0.8875139E-01
         -2   -1    0    0    0  501 -0.00000000000E+00  0.00000000000E+00  0.16629395893E+03  0.16629395893E+03  0.00000000000E+00 0.  1.
          1   -1    0    0  501    0  0.00000000000E+00 -0.00000000000E+00 -0.34463938467E+04  0.34463938467E+04  0.00000000000E+00 0. -1.
        -24    2    1    2    0    0 -0.37071694213E+03 -0.28174877506E+03 -0.74377613603E+03  0.88156653808E+03  0.84517436651E+02 0.  0.
        254    2    1    2    0    0  0.37071694213E+03  0.28174877506E+03 -0.25363237518E+04  0.27311212676E+04  0.89959534291E+03 0.  0.
         23    2    4    4    0    0 -0.71502463912E+02  0.45286477627E+03 -0.77269823681E+03  0.90256895882E+03  0.85843184455E+02 0.  0.
         23    2    4    4    0    0  0.44221940604E+03 -0.17111600121E+03 -0.17636255150E+04  0.18285523088E+04  0.91596396773E+02 0.  0.
          1    1    3    3  502    0 -0.69941768368E+02 -0.54856018334E+02 -0.21173124865E+03  0.22963265309E+03  0.00000000000E+00 0. -1.
         -2    1    3    3    0  502 -0.30077517376E+03 -0.22689275673E+03 -0.53204488737E+03  0.65193388498E+03  0.00000000000E+00 0.  1.
         11    1    5    5    0    0  0.15745753647E+02  0.13652003412E+03 -0.20364722923E+03  0.24567833125E+03  0.00000000000E+00 0. -1.
        -11    1    5    5    0    0 -0.87248217559E+02  0.31634474216E+03 -0.56905100758E+03  0.65689062757E+03  0.00000000000E+00 0.  1.
          3    1    6    6  503    0  0.13686338442E+03 -0.98668496454E+02 -0.58233908509E+03  0.60628860142E+03  0.00000000000E+00 0. -1.
         -3    1    6    6    0  503  0.30535602162E+03 -0.72447504755E+02 -0.11812864299E+04  0.12222637074E+04  0.00000000000E+00 0.  1.
<mgrwt>
<rscale>  0 0.15140865E+04</rscale>
<asrwt>0</asrwt>
<pdfrwt beam="1">  1        1 0.53021439E+00 0.15140865E+04</pdfrwt>
<pdfrwt beam="2">  1       -2 0.25583688E-01 0.15140865E+04</pdfrwt>
<totfact> 0.32484859E+00</totfact>
</mgrwt>
</event>
<event>
12    4  0.4207946E-008  0.1601743E+04  0.7818608E-02  0.8819478E-01
         -4   -1    0    0    0  501 -0.00000000000E+00  0.00000000000E+00  0.89872762678E+03  0.89872762678E+03  0.00000000000E+00 0.  1.
          3   -1    0    0  501    0  0.00000000000E+00 -0.00000000000E+00 -0.71367065278E+03  0.71367065278E+03  0.00000000000E+00 0. -1.
        -24    2    1    2    0    0 -0.23743140131E+03  0.46465847979E+03  0.23763635026E+03  0.57889557970E+03  0.79799022954E+02 0.  0.
        254    2    1    2    0    0  0.23743140131E+03 -0.46465847979E+03 -0.52579376266E+02  0.10335026999E+04  0.89055155193E+03 0.  0.
         23    2    4    4    0    0  0.77374266089E+02 -0.23537490028E+02  0.37354009117E+03  0.39290313655E+03  0.91103701980E+02 0.  0.
         23    2    4    4    0    0  0.16005713522E+03 -0.44112098976E+03 -0.42611946743E+03  0.64059956331E+03  0.92649802207E+02 0.  0.
          1    1    3    3  502    0 -0.15351949590E+02  0.97575451496E+02  0.40986719782E+02  0.10694186406E+03  0.00000000000E+00 0. -1.
         -2    1    3    3    0  502 -0.22207945172E+03  0.36708302830E+03  0.19664963048E+03  0.47195371564E+03  0.00000000000E+00 0.  1.
         11    1    5    5    0    0  0.97406650702E+02 -0.27749389713E+02  0.31556758255E+03  0.33142266577E+03  0.00000000000E+00 0.  1.
        -11    1    5    5    0    0 -0.20032384612E+02  0.42118996853E+01  0.57972508617E+02  0.61480470782E+02  0.00000000000E+00 0. -1.
          1    1    6    6  503    0  0.90538391150E+02 -0.14926576037E+03 -0.11913690909E+03  0.21135531836E+03  0.00000000000E+00 0. -1.
         -1    1    6    6    0  503  0.69518744067E+02 -0.29185522939E+03 -0.30698255834E+03  0.42924424495E+03  0.00000000000E+00 0.  1.
<mgrwt>
<rscale>  0 0.16017435E+04</rscale>
<asrwt>0</asrwt>
<pdfrwt beam="1">  1        3 0.10979548E+00 0.16017435E+04</pdfrwt>
<pdfrwt beam="2">  1       -4 0.13826579E+00 0.16017435E+04</pdfrwt>
<totfact> 0.56836077E-01</totfact>
</mgrwt>
</event>
<event>
12    4  0.4207946E-008  0.1438775E+04  0.7818608E-02  0.8926220E-01
          1   -1    0    0  501    0  0.00000000000E+00  0.00000000000E+00  0.82738251384E+03  0.82738251384E+03  0.00000000000E+00 0. -1.
         -2   -1    0    0    0  501 -0.00000000000E+00 -0.00000000000E+00 -0.62548882446E+03  0.62548882446E+03  0.00000000000E+00 0.  1.
        -24    2    1    2    0    0 -0.28962654571E+03  0.26265639588E+03  0.25104261035E+03  0.47136627554E+03  0.79321215532E+02 0.  0.
        254    2    1    2    0    0  0.28962654571E+03 -0.26265639588E+03 -0.49148920973E+02  0.98150506276E+03  0.89892416450E+03 0.  0.
         23    2    4    4    0    0 -0.29499708968E+03 -0.54709615614E+02 -0.14781965799E+03  0.34681345701E+03  0.91719669190E+02 0.  0.
         23    2    4    4    0    0  0.58462363538E+03 -0.20794678027E+03  0.98670737017E+02  0.63469160575E+03  0.89837974108E+02 0.  0.
          1    1    3    3  502    0 -0.15950011498E+03  0.17068189060E+03  0.18853094271E+03  0.30019412189E+03  0.00000000000E+00 0. -1.
         -2    1    3    3    0  502 -0.13012643073E+03  0.91974505281E+02  0.62511667636E+02  0.17117215365E+03  0.00000000000E+00 0.  1.
         11    1    5    5    0    0 -0.17689314149E+02  0.31954448043E+01 -0.39724077195E+02  0.43601892293E+02  0.00000000000E+00 0. -1.
        -11    1    5    5    0    0 -0.27730777553E+03 -0.57905060418E+02 -0.10809558080E+03  0.30321156472E+03  0.00000000000E+00 0.  1.
          2    1    6    6  503    0  0.51599926163E+02 -0.47025306344E+02  0.17960445315E+02  0.72086818578E+02  0.00000000000E+00 0. -1.
         -2    1    6    6    0  503  0.53302370922E+03 -0.16092147392E+03  0.80710291702E+02  0.56260478717E+03  0.00000000000E+00 0.  1.
<mgrwt>
<rscale>  0 0.14387752E+04</rscale>
<asrwt>0</asrwt>
<pdfrwt beam="1">  1        1 0.12728962E+00 0.14387752E+04</pdfrwt>
<pdfrwt beam="2">  1       -2 0.96229050E-01 0.14387752E+04</pdfrwt>
<totfact> 0.16126300E+01</totfact>
</mgrwt>
</event>
<event>
12    4  0.4207946E-008  0.1622905E+04  0.7818608E-02  0.8806599E-01
         -2   -1    0    0    0  501 -0.00000000000E+00  0.00000000000E+00  0.30366574205E+03  0.30366574205E+03  0.00000000000E+00 0.  1.
          1   -1    0    0  501    0  0.00000000000E+00 -0.00000000000E+00 -0.21683553198E+04  0.21683553198E+04  0.00000000000E+00 0. -1.
        -24    2    1    2    0    0  0.25829026066E+03  0.40969963705E+03 -0.21902784435E+03  0.53728966434E+03  0.78353911549E+02 0.  0.
        254    2    1    2    0    0 -0.25829026066E+03 -0.40969963705E+03 -0.16456617334E+04  0.19347313975E+04  0.89465937003E+03 0.  0.
         23    2    4    4    0    0  0.49627485033E+02 -0.61758439457E+03 -0.90123222375E+03  0.10974276118E+04  0.90854115668E+02 0.  0.
         23    2    4    4    0    0 -0.30791774570E+03  0.20788475753E+03 -0.74442950966E+03  0.83730378572E+03  0.94196200505E+02 0.  0.
          1    1    3    3  502    0  0.71588713740E+02  0.10780222336E+03 -0.97758601059E+02  0.16218201928E+03  0.00000000000E+00 0. -1.
         -2    1    3    3    0  502  0.18670154693E+03  0.30189741368E+03 -0.12126924329E+03  0.37510764506E+03  0.00000000000E+00 0.  1.
         11    1    5    5    0    0  0.25867524965E+02 -0.39031372245E+03 -0.64272396302E+03  0.75240150413E+03  0.00000000000E+00 0.  1.
        -11    1    5    5    0    0  0.23759960068E+02 -0.22727067212E+03 -0.25850826073E+03  0.34502610767E+03  0.00000000000E+00 0. -1.
          4    1    6    6  503    0 -0.70306876070E+02  0.52399902801E+01 -0.15410210748E+03  0.16946378330E+03  0.00000000000E+00 0. -1.
         -4    1    6    6    0  503 -0.23761086963E+03  0.20264476725E+03 -0.59032740219E+03  0.66784000242E+03  0.00000000000E+00 0.  1.
<mgrwt>
<rscale>  0 0.16229051E+04</rscale>
<asrwt>0</asrwt>
<pdfrwt beam="1">  1        1 0.33359311E+00 0.16229051E+04</pdfrwt>
<pdfrwt beam="2">  1       -2 0.46717809E-01 0.16229051E+04</pdfrwt>
<totfact> 0.83688999E+00</totfact>
</mgrwt>
</event>
<event>
12    4  0.4207946E-008  0.2069048E+04  0.7818608E-02  0.8575002E-01
          1   -1    0    0  501    0  0.00000000000E+00  0.00000000000E+00  0.29598927901E+04  0.29598927901E+04  0.00000000000E+00 0. -1.
         -2   -1    0    0    0  501 -0.00000000000E+00 -0.00000000000E+00 -0.36158069450E+03  0.36158069450E+03  0.00000000000E+00 0.  1.
        -24    2    1    2    0    0 -0.14718099053E+03  0.19818306555E+03 -0.22154996101E+03  0.34128864415E+03  0.80341657685E+02 0.  0.
        254    2    1    2    0    0  0.14718099053E+03 -0.19818306555E+03  0.28198620566E+04  0.29801848405E+04  0.93216999176E+03 0.  0.
         23    2    4    4    0    0  0.19553813234E+03 -0.48789327176E+03  0.24085240232E+04  0.24668814800E+04  0.90781385533E+02 0.  0.
         23    2    4    4    0    0 -0.48357141812E+02  0.28971020620E+03  0.41133803339E+03  0.51330336049E+03  0.89503885019E+02 0.  0.
          3    1    3    3  502    0 -0.10091862926E+02  0.58204259242E+02 -0.26228574581E+02  0.64633734348E+02  0.00000000000E+00 0. -1.
         -4    1    3    3    0  502 -0.13708912760E+03  0.13997880631E+03 -0.19532138643E+03  0.27665490980E+03  0.00000000000E+00 0.  1.
         11    1    5    5    0    0  0.15182119578E+03 -0.28260632909E+03  0.15747602537E+04  0.16071048097E+04  0.00000000000E+00 0. -1.
        -11    1    5    5    0    0  0.43716936561E+02 -0.20528694267E+03  0.83376376949E+03  0.85977667024E+03  0.00000000000E+00 0.  1.
          3    1    6    6  503    0 -0.20143573218E+02  0.26000642279E+02  0.94804770176E+02  0.10034810107E+03  0.00000000000E+00 0.  1.
         -3    1    6    6    0  503 -0.28213568594E+02  0.26370956393E+03  0.31653326322E+03  0.41295525942E+03  0.00000000000E+00 0. -1.
<mgrwt>
<rscale>  0 0.20690482E+04</rscale>
<asrwt>0</asrwt>
<pdfrwt beam="1">  1        1 0.45536811E+00 0.20690482E+04</pdfrwt>
<pdfrwt beam="2">  1       -2 0.55627801E-01 0.20690482E+04</pdfrwt>
<totfact> 0.15750849E+00</totfact>
</mgrwt>
</event>
<event>
12    4  0.4207946E-008  0.1237333E+04  0.7818608E-02  0.9080792E-01
          1   -1    0    0  501    0  0.00000000000E+00  0.00000000000E+00  0.69811119528E+03  0.69811119528E+03  0.00000000000E+00 0. -1.
         -2   -1    0    0    0  501 -0.00000000000E+00 -0.00000000000E+00 -0.54826297186E+03  0.54826297186E+03  0.00000000000E+00 0.  1.
        -24    2    1    2    0    0  0.25105277917E+03 -0.85681483872E+02 -0.48906958556E+02  0.28135222950E+03  0.79989823367E+02 0.  0.
        254    2    1    2    0    0 -0.25105277917E+03  0.85681483872E+02  0.19875518197E+03  0.96502193764E+03  0.90630839297E+03 0.  0.
         23    2    4    4    0    0 -0.34334654416E+03  0.73228392780E+02 -0.28680503465E+03  0.46292559327E+03  0.93774890607E+02 0.  0.
         23    2    4    4    0    0  0.92293764989E+02  0.12453091092E+02  0.48556021662E+03  0.50209634437E+03  0.87514550432E+02 0.  0.
          3    1    3    3  502    0  0.33552367152E+02  0.10471552959E+02 -0.23302863933E+02  0.42171533412E+02  0.00000000000E+00 0. -1.
         -4    1    3    3    0  502  0.21750041202E+03 -0.96153036830E+02 -0.25604094623E+02  0.23918069609E+03  0.00000000000E+00 0.  1.
         11    1    5    5    0    0 -0.13504255061E+03  0.38966923825E+02 -0.59251965195E+02  0.15253100343E+03  0.00000000000E+00 0.  1.
        -11    1    5    5    0    0 -0.20830399354E+03  0.34261468955E+02 -0.22755306945E+03  0.31039458984E+03  0.00000000000E+00 0. -1.
          4    1    6    6  503    0  0.10005042595E+03  0.28960339506E+02  0.45255945422E+03  0.46439083604E+03  0.00000000000E+00 0. -1.
         -4    1    6    6    0  503 -0.77566609639E+01 -0.16507248414E+02  0.33000762397E+02  0.37705508328E+02  0.00000000000E+00 0.  1.
<mgrwt>
<rscale>  0 0.12373335E+04</rscale>
<asrwt>0</asrwt>
<pdfrwt beam="1">  1        1 0.10740172E+00 0.12373335E+04</pdfrwt>
<pdfrwt beam="2">  1       -2 0.84348150E-01 0.12373335E+04</pdfrwt>
<totfact> 0.29002192E+01</totfact>
</mgrwt>
</event>
<event>
12    4  0.4207946E-008  0.1294656E+04  0.7818608E-02  0.9033814E-01
          1   -1    0    0  501    0  0.00000000000E+00  0.00000000000E+00  0.96172189829E+03  0.96172189829E+03  0.00000000000E+00 0. -1.
         -2   -1    0    0    0  501 -0.00000000000E+00 -0.00000000000E+00 -0.43571179663E+03  0.43571179663E+03  0.00000000000E+00 0.  1.
        -24    2    1    2    0    0  0.23889756624E+03  0.87932239609E+02 -0.10672238066E+03  0.28817340763E+03  0.82765454211E+02 0.  0.
        254    2    1    2    0    0 -0.23889756624E+03 -0.87932239609E+02  0.63273248231E+03  0.11092602873E+04  0.87481647497E+03 0.  0.
         23    2    4    4    0    0 -0.40571678393E+03  0.11001887175E+03  0.70421425515E+03  0.82509863435E+03  0.90331491434E+02 0.  0.
         23    2    4    4    0    0  0.16681921769E+03 -0.19795111136E+03 -0.71481772836E+02  0.28416165294E+03  0.92870378902E+02 0.  0.
          1    1    3    3  502    0  0.65576760402E+02  0.19115778095E+02 -0.70580196455E+02  0.98220611934E+02  0.00000000000E+00 0. -1.
         -2    1    3    3    0  502  0.17332080584E+03  0.68816461513E+02 -0.36142184201E+02  0.18995279569E+03  0.00000000000E+00 0.  1.
         11    1    5    5    0    0 -0.21499538561E+03  0.30957054693E+02  0.29048051664E+03  0.36271240070E+03  0.00000000000E+00 0. -1.
        -11    1    5    5    0    0 -0.19072139832E+03  0.79061817057E+02  0.41373373850E+03  0.46238623365E+03  0.00000000000E+00 0.  1.
          2    1    6    6  503    0  0.99616850347E+02 -0.15746269348E+03 -0.84567915168E+02  0.20462098863E+03  0.00000000000E+00 0. -1.
         -2    1    6    6    0  503  0.67202367342E+02 -0.40488417878E+02  0.13086142332E+02  0.79540664316E+02  0.00000000000E+00 0.  1.
<mgrwt>
<rscale>  0 0.12946561E+04</rscale>
<asrwt>0</asrwt>
<pdfrwt beam="1">  1        1 0.14795721E+00 0.12946561E+04</pdfrwt>
<pdfrwt beam="2">  1       -2 0.67032585E-01 0.12946561E+04</pdfrwt>
<totfact> 0.28552575E+01</totfact>
</mgrwt>
</event>
<event>
12    4  0.4207946E-008  0.1464783E+04  0.7818608E-02  0.8908215E-01
         -2   -1    0    0    0  501 -0.00000000000E+00  0.00000000000E+00  0.31590291354E+03  0.31590291354E+03  0.00000000000E+00 0.  1.
          1   -1    0    0  501    0  0.00000000000E+00 -0.00000000000E+00 -0.16979820039E+04  0.16979820039E+04  0.00000000000E+00 0. -1.
        -24    2    1    2    0    0  0.31265030844E+03 -0.20461543505E+03 -0.77966369072E+03  0.86823710072E+03  0.79639819255E+02 0.  0.
        254    2    1    2    0    0 -0.31265030844E+03  0.20461543505E+03 -0.60241539969E+03  0.11456478168E+04  0.89999273035E+03 0.  0.
         23    2    4    4    0    0  0.22796766635E+03  0.31085805518E+03 -0.13743012315E+03  0.41771377472E+03  0.83640728496E+02 0.  0.
         23    2    4    4    0    0 -0.54061797479E+03 -0.10624262014E+03 -0.46498527653E+03  0.72793404206E+03  0.10060503564E+03 0.  0.
          3    1    3    3  502    0  0.30375727268E+03 -0.18829590168E+03 -0.76567841038E+03  0.84497766563E+03  0.00000000000E+00 0. -1.
         -4    1    3    3    0  502  0.88930357571E+01 -0.16319533368E+02 -0.13985280339E+02  0.23259435085E+02  0.00000000000E+00 0.  1.
         11    1    5    5    0    0  0.19800938242E+03  0.30501533884E+03 -0.12245287303E+03  0.38371444926E+03  0.00000000000E+00 0. -1.
        -11    1    5    5    0    0  0.29958283931E+02  0.58427163398E+01 -0.14977250122E+02  0.33999325457E+02  0.00000000000E+00 0.  1.
          1    1    6    6  503    0 -0.80212023787E+01 -0.58797624223E+01  0.44779421574E+01  0.10907027996E+02  0.00000000000E+00 0.  1.
         -1    1    6    6    0  503 -0.53259677241E+03 -0.10036285771E+03 -0.46946321869E+03  0.71702701406E+03  0.00000000000E+00 0. -1.
<mgrwt>
<rscale>  0 0.14647832E+04</rscale>
<asrwt>0</asrwt>
<pdfrwt beam="1">  1        1 0.26122800E+00 0.14647832E+04</pdfrwt>
<pdfrwt beam="2">  1       -2 0.48600448E-01 0.14647832E+04</pdfrwt>
<totfact> 0.16324058E+01</totfact>
</mgrwt>
</event>
<event>
12    4  0.4794463E-008  0.2069377E+04  0.7818608E-02  0.8574854E-01
         -2   -1    0    0    0  501 -0.00000000000E+00  0.00000000000E+00  0.49820609253E+03  0.49820609253E+03  0.00000000000E+00 0.  1.
          1   -1    0    0  501    0  0.00000000000E+00 -0.00000000000E+00 -0.21488698684E+04  0.21488698684E+04  0.00000000000E+00 0. -1.
        -24    2    1    2    0    0  0.46100850548E+03  0.54863103024E+03 -0.12773093072E+03  0.73222383071E+03  0.79446196370E+02 0.  0.
        254    2    1    2    0    0 -0.46100850548E+03 -0.54863103024E+03 -0.15229328451E+04  0.19148521302E+04  0.91313163361E+03 0.  0.
         23    2    4    4    0    0  0.10018969595E+03 -0.51508272023E+03 -0.10371582996E+04  0.11658804772E+04  0.90729073908E+02 0.  0.
         23    2    4    4    0    0 -0.56119820143E+03 -0.33548310017E+02 -0.48577454550E+03  0.74897165297E+03  0.94407189880E+02 0.  0.
          1    1    3    3  502    0  0.13038129334E+03  0.15361572739E+03  0.57832311368E-01  0.20148716262E+03  0.00000000000E+00 0. -1.
         -2    1    3    3    0  502  0.33062721214E+03  0.39501530285E+03 -0.12778876303E+03  0.53073666809E+03  0.00000000000E+00 0.  1.
         11    1    5    5    0    0  0.67090476959E+02 -0.17274546079E+03 -0.30346770403E+03  0.35557667768E+03  0.00000000000E+00 0.  1.
        -11    1    5    5    0    0  0.33099218991E+02 -0.34233725944E+03 -0.73369059559E+03  0.81030379955E+03  0.00000000000E+00 0. -1.
          1    1    6    6  503    0 -0.92945474353E+02 -0.21431798508E+01 -0.38374900992E+02  0.10057876241E+03  0.00000000000E+00 0. -1.
         -1    1    6    6    0  503 -0.46825272708E+03 -0.31405130167E+02 -0.44739964451E+03  0.64839289056E+03  0.00000000000E+00 0.  1.
<mgrwt>
<rscale>  0 0.20693768E+04</rscale>
<asrwt>0</asrwt>
<pdfrwt beam="1">  1        1 0.33059537E+00 0.20693768E+04</pdfrwt>
<pdfrwt beam="2">  1       -2 0.76647090E-01 0.20693768E+04</pdfrwt>
<totfact> 0.29091013E+00</totfact>
</mgrwt>
</event>
<event>
12    4  0.4207946E-008  0.2156187E+04  0.7818608E-02  0.8536889E-01
          1   -1    0    0  501    0  0.00000000000E+00  0.00000000000E+00  0.10212276057E+04  0.10212276057E+04  0.00000000000E+00 0. -1.
         -2   -1    0    0    0  501 -0.00000000000E+00 -0.00000000000E+00 -0.11381258801E+04  0.11381258801E+04  0.00000000000E+00 0.  1.
        -24    2    1    2    0    0  0.83461661119E+02  0.89940941158E+03 -0.94466468648E+02  0.91135784686E+03  0.75802854874E+02 0.  0.
        254    2    1    2    0    0 -0.83461661119E+02 -0.89940941158E+03 -0.22431805723E+02  0.12479956389E+04  0.86086397901E+03 0.  0.
         23    2    4    4    0    0 -0.15921745510E+03 -0.99854014757E+03 -0.17537052847E+03  0.10303450373E+04  0.91779351014E+02 0.  0.
         23    2    4    4    0    0  0.75755793982E+02  0.99130735983E+02  0.15293872275E+03  0.21765060166E+03  0.91737060928E+02 0.  0.
          1    1    3    3  502    0  0.43141605660E+01  0.35749438124E+03 -0.13818826992E+02  0.35778737342E+03  0.00000000000E+00 0. -1.
         -2    1    3    3    0  502  0.79147500553E+02  0.54191503034E+03 -0.80647641656E+02  0.55357047343E+03  0.00000000000E+00 0.  1.
         11    1    5    5    0    0 -0.14473789015E+03 -0.70066018165E+03 -0.15022698256E+03  0.73105532847E+03  0.00000000000E+00 0. -1.
        -11    1    5    5    0    0 -0.14479564946E+02 -0.29787996592E+03 -0.25143545904E+02  0.29928970881E+03  0.00000000000E+00 0.  1.
          4    1    6    6  503    0  0.82876280946E+02  0.82844772712E+02  0.16017162935E+03  0.19846078998E+03  0.00000000000E+00 0. -1.
         -4    1    6    6    0  503 -0.71204869638E+01  0.16285963270E+02 -0.72329066069E+01  0.19189811678E+02  0.00000000000E+00 0.  1.
<mgrwt>
<rscale>  0 0.21561870E+04</rscale>
<asrwt>0</asrwt>
<pdfrwt beam="1">  1        1 0.15711194E+00 0.21561870E+04</pdfrwt>
<pdfrwt beam="2">  1       -2 0.17509629E+00 0.21561870E+04</pdfrwt>
<totfact> 0.22926004E+00</totfact>
</mgrwt>
</event>
<event>
12    4  0.4207946E-008  0.1555497E+04  0.7818608E-02  0.8848364E-01
          1   -1    0    0  501    0  0.00000000000E+00  0.00000000000E+00  0.44207384042E+03  0.44207384042E+03  0.00000000000E+00 0. -1.
         -4   -1    0    0    0  501 -0.00000000000E+00 -0.00000000000E+00 -0.13683068751E+04  0.13683068751E+04  0.00000000000E+00 0.  1.
        -24    2    1    2    0    0 -0.12207894194E+03 -0.48084042127E+03 -0.21466137822E+03  0.54628390957E+03  0.78967232226E+02 0.  0.
        254    2    1    2    0    0  0.12207894194E+03  0.48084042127E+03 -0.71157165644E+03  0.12640968059E+04  0.91950841960E+03 0.  0.
         23    2    4    4    0    0  0.45738661982E+03  0.32884669636E+02 -0.22690424019E+03  0.51957075103E+03  0.90467174253E+02 0.  0.
         23    2    4    4    0    0 -0.33530767789E+03  0.44795575163E+03 -0.48466741624E+03  0.74452605490E+03  0.79504388433E+02 0.  0.
          1    1    3    3  502    0 -0.10767410388E+02 -0.10976792821E+03 -0.79556602026E+02  0.13599333850E+03  0.00000000000E+00 0. -1.
         -2    1    3    3    0  502 -0.11131153155E+03 -0.37107249305E+03 -0.13510477620E+03  0.41029057107E+03  0.00000000000E+00 0.  1.
         11    1    5    5    0    0  0.25759609812E+03  0.60953209125E+02 -0.14505413092E+03  0.30184722024E+03  0.00000000000E+00 0. -1.
        -11    1    5    5    0    0  0.19979052170E+03 -0.28068539489E+02 -0.81850109270E+02  0.21772353079E+03  0.00000000000E+00 0.  1.
          1    1    6    6  503    0 -0.14135461789E+03  0.12819366442E+03 -0.15133374788E+03  0.24355009103E+03  0.00000000000E+00 0. -1.
         -1    1    6    6    0  503 -0.19395306000E+03  0.31976208721E+03 -0.33333366837E+03  0.50097596386E+03  0.00000000000E+00 0.  1.
<mgrwt>
<rscale>  0 0.15554969E+04</rscale>
<asrwt>0</asrwt>
<pdfrwt beam="1">  1        1 0.68011361E-01 0.15554969E+04</pdfrwt>
<pdfrwt beam="2">  1       -4 0.21050875E+00 0.15554969E+04</pdfrwt>
<totfact> 0.27070782E+00</totfact>
</mgrwt>
</event>
<event>
12    4  0.4207946E-008  0.1349062E+04  0.7818608E-02  0.8991539E-01
         -2   -1    0    0    0  501 -0.00000000000E+00  0.00000000000E+00  0.60256268233E+03  0.60256268233E+03  0.00000000000E+00 0.  1.
          1   -1    0    0  501    0  0.00000000000E+00 -0.00000000000E+00 -0.75509458753E+03  0.75509458753E+03  0.00000000000E+00 0. -1.
        -24    2    1    2    0    0 -0.15286625412E+03  0.30296213990E+03 -0.13282297701E+03  0.37306445961E+03  0.79881148842E+02 0.  0.
        254    2    1    2    0    0  0.15286625412E+03 -0.30296213990E+03 -0.19708928198E+02  0.98459281026E+03  0.92405649735E+03 0.  0.
         23    2    4    4    0    0 -0.91655803902E+01  0.26465225211E+03 -0.21859632781E+03  0.35546218588E+03  0.91892266560E+02 0.  0.
         23    2    4    4    0    0  0.16203183451E+03 -0.56761439201E+03  0.19888739961E+03  0.62913062437E+03  0.88367026613E+02 0.  0.
          3    1    3    3  502    0 -0.13378459696E+03  0.27237924449E+03 -0.14320177763E+03  0.33555255971E+03  0.00000000000E+00 0. -1.
         -4    1    3    3    0  502 -0.19081657155E+02  0.30582895407E+02  0.10378800621E+02  0.37511899893E+02  0.00000000000E+00 0.  1.
         11    1    5    5    0    0  0.36962554481E+02  0.16063996486E+03 -0.10997077626E+03  0.19815398147E+03  0.00000000000E+00 0.  1.
        -11    1    5    5    0    0 -0.46128134871E+02  0.10401228725E+03 -0.10862555155E+03  0.15730820441E+03  0.00000000000E+00 0. -1.
          2    1    6    6  503    0  0.10766530377E+03 -0.21952122578E+03  0.77454075137E+02  0.25647713340E+03  0.00000000000E+00 0. -1.
         -2    1    6    6    0  503  0.54366530738E+02 -0.34809316623E+03  0.12143332447E+03  0.37265349097E+03  0.00000000000E+00 0.  1.
<mgrwt>
<rscale>  0 0.13490616E+04</rscale>
<asrwt>0</asrwt>
<pdfrwt beam="1">  1        1 0.11616840E+00 0.13490616E+04</pdfrwt>
<pdfrwt beam="2">  1       -2 0.92701951E-01 0.13490616E+04</pdfrwt>
<totfact> 0.20506542E+01</totfact>
</mgrwt>
</event>
<event>
12    4  0.4207946E-008  0.2469582E+04  0.7818608E-02  0.8413903E-01
          1   -1    0    0  501    0  0.00000000000E+00  0.00000000000E+00  0.47706122461E+03  0.47706122461E+03  0.00000000000E+00 0. -1.
         -2   -1    0    0    0  501 -0.00000000000E+00 -0.00000000000E+00 -0.31960436028E+04  0.31960436028E+04  0.00000000000E+00 0.  1.
        -24    2    1    2    0    0  0.12428811053E+03 -0.36372346115E+02 -0.27600036282E+04  0.27641703487E+04  0.79039274747E+02 0.  0.
        254    2    1    2    0    0 -0.12428811053E+03  0.36372346115E+02  0.41021249978E+02  0.90893447875E+03  0.89872613277E+03 0.  0.
         23    2    4    4    0    0  0.11059774345E+03  0.13145703868E+03 -0.36865513889E+03  0.41689061783E+03  0.91533392421E+02 0.  0.
         23    2    4    4    0    0 -0.23488585397E+03 -0.95084692566E+02  0.40967638887E+03  0.49204386092E+03  0.10029932361E+03 0.  0.
          3    1    3    3  502    0  0.20394912565E+02 -0.41186255631E+02 -0.10516082809E+04  0.10526121017E+04  0.00000000000E+00 0. -1.
         -4    1    3    3    0  502  0.10389319796E+03  0.48139095169E+01 -0.17083953472E+04  0.17115582470E+04  0.00000000000E+00 0.  1.
         11    1    5    5    0    0 -0.90784761127E+01 -0.56804240160E+01 -0.98062116005E+01  0.14520596802E+02  0.00000000000E+00 0. -1.
        -11    1    5    5    0    0  0.11967621956E+03  0.13713746270E+03 -0.35884892729E+03  0.40237002103E+03  0.00000000000E+00 0.  1.
          1    1    6    6  503    0 -0.51016298732E+02 -0.59665389316E+02  0.75138245428E+02  0.10866635792E+03  0.00000000000E+00 0. -1.
         -1    1    6    6    0  503 -0.18386955524E+03 -0.35419303250E+02  0.33453814344E+03  0.38337750300E+03  0.00000000000E+00 0.  1.
<mgrwt>
<rscale>  0 0.24695817E+04</rscale>
<asrwt>0</asrwt>
<pdfrwt beam="1">  1        1 0.73394039E-01 0.24695817E+04</pdfrwt>
<pdfrwt beam="2">  1       -2 0.49169899E+00 0.24695817E+04</pdfrwt>
<totfact> 0.68374175E-02</totfact>
</mgrwt>
</event>
<event>
12    4  0.4207946E-008  0.1574544E+04  0.7818608E-02  0.8836341E-01
          1   -1    0    0  501    0  0.00000000000E+00  0.00000000000E+00  0.14765219509E+04  0.14765219509E+04  0.00000000000E+00 0. -1.
         -2   -1    0    0    0  501 -0.00000000000E+00 -0.00000000000E+00 -0.41976848277E+03  0.41976848277E+03  0.00000000000E+00 0.  1.
        -24    2    1    2    0    0  0.25034215163E+03  0.39216726957E+03  0.76151397515E+02  0.47815470393E+03  0.79790509117E+02 0.  0.
        254    2    1    2    0    0 -0.25034215163E+03 -0.39216726957E+03  0.98060207061E+03  0.14181357297E+04  0.91272239309E+03 0.  0.
         23    2    4    4    0    0 -0.12474195808E+03 -0.57864920648E+03  0.25087740339E+03  0.64925244741E+03  0.90519658999E+02 0.  0.
         23    2    4    4    0    0 -0.12560019355E+03  0.18648193691E+03  0.72972466722E+03  0.76888328232E+03  0.90180321959E+02 0.  0.
          3    1    3    3  502    0  0.69644059924E+02  0.55629904467E+02  0.26307322510E+02  0.92935765835E+02  0.00000000000E+00 0. -1.
         -4    1    3    3    0  502  0.18069809171E+03  0.33653736510E+03  0.49844075005E+02  0.38521893810E+03  0.00000000000E+00 0.  1.
         11    1    5    5    0    0 -0.13806513376E+03 -0.53865379285E+03  0.24044392970E+03  0.60582437475E+03  0.00000000000E+00 0.  1.
        -11    1    5    5    0    0  0.13323175675E+02 -0.39995413630E+02  0.10433473695E+02  0.43428072659E+02  0.00000000000E+00 0. -1.
          4    1    6    6  503    0 -0.46840452293E+02  0.12458981136E+03  0.30992307245E+03  0.33729654594E+03  0.00000000000E+00 0. -1.
         -4    1    6    6    0  503 -0.78759741259E+02  0.61892125551E+02  0.41980159477E+03  0.43158673638E+03  0.00000000000E+00 0.  1.
<mgrwt>
<rscale>  0 0.15745442E+04</rscale>
<asrwt>0</asrwt>
<pdfrwt beam="1">  1        1 0.22715722E+00 0.15745442E+04</pdfrwt>
<pdfrwt beam="2">  1       -2 0.64579767E-01 0.15745442E+04</pdfrwt>
<totfact> 0.12685953E+01</totfact>
</mgrwt>
</event>
<event>
12    4  0.5263973E-008  0.2500293E+04  0.7818608E-02  0.8402881E-01
          1   -1    0    0  501    0  0.00000000000E+00  0.00000000000E+00  0.19563232650E+04  0.19563232650E+04  0.00000000000E+00 0. -1.
         -2   -1    0    0    0  501 -0.00000000000E+00 -0.00000000000E+00 -0.79887926624E+03  0.79887926624E+03  0.00000000000E+00 0.  1.
        -24    2    1    2    0    0 -0.10101861560E+04  0.30577914117E+03  0.66891383038E+03  0.12518530271E+04  0.75586612376E+02 0.  0.
        254    2    1    2    0    0  0.10101861560E+04 -0.30577914117E+03  0.48853016838E+03  0.15033495042E+04  0.95258650702E+03 0.  0.
         23    2    4    4    0    0  0.56869094559E+02 -0.18549158172E+03 -0.21890315832E+03  0.30639310954E+03  0.91197171283E+02 0.  0.
         23    2    4    4    0    0  0.95331706143E+03 -0.12028755945E+03  0.70743332670E+03  0.11969563946E+04  0.94658239747E+02 0.  0.
          1    1    3    3  502    0 -0.79773835389E+03  0.24788909514E+03  0.49277665632E+03  0.96987850671E+03  0.00000000000E+00 0. -1.
         -2    1    3    3    0  502 -0.21244780210E+03  0.57890046033E+02  0.17613717406E+03  0.28197452036E+03  0.00000000000E+00 0.  1.
         11    1    5    5    0    0  0.35458819520E+02 -0.52466326670E+02 -0.20492879772E+02  0.66558255967E+02  0.00000000000E+00 0. -1.
        -11    1    5    5    0    0  0.21410275039E+02 -0.13302525505E+03 -0.19841027854E+03  0.23983485358E+03  0.00000000000E+00 0.  1.
          4    1    6    6  503    0  0.13381266257E+03  0.15626097727E+02  0.92609484707E+02  0.16348247689E+03  0.00000000000E+00 0. -1.
         -4    1    6    6    0  503  0.81950439887E+03 -0.13591365717E+03  0.61482384199E+03  0.10334739177E+04  0.00000000000E+00 0.  1.
<mgrwt>
<rscale>  0 0.25002929E+04</rscale>
<asrwt>0</asrwt>
<pdfrwt beam="1">  1        1 0.30097281E+00 0.25002929E+04</pdfrwt>
<pdfrwt beam="2">  1       -2 0.12290450E+00 0.25002929E+04</pdfrwt>
<totfact> 0.12458826E+00</totfact>
</mgrwt>
</event>
<event>
12    4  0.4207946E-008  0.1312991E+04  0.7818608E-02  0.9019326E-01
         -4   -1    0    0    0  501 -0.00000000000E+00  0.00000000000E+00  0.87257769461E+03  0.87257769461E+03  0.00000000000E+00 0.  1.
          3   -1    0    0  501    0  0.00000000000E+00 -0.00000000000E+00 -0.49392296268E+03  0.49392296268E+03  0.00000000000E+00 0. -1.
        -24    2    1    2    0    0  0.64396544002E+02  0.30974253265E+03 -0.29183207464E+02  0.32745865755E+03  0.79310537719E+02 0.  0.
        254    2    1    2    0    0 -0.64396544002E+02 -0.30974253265E+03  0.40783793939E+03  0.10390419997E+04  0.90177000450E+03 0.  0.
         23    2    4    4    0    0  0.31857019798E+03 -0.42167568485E+03  0.30226271756E+03  0.61499205103E+03  0.86920182760E+02 0.  0.
         23    2    4    4    0    0 -0.38296674198E+03  0.11193315220E+03  0.10557522184E+03  0.42404994871E+03  0.97363625196E+02 0.  0.
          3    1    3    3  502    0 -0.18659951087E+02  0.47051625307E+02 -0.29085665765E+01  0.50700187161E+02  0.00000000000E+00 0. -1.
         -4    1    3    3    0  502  0.83056495089E+02  0.26269090734E+03 -0.26274640887E+02  0.27675847039E+03  0.00000000000E+00 0.  1.
         11    1    5    5    0    0  0.28566078169E+03 -0.34151404539E+03  0.22482457353E+03  0.49877852225E+03  0.00000000000E+00 0. -1.
        -11    1    5    5    0    0  0.32909416293E+02 -0.80161639458E+02  0.77438144030E+02  0.11621352878E+03  0.00000000000E+00 0.  1.
          2    1    6    6  503    0 -0.62260521206E+02  0.25593089188E+01  0.51662409801E+02  0.80943975375E+02  0.00000000000E+00 0. -1.
         -2    1    6    6    0  503 -0.32070622078E+03  0.10937384328E+03  0.53912812035E+02  0.34310597334E+03  0.00000000000E+00 0.  1.
<mgrwt>
<rscale>  0 0.13129907E+04</rscale>
<asrwt>0</asrwt>
<pdfrwt beam="1">  1        3 0.75988148E-01 0.13129907E+04</pdfrwt>
<pdfrwt beam="2">  1       -4 0.13424272E+00 0.13129907E+04</pdfrwt>
<totfact> 0.14556050E+00</totfact>
</mgrwt>
</event>
<event>
12    4  0.4207946E-008  0.3516530E+04  0.7818608E-02  0.8109884E-01
         -2   -1    0    0    0  501 -0.00000000000E+00  0.00000000000E+00  0.74320651302E+03  0.74320651302E+03  0.00000000000E+00 0.  1.
          1   -1    0    0  501    0  0.00000000000E+00 -0.00000000000E+00 -0.41596725548E+04  0.41596725548E+04  0.00000000000E+00 0. -1.
        -24    2    1    2    0    0 -0.12709572507E+04  0.66682145122E+03 -0.48882572178E+03  0.15184298512E+04  0.81825703995E+02 0.  0.
        254    2    1    2    0    0  0.12709572507E+04 -0.66682145122E+03 -0.29276403200E+04  0.33844492166E+04  0.90743345523E+03 0.  0.
         23    2    4    4    0    0  0.36605850714E+03  0.14429951545E+03 -0.12301024729E+04  0.12946425208E+04  0.90144228356E+02 0.  0.
         23    2    4    4    0    0  0.90489874355E+03 -0.81112096667E+03 -0.16975378471E+04  0.20898066959E+04  0.94330933837E+02 0.  0.
          1    1    3    3  502    0 -0.54737683755E+03  0.28404328665E+03 -0.25282563023E+03  0.66650040532E+03  0.00000000000E+00 0. -1.
         -2    1    3    3    0  502 -0.72358041314E+03  0.38277816457E+03 -0.23600009154E+03  0.85192944588E+03  0.00000000000E+00 0.  1.
         11    1    5    5    0    0  0.18501595972E+03  0.72942026271E+02 -0.76595166332E+03  0.79134909812E+03  0.00000000000E+00 0. -1.
        -11    1    5    5    0    0  0.18104254742E+03  0.71357489175E+02 -0.46415080959E+03  0.50329342265E+03  0.00000000000E+00 0.  1.
          4    1    6    6  503    0  0.12460225707E+02 -0.56840501496E+00 -0.26304167024E+02  0.29111673119E+02  0.00000000000E+00 0.  1.
         -4    1    6    6    0  503  0.89243851784E+03 -0.81055256165E+03 -0.16712336801E+04  0.20606950227E+04  0.00000000000E+00 0. -1.
<mgrwt>
<rscale>  0 0.35165300E+04</rscale>
<asrwt>0</asrwt>
<pdfrwt beam="1">  1        1 0.63994963E+00 0.35165300E+04</pdfrwt>
<pdfrwt beam="2">  1       -2 0.11433946E+00 0.35165300E+04</pdfrwt>
<totfact> 0.29501583E-02</totfact>
</mgrwt>
</event>
<event>
12    4  0.4207946E-008  0.2188439E+04  0.7818608E-02  0.8523256E-01
         -2   -1    0    0    0  501 -0.00000000000E+00  0.00000000000E+00  0.36131856393E+04  0.36131856393E+04  0.00000000000E+00 0.  1.
          1   -1    0    0  501    0  0.00000000000E+00 -0.00000000000E+00 -0.33137408313E+03  0.33137408313E+03  0.00000000000E+00 0. -1.
        -24    2    1    2    0    0 -0.57764120855E+03 -0.58145206964E+03  0.20700649569E+04  0.22278964732E+04  0.81227424978E+02 0.  0.
        254    2    1    2    0    0  0.57764120855E+03  0.58145206964E+03  0.12117465993E+04  0.17166632492E+04  0.89824663382E+03 0.  0.
         23    2    4    4    0    0  0.41963631462E+03 -0.15416092963E+03  0.51182833813E+03  0.68499916916E+03  0.85996425896E+02 0.  0.
         23    2    4    4    0    0  0.15800489393E+03  0.73561299927E+03  0.69991826116E+03  0.10316640800E+04  0.91395681208E+02 0.  0.
          1    1    3    3  502    0 -0.12848706694E+03 -0.84912492554E+02  0.37613514405E+03  0.40644397443E+03  0.00000000000E+00 0. -1.
         -2    1    3    3    0  502 -0.44915414161E+03 -0.49653957709E+03  0.16939298128E+04  0.18214524988E+04  0.00000000000E+00 0.  1.
         11    1    5    5    0    0  0.64283946050E+02  0.76923126926E+01  0.69877574341E+02  0.95260027242E+02  0.00000000000E+00 0.  1.
        -11    1    5    5    0    0  0.35535236857E+03 -0.16185324232E+03  0.44195076379E+03  0.58973914192E+03  0.00000000000E+00 0. -1.
          1    1    6    6  503    0  0.10282454583E+03  0.44198637989E+03  0.48100711794E+03  0.66128110115E+03  0.00000000000E+00 0. -1.
         -1    1    6    6    0  503  0.55180348099E+02  0.29362661938E+03  0.21891114322E+03  0.37038297889E+03  0.00000000000E+00 0.  1.
<mgrwt>
<rscale>  0 0.21884388E+04</rscale>
<asrwt>0</asrwt>
<pdfrwt beam="1">  1        1 0.50980631E-01 0.21884388E+04</pdfrwt>
<pdfrwt beam="2">  1       -2 0.55587469E+00 0.21884388E+04</pdfrwt>
<totfact> 0.48325952E-02</totfact>
</mgrwt>
</event>
<event>
12    4  0.4207946E-008  0.1950898E+04  0.7818608E-02  0.8629928E-01
          1   -1    0    0  501    0  0.00000000000E+00  0.00000000000E+00  0.56132137112E+03  0.56132137112E+03  0.00000000000E+00 0. -1.
         -2   -1    0    0    0  501 -0.00000000000E+00 -0.00000000000E+00 -0.16951093651E+04  0.16951093651E+04  0.00000000000E+00 0.  1.
        -24    2    1    2    0    0 -0.41343671345E+03 -0.27495517700E+03 -0.11037630253E+04  0.12127414982E+04  0.76934128852E+02 0.  0.
        254    2    1    2    0    0  0.41343671345E+03  0.27495517700E+03 -0.30024968703E+02  0.10436892380E+04  0.91752681778E+03 0.  0.
         23    2    4    4    0    0  0.19314301100E+03 -0.17183521073E+03  0.32436070104E+03  0.42500947374E+03  0.92691024631E+02 0.  0.
         23    2    4    4    0    0  0.22029370245E+03  0.44679038773E+03 -0.35438566974E+03  0.61867976424E+03  0.94997272906E+02 0.  0.
          1    1    3    3  502    0 -0.33797750919E+02 -0.13225350237E+02 -0.13564775094E+03  0.14041905210E+03  0.00000000000E+00 0. -1.
         -4    1    3    3    0  502 -0.37963896253E+03 -0.26172982676E+03 -0.96811527433E+03  0.10723224461E+04  0.00000000000E+00 0.  1.
         11    1    5    5    0    0  0.15152543634E+02  0.92012161377E+01  0.82015843932E+01  0.19532740298E+02  0.00000000000E+00 0. -1.
        -11    1    5    5    0    0  0.17799046736E+03 -0.18103642687E+03  0.31615911664E+03  0.40547673344E+03  0.00000000000E+00 0.  1.
          2    1    6    6  503    0  0.12161898121E+03  0.33700791523E+03 -0.23101580697E+03  0.42630249188E+03  0.00000000000E+00 0.  1.
         -2    1    6    6    0  503  0.98674721239E+02  0.10978247250E+03 -0.12336986277E+03  0.19237727236E+03  0.00000000000E+00 0. -1.
<mgrwt>
<rscale>  0 0.19508984E+04</rscale>
<asrwt>0</asrwt>
<pdfrwt beam="1">  1        1 0.86357134E-01 0.19508984E+04</pdfrwt>
<pdfrwt beam="2">  1       -2 0.26078606E+00 0.19508984E+04</pdfrwt>
<totfact> 0.16960597E+00</totfact>
</mgrwt>
</event>
<event>
12    4  0.4207946E-008  0.1634066E+04  0.7818608E-02  0.8799889E-01
          1   -1    0    0  501    0  0.00000000000E+00  0.00000000000E+00  0.20098207914E+04  0.20098207914E+04  0.00000000000E+00 0. -1.
         -2   -1    0    0    0  501 -0.00000000000E+00 -0.00000000000E+00 -0.33214051979E+03  0.33214051979E+03  0.00000000000E+00 0.  1.
        -24    2    1    2    0    0 -0.32703185459E+03 -0.17432853293E+03  0.11929886876E+04  0.12518097188E+04  0.80407039161E+02 0.  0.
        254    2    1    2    0    0  0.32703185459E+03  0.17432853293E+03  0.48469158396E+03  0.10901515924E+04  0.90341811555E+03 0.  0.
         23    2    4    4    0    0  0.22556043705E+03 -0.13516271608E+03  0.65450472881E+03  0.71190159446E+03  0.96337788934E+02 0.  0.
         23    2    4    4    0    0  0.10147141754E+03  0.30949124902E+03 -0.16981314484E+03  0.37824999793E+03  0.90306561080E+02 0.  0.
          1    1    3    3  502    0 -0.16242685670E+03 -0.69193768456E+02  0.69003854082E+03  0.71226641728E+03  0.00000000000E+00 0. -1.
         -2    1    3    3    0  502 -0.16460499789E+03 -0.10513476448E+03  0.50295014682E+03  0.53954330152E+03  0.00000000000E+00 0.  1.
         11    1    5    5    0    0  0.72387165640E+02  0.25915037150E+01  0.13856560912E+03  0.15635551053E+03  0.00000000000E+00 0.  1.
        -11    1    5    5    0    0  0.15317327141E+03 -0.13775421980E+03  0.51593911969E+03  0.55554608393E+03  0.00000000000E+00 0. -1.
          4    1    6    6  503    0  0.11134567862E+03  0.20817348466E+03 -0.11418968789E+03  0.26224672482E+03  0.00000000000E+00 0. -1.
         -4    1    6    6    0  503 -0.98742610764E+01  0.10131776436E+03 -0.55623456959E+02  0.11600327310E+03  0.00000000000E+00 0.  1.
<mgrwt>
<rscale>  0 0.16340660E+04</rscale>
<asrwt>0</asrwt>
<pdfrwt beam="1">  1        1 0.30920319E+00 0.16340660E+04</pdfrwt>
<pdfrwt beam="2">  1       -2 0.51098543E-01 0.16340660E+04</pdfrwt>
<totfact> 0.89266674E+00</totfact>
</mgrwt>
</event>
<event>
12    4  0.4207946E-008  0.1417918E+04  0.7818608E-02  0.8940950E-01
          1   -1    0    0  501    0  0.00000000000E+00  0.00000000000E+00  0.16630223306E+04  0.16630223306E+04  0.00000000000E+00 0. -1.
         -2   -1    0    0    0  501 -0.00000000000E+00 -0.00000000000E+00 -0.30223458027E+03  0.30223458027E+03  0.00000000000E+00 0.  1.
        -24    2    1    2    0    0  0.89467654426E+02 -0.71054427744E+02 -0.14141244610E+03  0.20023924353E+03  0.83934985839E+02 0.  0.
        254    2    1    2    0    0 -0.89467654426E+02  0.71054427744E+02  0.15022001964E+04  0.17650176673E+04  0.91958074301E+03 0.  0.
         23    2    4    4    0    0 -0.22584195181E+03 -0.32059295488E+03  0.33698145372E+03  0.52492115495E+03  0.90560967528E+02 0.  0.
         23    2    4    4    0    0  0.13637429739E+03  0.39164738262E+03  0.11652187427E+04  0.12400965123E+04  0.90105606729E+02 0.  0.
          1    1    3    3  502    0  0.22388212921E+02  0.18728882494E+02 -0.22666431270E+02  0.36956328602E+02  0.00000000000E+00 0. -1.
         -2    1    3    3    0  502  0.67079441505E+02 -0.89783310238E+02 -0.11874601483E+03  0.16328291493E+03  0.00000000000E+00 0.  1.
         11    1    5    5    0    0 -0.15362364773E+02 -0.13042215395E+02  0.52002860552E+02  0.55770952470E+02  0.00000000000E+00 0.  1.
        -11    1    5    5    0    0 -0.21047958704E+03 -0.30755073948E+03  0.28497859317E+03  0.46915020248E+03  0.00000000000E+00 0. -1.
          4    1    6    6  503    0 -0.67426229469E+00  0.12115802482E+03  0.33217189040E+03  0.35357868485E+03  0.00000000000E+00 0. -1.
         -4    1    6    6    0  503  0.13704855968E+03  0.27048935781E+03  0.83304685226E+03  0.88651782749E+03  0.00000000000E+00 0.  1.
<mgrwt>
<rscale>  0 0.14179180E+04</rscale>
<asrwt>0</asrwt>
<pdfrwt beam="1">  1        1 0.25584958E+00 0.14179180E+04</pdfrwt>
<pdfrwt beam="2">  1       -2 0.46497629E-01 0.14179180E+04</pdfrwt>
<totfact> 0.18931446E+01</totfact>
</mgrwt>
</event>
<event>
12    4  0.4207946E-008  0.1844880E+04  0.7818608E-02  0.8682790E-01
         -2   -1    0    0    0  501 -0.00000000000E+00  0.00000000000E+00  0.18320016629E+04  0.18320016629E+04  0.00000000000E+00 0.  1.
          1   -1    0    0  501    0  0.00000000000E+00 -0.00000000000E+00 -0.46446215462E+03  0.46446215462E+03  0.00000000000E+00 0. -1.
        -24    2    1    2    0    0  0.20859058037E+03 -0.56876996892E+03  0.67924095948E+02  0.61490934858E+03  0.80563741229E+02 0.  0.
        254    2    1    2    0    0 -0.20859058037E+03  0.56876996892E+03  0.12996154123E+04  0.16815544689E+04  0.87841670310E+03 0.  0.
         23    2    4    4    0    0 -0.12606694397E+03  0.77574280564E+03  0.78916237352E+03  0.11171920788E+04  0.87584898021E+02 0.  0.
         23    2    4    4    0    0 -0.82523636405E+02 -0.20697283672E+03  0.51045303880E+03  0.56436239010E+03  0.91075226214E+02 0.  0.
          3    1    3    3  502    0  0.15894680959E+03 -0.46933853999E+03  0.26251277665E+02  0.49621757625E+03  0.00000000000E+00 0. -1.
         -4    1    3    3    0  502  0.49643770780E+02 -0.99431428925E+02  0.41672818283E+02  0.11869177233E+03  0.00000000000E+00 0.  1.
         11    1    5    5    0    0 -0.30892323577E+02  0.44959480486E+03  0.46701690896E+03  0.64899508277E+03  0.00000000000E+00 0. -1.
        -11    1    5    5    0    0 -0.95174620388E+02  0.32614800078E+03  0.32214546456E+03  0.46819699606E+03  0.00000000000E+00 0.  1.
          3    1    6    6  503    0  0.43541257453E+01 -0.93895181120E+02  0.25547853701E+03  0.27222150231E+03  0.00000000000E+00 0. -1.
         -3    1    6    6    0  503 -0.86877762151E+02 -0.11307765560E+03  0.25497450179E+03  0.29214088779E+03  0.00000000000E+00 0.  1.
<mgrwt>
<rscale>  0 0.18448799E+04</rscale>
<asrwt>0</asrwt>
<pdfrwt beam="1">  1        1 0.71455717E-01 0.18448799E+04</pdfrwt>
<pdfrwt beam="2">  1       -2 0.28184640E+00 0.18448799E+04</pdfrwt>
<totfact> 0.16567559E+00</totfact>
</mgrwt>
</event>
<event>
12    4  0.4207946E-008  0.1157459E+04  0.7818608E-02  0.9150930E-01
          1   -1    0    0  501    0  0.00000000000E+00  0.00000000000E+00  0.50431408710E+03  0.50431408710E+03  0.00000000000E+00 0. -1.
         -2   -1    0    0    0  501 -0.00000000000E+00 -0.00000000000E+00 -0.66412521592E+03  0.66412521592E+03  0.00000000000E+00 0.  1.
        -24    2    1    2    0    0  0.15892413673E+03 -0.10049333513E+03 -0.97992822608E+02  0.22658923614E+03  0.79901796057E+02 0.  0.
        254    2    1    2    0    0 -0.15892413673E+03  0.10049333513E+03 -0.61818306216E+02  0.94185006688E+03  0.92081716636E+03 0.  0.
         23    2    4    4    0    0 -0.70479011461E+01  0.79022640022E+02 -0.47608805738E+03  0.49078912031E+03  0.88993660942E+02 0.  0.
         23    2    4    4    0    0 -0.15187623558E+03  0.21470695103E+02  0.41426975116E+03  0.45106094657E+03  0.91154643917E+02 0.  0.
          1    1    3    3  502    0  0.42536859778E+02  0.14341892610E+01  0.16064179909E+01  0.42591336177E+02  0.00000000000E+00 0. -1.
         -2    1    3    3    0  502  0.11638727695E+03 -0.10192752439E+03 -0.99599240599E+02  0.18399789997E+03  0.00000000000E+00 0.  1.
         11    1    5    5    0    0 -0.32722854264E+02  0.86496966690E+02 -0.36798802936E+03  0.37943075810E+03  0.00000000000E+00 0.  1.
        -11    1    5    5    0    0  0.25674953118E+02 -0.74743266676E+01 -0.10810002802E+03  0.11135836221E+03  0.00000000000E+00 0. -1.
          1    1    6    6  503    0 -0.10985362920E+03  0.23369122684E+02  0.17373933753E+03  0.20687990030E+03  0.00000000000E+00 0. -1.
         -1    1    6    6    0  503 -0.42022606387E+02 -0.18984275813E+01  0.24053041363E+03  0.24418104627E+03  0.00000000000E+00 0.  1.
<mgrwt>
<rscale>  0 0.11574588E+04</rscale>
<asrwt>0</asrwt>
<pdfrwt beam="1">  1        1 0.77586783E-01 0.11574588E+04</pdfrwt>
<pdfrwt beam="2">  1       -2 0.10217311E+00 0.11574588E+04</pdfrwt>
<totfact> 0.29840430E+01</totfact>
</mgrwt>
</event>
<event>
12    4  0.4207946E-008  0.2444324E+04  0.7818608E-02  0.8423093E-01
          1   -1    0    0  501    0  0.00000000000E+00  0.00000000000E+00  0.10700955158E+04  0.10700955158E+04  0.00000000000E+00 0. -1.
         -2   -1    0    0    0  501 -0.00000000000E+00 -0.00000000000E+00 -0.13958377211E+04  0.13958377211E+04  0.00000000000E+00 0.  1.
        -24    2    1    2    0    0 -0.67107748374E+03 -0.12126639036E+03 -0.95386231496E+03  0.11746134422E+04  0.69375039394E+02 0.  0.
        254    2    1    2    0    0  0.67107748374E+03  0.12126639036E+03  0.62812010973E+03  0.12913197947E+04  0.89884448782E+03 0.  0.
         23    2    4    4    0    0  0.16506055383E+03 -0.21810658345E+02 -0.21964499756E+03  0.28964697396E+03  0.89054777093E+02 0.  0.
         23    2    4    4    0    0  0.50601692991E+03  0.14307704871E+03  0.84776510728E+03  0.10016728207E+04  0.90103204371E+02 0.  0.
          3    1    3    3  502    0 -0.49896277343E+03 -0.99800156106E+02 -0.65999503118E+03  0.83337708249E+03  0.00000000000E+00 0. -1.
         -4    1    3    3    0  502 -0.17211471031E+03 -0.21466234257E+02 -0.29386728378E+03  0.34123635972E+03  0.00000000000E+00 0.  1.
         11    1    5    5    0    0  0.16245781714E+03 -0.25021018396E+01 -0.21522696196E+03  0.26966914547E+03  0.00000000000E+00 0. -1.
        -11    1    5    5    0    0  0.26027366961E+01 -0.19308556506E+02 -0.44180355925E+01  0.19977828489E+02  0.00000000000E+00 0.  1.
          3    1    6    6  503    0  0.43754291317E+03  0.14588722948E+03  0.69347264573E+03  0.83284524070E+03  0.00000000000E+00 0. -1.
         -3    1    6    6    0  503  0.68474016740E+02 -0.28101807704E+01  0.15429246155E+03  0.16882758002E+03  0.00000000000E+00 0.  1.
<mgrwt>
<rscale>  0 0.24443238E+04</rscale>
<asrwt>0</asrwt>
<pdfrwt beam="1">  1        1 0.16463008E+00 0.24443238E+04</pdfrwt>
<pdfrwt beam="2">  1       -2 0.21474426E+00 0.24443238E+04</pdfrwt>
<totfact> 0.11164766E+00</totfact>
</mgrwt>
</event>
<event>
12    4  0.4207946E-008  0.2236275E+04  0.7818608E-02  0.8503479E-01
          1   -1    0    0  501    0  0.00000000000E+00  0.00000000000E+00  0.18818165304E+04  0.18818165304E+04  0.00000000000E+00 0. -1.
         -2   -1    0    0    0  501 -0.00000000000E+00 -0.00000000000E+00 -0.66437508136E+03  0.66437508136E+03  0.00000000000E+00 0.  1.
        -24    2    1    2    0    0  0.57811130039E+03  0.27774638076E+03 -0.26298200254E+03  0.69788300907E+03  0.80780152421E+02 0.  0.
        254    2    1    2    0    0 -0.57811130039E+03 -0.27774638076E+03  0.14804234516E+04  0.18483086027E+04  0.90179563490E+03 0.  0.
         23    2    4    4    0    0 -0.24411260115E+03 -0.61717316764E+02  0.14088111974E+04  0.14339945259E+04  0.90505917877E+02 0.  0.
         23    2    4    4    0    0 -0.33399869924E+03 -0.21602906400E+03  0.71612254198E+02  0.41431407680E+03  0.91127118332E+02 0.  0.
          1    1    3    3  502    0  0.87326278429E+02  0.34928814384E+02 -0.96300833497E+01  0.94544378383E+02  0.00000000000E+00 0. -1.
         -2    1    3    3    0  502  0.49078502196E+03  0.24281756638E+03 -0.25335191919E+03  0.60333863069E+03  0.00000000000E+00 0.  1.
         11    1    5    5    0    0  0.21119091461E+01  0.91061573359E+01  0.25558093927E+02  0.27213938099E+02  0.00000000000E+00 0.  1.
        -11    1    5    5    0    0 -0.24622451030E+03 -0.70823474100E+02  0.13832531035E+04  0.14067805878E+04  0.00000000000E+00 0. -1.
          4    1    6    6  503    0 -0.10559339282E+03 -0.86642263399E+02 -0.16112182742E+02  0.13753708172E+03  0.00000000000E+00 0. -1.
         -4    1    6    6    0  503 -0.22840530642E+03 -0.12938680060E+03  0.87724436941E+02  0.27677699508E+03  0.00000000000E+00 0.  1.
<mgrwt>
<rscale>  0 0.22362755E+04</rscale>
<asrwt>0</asrwt>
<pdfrwt beam="1">  1        1 0.28951023E+00 0.22362755E+04</pdfrwt>
<pdfrwt beam="2">  1       -2 0.10221155E+00 0.22362755E+04</pdfrwt>
<totfact> 0.22435693E+00</totfact>
</mgrwt>
</event>
<event>
12    4  0.4207946E-008  0.1404378E+04  0.7818608E-02  0.8950655E-01
          1   -1    0    0  501    0  0.00000000000E+00  0.00000000000E+00  0.16776804640E+04  0.16776804640E+04  0.00000000000E+00 0. -1.
         -2   -1    0    0    0  501 -0.00000000000E+00 -0.00000000000E+00 -0.29389960111E+03  0.29389960111E+03  0.00000000000E+00 0.  1.
        -24    2    1    2    0    0 -0.39714843568E+02 -0.12295247274E+03 -0.83439423759E+02  0.17257245283E+03  0.78259406382E+02 0.  0.
        254    2    1    2    0    0  0.39714843568E+02  0.12295247274E+03  0.14672202866E+04  0.17990076123E+04  0.10329561656E+04 0.  0.
         23    2    4    4    0    0  0.13653895654E+01  0.52794577621E+03  0.44978386332E+03  0.69941176108E+03  0.90236804744E+02 0.  0.
         23    2    4    4    0    0  0.38349454002E+02 -0.40499330347E+03  0.10174364233E+04  0.10995958512E+04  0.91890717638E+02 0.  0.
          3    1    3    3  502    0  0.10358445523E+02  0.10751835131E+01  0.56657382888E+01  0.11855547377E+02  0.00000000000E+00 0. -1.
         -4    1    3    3    0  502 -0.50073289091E+02 -0.12402765625E+03 -0.89105162048E+02  0.16071690546E+03  0.00000000000E+00 0.  1.
         11    1    5    5    0    0  0.26575308810E+02  0.34290707983E+03  0.24507652512E+03  0.42231980252E+03  0.00000000000E+00 0.  1.
        -11    1    5    5    0    0 -0.25209919245E+02  0.18503869638E+03  0.20470733820E+03  0.27709195856E+03  0.00000000000E+00 0. -1.
          1    1    6    6  503    0  0.46474978692E+02 -0.20391659193E+03  0.42030497303E+03  0.46946583524E+03  0.00000000000E+00 0. -1.
         -1    1    6    6    0  503 -0.81255246897E+01 -0.20107671154E+03  0.59713145027E+03  0.63013001593E+03  0.00000000000E+00 0.  1.
<mgrwt>
<rscale>  0 0.14043783E+04</rscale>
<asrwt>0</asrwt>
<pdfrwt beam="1">  1        1 0.25810468E+00 0.14043783E+04</pdfrwt>
<pdfrwt beam="2">  1       -2 0.45215324E-01 0.14043783E+04</pdfrwt>
<totfact> 0.19590569E+01</totfact>
</mgrwt>
</event>
<event>
12    4  0.4207946E-008  0.1340275E+04  0.7818608E-02  0.8998223E-01
          1   -1    0    0  501    0  0.00000000000E+00  0.00000000000E+00  0.17266185194E+04  0.17266185194E+04  0.00000000000E+00 0. -1.
         -2   -1    0    0    0  501 -0.00000000000E+00 -0.00000000000E+00 -0.26009460187E+03  0.26009460187E+03  0.00000000000E+00 0.  1.
        -24    2    1    2    0    0  0.26160559979E+03 -0.16006847299E+03  0.72223083001E+03  0.78867837292E+03  0.79604008727E+02 0.  0.
        254    2    1    2    0    0 -0.26160559979E+03  0.16006847299E+03  0.74429308757E+03  0.11980347484E+04  0.88727428243E+03 0.  0.
         23    2    4    4    0    0 -0.18271120635E+03 -0.32836693300E+03  0.13931609263E+03  0.41108921436E+03  0.91526722238E+02 0.  0.
         23    2    4    4    0    0 -0.78894393441E+02  0.48843540599E+03  0.60497699493E+03  0.78694553403E+03  0.92155509814E+02 0.  0.
          1    1    3    3  502    0  0.95243760951E+02 -0.80090923722E+02  0.37976425824E+03  0.39963335934E+03  0.00000000000E+00 0. -1.
         -2    1    3    3    0  502  0.16636183884E+03 -0.79977549267E+02  0.34246657178E+03  0.38904501358E+03  0.00000000000E+00 0.  1.
         11    1    5    5    0    0 -0.10538295853E+03 -0.25821949549E+03  0.12529333858E+03  0.30574711199E+03  0.00000000000E+00 0. -1.
        -11    1    5    5    0    0 -0.77328247822E+02 -0.70147437516E+02  0.14022754055E+02  0.10534210237E+03  0.00000000000E+00 0.  1.
          3    1    6    6  503    0 -0.90955695362E+02  0.46675160082E+03  0.55294247157E+03  0.72929786251E+03  0.00000000000E+00 0. -1.
         -3    1    6    6    0  503  0.12061301920E+02  0.21683805170E+02  0.52034523363E+02  0.57647671525E+02  0.00000000000E+00 0.  1.
<mgrwt>
<rscale>  0 0.13402748E+04</rscale>
<asrwt>0</asrwt>
<pdfrwt beam="1">  1        1 0.26563361E+00 0.13402748E+04</pdfrwt>
<pdfrwt beam="2">  1       -2 0.40014555E-01 0.13402748E+04</pdfrwt>
<totfact> 0.23230613E+01</totfact>
</mgrwt>
</event>
<event>
12    4  0.4207946E-008  0.1269239E+04  0.7818608E-02  0.9054321E-01
         -2   -1    0    0    0  501 -0.00000000000E+00  0.00000000000E+00  0.11059072254E+03  0.11059072254E+03  0.00000000000E+00 0.  1.
          1   -1    0    0  501    0  0.00000000000E+00 -0.00000000000E+00 -0.36417335672E+04  0.36417335672E+04  0.00000000000E+00 0. -1.
        -24    2    1    2    0    0 -0.12856908264E+03  0.23425500480E+03 -0.43168376507E+03  0.51383967919E+03  0.79214434323E+02 0.  0.
        254    2    1    2    0    0  0.12856908264E+03 -0.23425500480E+03 -0.30994590796E+04  0.32384846105E+04  0.89985030441E+03 0.  0.
         23    2    4    4    0    0  0.33198674888E+03  0.17598031104E+03 -0.76335756319E+03  0.85603315641E+03  0.94306544233E+02 0.  0.
         23    2    4    4    0    0 -0.20341766624E+03 -0.41023531584E+03 -0.23361015164E+04  0.23824514541E+04  0.95041438621E+02 0.  0.
          3    1    3    3  502    0 -0.22351136509E+02  0.63943205393E+02 -0.17733113707E+03  0.18982791943E+03  0.00000000000E+00 0. -1.
         -4    1    3    3    0  502 -0.10621794613E+03  0.17031179940E+03 -0.25435262800E+03  0.32401175976E+03  0.00000000000E+00 0.  1.
         11    1    5    5    0    0  0.13624986460E+03  0.97319060368E+02 -0.24860607645E+03  0.29973322532E+03  0.00000000000E+00 0. -1.
        -11    1    5    5    0    0  0.19573688428E+03  0.78661250673E+02 -0.51475148674E+03  0.55629993108E+03  0.00000000000E+00 0.  1.
          1    1    6    6  503    0 -0.21084151971E+03 -0.38125730387E+03 -0.21213262768E+04  0.21656030225E+04  0.00000000000E+00 0. -1.
         -1    1    6    6    0  503  0.74238534679E+01 -0.28978011965E+02 -0.21477523958E+03  0.21684843166E+03  0.00000000000E+00 0.  1.
<mgrwt>
<rscale>  0 0.12692391E+04</rscale>
<asrwt>0</asrwt>
<pdfrwt beam="1">  1        1 0.56026657E+00 0.12692391E+04</pdfrwt>
<pdfrwt beam="2">  1       -2 0.17013961E-01 0.12692391E+04</pdfrwt>
<totfact> 0.48177312E+00</totfact>
</mgrwt>
</event>
<event>
12    4  0.4207946E-008  0.1594096E+04  0.7818608E-02  0.8824184E-01
          1   -1    0    0  501    0  0.00000000000E+00  0.00000000000E+00  0.50275063559E+04  0.50275063559E+04  0.00000000000E+00 0. -1.
         -2   -1    0    0    0  501 -0.00000000000E+00 -0.00000000000E+00 -0.12636187590E+03  0.12636187590E+03  0.00000000000E+00 0.  1.
        -24    2    1    2    0    0 -0.18629165861E+03  0.12179421576E+02  0.32787570853E+04  0.32851137641E+04  0.82894497189E+02 0.  0.
        254    2    1    2    0    0  0.18629165861E+03 -0.12179421576E+02  0.16223873947E+04  0.18687544678E+04  0.90843243118E+03 0.  0.
         23    2    4    4    0    0  0.10865493837E+03 -0.14108362453E+03  0.16737043979E+04  0.16856502502E+04  0.91759847319E+02 0.  0.
         23    2    4    4    0    0  0.77636720244E+02  0.12890420295E+03 -0.51317003239E+02  0.18310421759E+03  0.90829322405E+02 0.  0.
          3    1    3    3  502    0 -0.15489639143E+03  0.50733686797E-01  0.20291329147E+04  0.20350364322E+04  0.00000000000E+00 0. -1.
         -4    1    3    3    0  502 -0.31395267183E+02  0.12128687889E+02  0.12496241706E+04  0.12500773319E+04  0.00000000000E+00 0.  1.
         11    1    5    5    0    0  0.87927534711E+00  0.85132341253E+01  0.20766382515E+02  0.22460875387E+02  0.00000000000E+00 0. -1.
        -11    1    5    5    0    0  0.10777566302E+03 -0.14959685865E+03  0.16529380154E+04  0.16631893748E+04  0.00000000000E+00 0.  1.
          4    1    6    6  503    0 -0.66805676157E+01  0.48454300592E+02  0.12155182189E+02  0.50400373844E+02  0.00000000000E+00 0. -1.
         -4    1    6    6    0  503  0.84317287860E+02  0.80449902357E+02 -0.63472185428E+02  0.13270384374E+03  0.00000000000E+00 0.  1.
<mgrwt>
<rscale>  0 0.15940955E+04</rscale>
<asrwt>0</asrwt>
<pdfrwt beam="1">  1        1 0.77346236E+00 0.15940955E+04</pdfrwt>
<pdfrwt beam="2">  1       -2 0.19440292E-01 0.15940955E+04</pdfrwt>
<totfact> 0.15698225E-01</totfact>
</mgrwt>
</event>
<event>
12    4  0.4207946E-008  0.1710410E+04  0.7818608E-02  0.8755449E-01
          1   -1    0    0  501    0  0.00000000000E+00  0.00000000000E+00  0.22804342799E+04  0.22804342799E+04  0.00000000000E+00 0. -1.
         -2   -1    0    0    0  501 -0.00000000000E+00 -0.00000000000E+00 -0.32071771993E+03  0.32071771993E+03  0.00000000000E+00 0.  1.
        -24    2    1    2    0    0 -0.29447909367E+02 -0.58373252748E+03  0.41095157739E+03  0.71953009033E+03  0.85038279207E+02 0.  0.
        254    2    1    2    0    0  0.29447909367E+02  0.58373252748E+03  0.15487649825E+04  0.18816219095E+04  0.89454859902E+03 0.  0.
         23    2    4    4    0    0  0.78030463003E+02  0.70665074805E+03  0.64730252923E+03  0.96598303955E+03  0.93159194184E+02 0.  0.
         23    2    4    4    0    0 -0.48582553636E+02 -0.12291822057E+03  0.90146245331E+03  0.91563886991E+03  0.91054005425E+02 0.  0.
          3    1    3    3  502    0 -0.44844108622E+01 -0.32114048277E+03  0.27479440087E+03  0.42268579626E+03  0.00000000000E+00 0. -1.
         -4    1    3    3    0  502 -0.24963498504E+02 -0.26259204471E+03  0.13615717652E+03  0.29684429407E+03  0.00000000000E+00 0.  1.
         11    1    5    5    0    0  0.89055104585E+02  0.56150043764E+03  0.47852095847E+03  0.74309882305E+03  0.00000000000E+00 0. -1.
        -11    1    5    5    0    0 -0.11024641583E+02  0.14515031042E+03  0.16878157076E+03  0.22288421650E+03  0.00000000000E+00 0.  1.
          3    1    6    6  503    0  0.12058452315E+02 -0.62755186369E+01  0.28454395810E+03  0.28486848281E+03  0.00000000000E+00 0. -1.
         -3    1    6    6    0  503 -0.60641005951E+02 -0.11664270194E+03  0.61691849521E+03  0.63077038711E+03  0.00000000000E+00 0.  1.
<mgrwt>
<rscale>  0 0.17104101E+04</rscale>
<asrwt>0</asrwt>
<pdfrwt beam="1">  1        1 0.35083603E+00 0.17104101E+04</pdfrwt>
<pdfrwt beam="2">  1       -2 0.49341189E-01 0.17104101E+04</pdfrwt>
<totfact> 0.62361337E+00</totfact>
</mgrwt>
</event>
<event>
12    4  0.4207946E-008  0.1310085E+04  0.7818608E-02  0.9021606E-01
         -2   -1    0    0    0  501 -0.00000000000E+00  0.00000000000E+00  0.27176959207E+03  0.27176959207E+03  0.00000000000E+00 0.  1.
          1   -1    0    0  501    0  0.00000000000E+00 -0.00000000000E+00 -0.15788399640E+04  0.15788399640E+04  0.00000000000E+00 0. -1.
        -24    2    1    2    0    0  0.21389174541E+03  0.10515420799E+03 -0.69265268562E+03  0.73686537582E+03  0.79973451735E+02 0.  0.
        254    2    1    2    0    0 -0.21389174541E+03 -0.10515420799E+03 -0.61441768632E+03  0.11137441802E+04  0.89783624318E+03 0.  0.
         23    2    4    4    0    0  0.35974944594E+02  0.37135409020E+03 -0.25171964616E+03  0.45917518323E+03  0.91000064219E+02 0.  0.
         23    2    4    4    0    0 -0.24986669000E+03 -0.47650829818E+03 -0.36269804016E+03  0.65456899702E+03  0.86123066083E+02 0.  0.
          3    1    3    3  502    0  0.21554294176E+03  0.11089489640E+03 -0.64869892437E+03  0.69250756839E+03  0.00000000000E+00 0. -1.
         -4    1    3    3    0  502 -0.16511963559E+01 -0.57406884152E+01 -0.43953761243E+02  0.44357807433E+02  0.00000000000E+00 0.  1.
         11    1    5    5    0    0  0.13155029825E+02  0.31883084820E+03 -0.24334089119E+03  0.40129908285E+03  0.00000000000E+00 0. -1.
        -11    1    5    5    0    0  0.22819914769E+02  0.52523242003E+02 -0.83787549684E+01  0.57876100381E+02  0.00000000000E+00 0.  1.
          2    1    6    6  503    0 -0.69076528839E+02 -0.82465202221E+02 -0.10447009601E+03  0.14995358407E+03  0.00000000000E+00 0.  1.
         -2    1    6    6    0  503 -0.18079016116E+03 -0.39404309596E+03 -0.25822794414E+03  0.50461541295E+03  0.00000000000E+00 0. -1.
<mgrwt>
<rscale>  0 0.13100850E+04</rscale>
<asrwt>0</asrwt>
<pdfrwt beam="1">  1        1 0.24289846E+00 0.13100850E+04</pdfrwt>
<pdfrwt beam="2">  1       -2 0.41810706E-01 0.13100850E+04</pdfrwt>
<totfact> 0.26949394E+01</totfact>
</mgrwt>
</event>
<event>
12    4  0.4207946E-008  0.2446293E+04  0.7818608E-02  0.8422373E-01
         -2   -1    0    0    0  501 -0.00000000000E+00  0.00000000000E+00  0.63813371817E+03  0.63813371817E+03  0.00000000000E+00 0.  1.
          1   -1    0    0  501    0  0.00000000000E+00 -0.00000000000E+00 -0.23444735322E+04  0.23444735322E+04  0.00000000000E+00 0. -1.
        -24    2    1    2    0    0 -0.83494444290E+03  0.14385151340E+03 -0.15031275903E+04  0.17272819883E+04  0.79278204601E+02 0.  0.
        254    2    1    2    0    0  0.83494444290E+03 -0.14385151340E+03 -0.20321222373E+03  0.12553252621E+04  0.90372607857E+03 0.  0.
         23    2    4    4    0    0 -0.70058466116E+02 -0.58850778082E+02 -0.30960469597E+03  0.33558838152E+03  0.91612724497E+02 0.  0.
         23    2    4    4    0    0  0.90500290902E+03 -0.85000735315E+02  0.10639247224E+03  0.91973688055E+03  0.91330066000E+02 0.  0.
          3    1    3    3  502    0 -0.60288102959E+03  0.82968576482E+02 -0.11354345294E+04  0.12882394541E+04  0.00000000000E+00 0. -1.
         -4    1    3    3    0  502 -0.23206341331E+03  0.60882936915E+02 -0.36769306090E+03  0.43904253421E+03  0.00000000000E+00 0.  1.
         11    1    5    5    0    0 -0.45414885111E+02  0.17213319148E+02 -0.97829391113E+02  0.10922179229E+03  0.00000000000E+00 0.  1.
        -11    1    5    5    0    0 -0.24643581005E+02 -0.76064097231E+02 -0.21177530486E+03  0.22636658923E+03  0.00000000000E+00 0. -1.
          3    1    6    6  503    0  0.66965195683E+03 -0.70488928562E+02  0.11818284488E+03  0.68364436453E+03  0.00000000000E+00 0. -1.
         -3    1    6    6    0  503  0.23535095219E+03 -0.14511806753E+02 -0.11790372633E+02  0.23609251602E+03  0.00000000000E+00 0.  1.
<mgrwt>
<rscale>  0 0.24462932E+04</rscale>
<asrwt>0</asrwt>
<pdfrwt beam="1">  1        1 0.36068824E+00 0.24462932E+04</pdfrwt>
<pdfrwt beam="2">  1       -2 0.98174418E-01 0.24462932E+04</pdfrwt>
<totfact> 0.11740598E+00</totfact>
</mgrwt>
</event>
<event>
12    4  0.4207946E-008  0.2372595E+04  0.7818608E-02  0.8449835E-01
          3   -1    0    0  501    0  0.00000000000E+00  0.00000000000E+00  0.48103228833E+03  0.48103228833E+03  0.00000000000E+00 0. -1.
         -4   -1    0    0    0  501 -0.00000000000E+00 -0.00000000000E+00 -0.29255862560E+04  0.29255862560E+04  0.00000000000E+00 0.  1.
        -24    2    1    2    0    0 -0.54710463597E+03  0.13728501304E+03 -0.22402819476E+04  0.23116810514E+04  0.82676605883E+02 0.  0.
        254    2    1    2    0    0  0.54710463597E+03 -0.13728501304E+03 -0.20427202003E+03  0.10949374929E+04  0.91596419017E+03 0.  0.
         23    2    4    4    0    0  0.13019026812E+03  0.14708051865E+02  0.34650287113E+03  0.38172122377E+03  0.92092455008E+02 0.  0.
         23    2    4    4    0    0  0.41691436785E+03 -0.15199306490E+03 -0.55077489116E+03  0.71321626912E+03  0.91678699375E+02 0.  0.
          3    1    3    3  502    0 -0.13285233817E+03  0.10395307318E+02 -0.42437126500E+03  0.44480195226E+03  0.00000000000E+00 0. -1.
         -4    1    3    3    0  502 -0.41425229780E+03  0.12688970572E+03 -0.18159106826E+04  0.18668790992E+04  0.00000000000E+00 0.  1.
         11    1    5    5    0    0  0.46224843234E+02  0.50234769221E+02  0.13083602751E+03  0.14757484293E+03  0.00000000000E+00 0.  1.
        -11    1    5    5    0    0  0.83965424889E+02 -0.35526717356E+02  0.21566684362E+03  0.23414638084E+03  0.00000000000E+00 0. -1.
          4    1    6    6  503    0  0.21737409520E+03 -0.30513246715E+02 -0.26942054045E+03  0.34751975930E+03  0.00000000000E+00 0. -1.
         -4    1    6    6    0  503  0.19954027265E+03 -0.12147981819E+03 -0.28135435071E+03  0.36569650982E+03  0.00000000000E+00 0.  1.
<mgrwt>
<rscale>  0 0.23725947E+04</rscale>
<asrwt>0</asrwt>
<pdfrwt beam="1">  1        3 0.74004967E-01 0.23725947E+04</pdfrwt>
<pdfrwt beam="2">  1       -4 0.45009020E+00 0.23725947E+04</pdfrwt>
<totfact> 0.10496252E-02</totfact>
</mgrwt>
</event>
<event>
12    4  0.4207946E-008  0.1324091E+04  0.7818608E-02  0.9010676E-01
         -2   -1    0    0    0  501 -0.00000000000E+00  0.00000000000E+00  0.34555119515E+03  0.34555119515E+03  0.00000000000E+00 0.  1.
          1   -1    0    0  501    0  0.00000000000E+00 -0.00000000000E+00 -0.12684214601E+04  0.12684214601E+04  0.00000000000E+00 0. -1.
        -24    2    1    2    0    0 -0.59560381622E+02 -0.31004179057E+03 -0.68399310666E+02  0.33317893446E+03  0.81586676053E+02 0.  0.
        254    2    1    2    0    0  0.59560381622E+02  0.31004179057E+03 -0.85447095433E+03  0.12807937208E+04  0.90035470377E+03 0.  0.
         23    2    4    4    0    0 -0.38649039032E+03  0.27819796073E+03 -0.54272747541E+03  0.72801237428E+03  0.93166396139E+02 0.  0.
         23    2    4    4    0    0  0.44605077194E+03  0.31843829835E+02 -0.31174347892E+03  0.55278134657E+03  0.91694600798E+02 0.  0.
          1    1    3    3  502    0 -0.52085466747E+02 -0.26786832506E+03 -0.87093037927E+02  0.28644638708E+03  0.00000000000E+00 0. -1.
         -2    1    3    3    0  502 -0.74749148747E+01 -0.42173465508E+02  0.18693727262E+02  0.46732547377E+02  0.00000000000E+00 0.  1.
         11    1    5    5    0    0 -0.92979784715E+02  0.51068144206E+02 -0.18079726283E+03  0.20962071931E+03  0.00000000000E+00 0.  1.
        -11    1    5    5    0    0 -0.29351060561E+03  0.22712981653E+03 -0.36193021258E+03  0.51839165497E+03  0.00000000000E+00 0. -1.
          1    1    6    6  503    0  0.28302794042E+03 -0.23897274449E+02 -0.20124159166E+03  0.34810066504E+03  0.00000000000E+00 0. -1.
         -1    1    6    6    0  503  0.16302283152E+03  0.55741104284E+02 -0.11050188726E+03  0.20468068153E+03  0.00000000000E+00 0.  1.
<mgrwt>
<rscale>  0 0.13240915E+04</rscale>
<asrwt>0</asrwt>
<pdfrwt beam="1">  1        1 0.19514176E+00 0.13240915E+04</pdfrwt>
<pdfrwt beam="2">  1       -2 0.53161723E-01 0.13240915E+04</pdfrwt>
<totfact> 0.27350250E+01</totfact>
</mgrwt>
</event>
<event>
12    4  0.4207946E-008  0.1510128E+04  0.7818608E-02  0.8877746E-01
          1   -1    0    0  501    0  0.00000000000E+00  0.00000000000E+00  0.69160713032E+03  0.69160713032E+03  0.00000000000E+00 0. -1.
         -2   -1    0    0    0  501 -0.00000000000E+00 -0.00000000000E+00 -0.82434286090E+03  0.82434286090E+03  0.00000000000E+00 0.  1.
        -24    2    1    2    0    0  0.38576589888E+02  0.85980444664E+01 -0.52509390884E+03  0.53238368343E+03  0.78400852208E+02 0.  0.
        254    2    1    2    0    0 -0.38576589888E+02 -0.85980444664E+01  0.39235817826E+03  0.98356630779E+03  0.90105253017E+03 0.  0.
         23    2    4    4    0    0 -0.29361023074E+03 -0.23644582065E+03  0.48076574697E+03  0.61801675681E+03  0.93249206658E+02 0.  0.
         23    2    4    4    0    0  0.25503364086E+03  0.22784777619E+03 -0.88407568705E+02  0.36554955098E+03  0.94094680687E+02 0.  0.
          3    1    3    3  502    0  0.21688608535E+02  0.17330017542E+02 -0.52333968555E+02  0.59241619769E+02  0.00000000000E+00 0. -1.
         -4    1    3    3    0  502  0.16887981353E+02 -0.87319730753E+01 -0.47275994029E+03  0.47314206366E+03  0.00000000000E+00 0.  1.
         11    1    5    5    0    0 -0.22074244666E+03 -0.13270661966E+03  0.36218776369E+03  0.44443025417E+03  0.00000000000E+00 0. -1.
        -11    1    5    5    0    0 -0.72867784089E+02 -0.10373920100E+03  0.11857798328E+03  0.17358650265E+03  0.00000000000E+00 0.  1.
          4    1    6    6  503    0  0.25617584651E+02  0.41683846899E+02  0.17100460111E+02  0.51828847871E+02  0.00000000000E+00 0.  1.
         -4    1    6    6    0  503  0.22941605621E+03  0.18616392929E+03 -0.10550802882E+03  0.31372070311E+03  0.00000000000E+00 0. -1.
<mgrwt>
<rscale>  0 0.15101277E+04</rscale>
<asrwt>0</asrwt>
<pdfrwt beam="1">  1        1 0.10640110E+00 0.15101277E+04</pdfrwt>
<pdfrwt beam="2">  1       -2 0.12682198E+00 0.15101277E+04</pdfrwt>
<totfact> 0.10853742E+01</totfact>
</mgrwt>
</event>
<event>
12    4  0.5736500E-008  0.2285254E+04  0.7818608E-02  0.8483758E-01
          1   -1    0    0  501    0  0.00000000000E+00  0.00000000000E+00  0.16841505227E+04  0.16841505227E+04  0.00000000000E+00 0. -1.
         -2   -1    0    0    0  501 -0.00000000000E+00 -0.00000000000E+00 -0.77522548993E+03  0.77522548993E+03  0.00000000000E+00 0.  1.
        -24    2    1    2    0    0 -0.39006393353E+03  0.54780029107E+03 -0.35784650789E+03  0.76619401628E+03  0.82244247422E+02 0.  0.
        254    2    1    2    0    0  0.39006393353E+03 -0.54780029107E+03  0.12667715406E+04  0.16931819963E+04  0.89995561299E+03 0.  0.
         23    2    4    4    0    0  0.25837805118E+03 -0.30223146567E+02 -0.40336407797E+02  0.27808560362E+03  0.89620986513E+02 0.  0.
         23    2    4    4    0    0  0.13168588235E+03 -0.51757714451E+03  0.13071079484E+04  0.14150963927E+04  0.93484435326E+02 0.  0.
          1    1    3    3  502    0 -0.35695314729E+02  0.18304762772E+02 -0.26163195693E+02  0.47892928941E+02  0.00000000000E+00 0. -1.
         -2    1    3    3    0  502 -0.35436861880E+03  0.52949552830E+03 -0.33168331220E+03  0.71830108734E+03  0.00000000000E+00 0.  1.
         11    1    5    5    0    0  0.77000752772E+02  0.13331748224E+02  0.22385353335E+02  0.81289331908E+02  0.00000000000E+00 0. -1.
        -11    1    5    5    0    0  0.18137729841E+03 -0.43554894791E+02 -0.62721761131E+02  0.19679627171E+03  0.00000000000E+00 0.  1.
          3    1    6    6  503    0 -0.13245947121E+02 -0.26488325207E+02  0.58190353110E+02  0.65293213143E+02  0.00000000000E+00 0. -1.
         -3    1    6    6    0  503  0.14493182947E+03 -0.49108881930E+03  0.12489175953E+04  0.13498031796E+04  0.00000000000E+00 0.  1.
<mgrwt>
<rscale>  0 0.22852540E+04</rscale>
<asrwt>0</asrwt>
<pdfrwt beam="1">  1        1 0.25910008E+00 0.22852540E+04</pdfrwt>
<pdfrwt beam="2">  1       -2 0.11926546E+00 0.22852540E+04</pdfrwt>
<totfact> 0.20939984E+00</totfact>
</mgrwt>
</event>
<event>
12    4  0.4207946E-008  0.2626564E+04  0.7818608E-02  0.8359233E-01
         -2   -1    0    0    0  501 -0.00000000000E+00  0.00000000000E+00  0.78614412622E+03  0.78614412622E+03  0.00000000000E+00 0.  1.
          1   -1    0    0  501    0  0.00000000000E+00 -0.00000000000E+00 -0.21938855043E+04  0.21938855043E+04  0.00000000000E+00 0. -1.
        -24    2    1    2    0    0  0.87453754140E+03 -0.76019291229E+03 -0.60444607890E+03  0.13093075111E+04  0.78879155442E+02 0.  0.
        254    2    1    2    0    0 -0.87453754140E+03  0.76019291229E+03 -0.80329529921E+03  0.16707221194E+04  0.89628114307E+03 0.  0.
         23    2    4    4    0    0 -0.14759243911E+03  0.52235016048E+03  0.97943916172E+01  0.55024357305E+03  0.89659585889E+02 0.  0.
         23    2    4    4    0    0 -0.72694510229E+03  0.23784275181E+03 -0.81308969083E+03  0.11204785464E+04  0.96638352842E+02 0.  0.
          1    1    3    3  502    0  0.36245632699E+03 -0.30688482579E+03 -0.29114530318E+03  0.55706235992E+03  0.00000000000E+00 0. -1.
         -2    1    3    3    0  502  0.51208121441E+03 -0.45330808650E+03 -0.31330077572E+03  0.75224515120E+03  0.00000000000E+00 0.  1.
         11    1    5    5    0    0 -0.10296589359E+03  0.22089968666E+03 -0.17136373408E+02  0.24432008125E+03  0.00000000000E+00 0. -1.
        -11    1    5    5    0    0 -0.44626545527E+02  0.30145047382E+03  0.26930765025E+02  0.30592349180E+03  0.00000000000E+00 0.  1.
          3    1    6    6  503    0 -0.99447172885E+01  0.15017494700E+02 -0.34021329625E+02  0.38495109020E+02  0.00000000000E+00 0. -1.
         -3    1    6    6    0  503 -0.71700038500E+03  0.22282525711E+03 -0.77906836121E+03  0.10819834374E+04  0.00000000000E+00 0.  1.
<mgrwt>
<rscale>  0 0.26265645E+04</rscale>
<asrwt>0</asrwt>
<pdfrwt beam="1">  1        1 0.33752085E+00 0.26265645E+04</pdfrwt>
<pdfrwt beam="2">  1       -2 0.12094525E+00 0.26265645E+04</pdfrwt>
<totfact> 0.88463885E-01</totfact>
</mgrwt>
</event>
<event>
12    4  0.4207946E-008  0.2685417E+04  0.7818608E-02  0.8339752E-01
          1   -1    0    0  501    0  0.00000000000E+00  0.00000000000E+00  0.10473103299E+04  0.10473103299E+04  0.00000000000E+00 0. -1.
         -2   -1    0    0    0  501 -0.00000000000E+00 -0.00000000000E+00 -0.17214245696E+04  0.17214245696E+04  0.00000000000E+00 0.  1.
        -24    2    1    2    0    0 -0.35226441118E+03  0.36364181010E+03 -0.14091272299E+04  0.14994767261E+04  0.80407216949E+02 0.  0.
        254    2    1    2    0    0  0.35226441118E+03 -0.36364181010E+03  0.73501299021E+03  0.12692581734E+04  0.90246697084E+03 0.  0.
         23    2    4    4    0    0  0.36569623236E+03  0.22446453717E+03  0.33821419333E+03  0.55398835685E+03  0.91630759861E+02 0.  0.
         23    2    4    4    0    0 -0.13431821174E+02 -0.58810634728E+03  0.39679879688E+03  0.71526981652E+03  0.90067395275E+02 0.  0.
          1    1    3    3  502    0 -0.43088375298E+02  0.60741310157E+02 -0.14003361932E+03  0.15860494755E+03  0.00000000000E+00 0. -1.
         -2    1    3    3    0  502 -0.30917603588E+03  0.30290049995E+03 -0.12690936106E+04  0.13408717785E+04  0.00000000000E+00 0.  1.
         11    1    5    5    0    0  0.24981939383E+03  0.10196974897E+03  0.19785029554E+03  0.33459273555E+03  0.00000000000E+00 0. -1.
        -11    1    5    5    0    0  0.11587683852E+03  0.12249478820E+03  0.14036389779E+03  0.21939562130E+03  0.00000000000E+00 0.  1.
          4    1    6    6  503    0 -0.47208096790E+02 -0.26503478956E+03  0.15848502688E+03  0.31239325829E+03  0.00000000000E+00 0. -1.
         -4    1    6    6    0  503  0.33776275616E+02 -0.32307155772E+03  0.23831377000E+03  0.40287655823E+03  0.00000000000E+00 0.  1.
<mgrwt>
<rscale>  0 0.26854167E+04</rscale>
<asrwt>0</asrwt>
<pdfrwt beam="1">  1        1 0.16112467E+00 0.26854167E+04</pdfrwt>
<pdfrwt beam="2">  1       -2 0.26483455E+00 0.26854167E+04</pdfrwt>
<totfact> 0.55586465E-01</totfact>
</mgrwt>
</event>
<event>
12    4  0.4207946E-008  0.1498540E+04  0.7818608E-02  0.8885424E-01
          1   -1    0    0  501    0  0.00000000000E+00  0.00000000000E+00  0.16299952515E+04  0.16299952515E+04  0.00000000000E+00 0. -1.
         -2   -1    0    0    0  501 -0.00000000000E+00 -0.00000000000E+00 -0.34442158459E+03  0.34442158459E+03  0.00000000000E+00 0.  1.
        -24    2    1    2    0    0 -0.12818047755E+03 -0.39753006871E+03  0.61376631932E+03  0.74680232856E+03  0.80896432913E+02 0.  0.
        254    2    1    2    0    0  0.12818047755E+03  0.39753006871E+03  0.67180734756E+03  0.12276145075E+04  0.93875016722E+03 0.  0.
         23    2    4    4    0    0 -0.39239335237E+03  0.10154651630E+03  0.34259764900E+03  0.53843255032E+03  0.90841753556E+02 0.  0.
         23    2    4    4    0    0  0.52057382992E+03  0.29598355241E+03  0.32920969856E+03  0.68918195719E+03  0.89383269028E+02 0.  0.
          3    1    3    3  502    0 -0.99577375950E+02 -0.34790424329E+03  0.56801748765E+03  0.67349601527E+03  0.00000000000E+00 0. -1.
         -4    1    3    3    0  502 -0.28603101602E+02 -0.49625825416E+02  0.45748831664E+02  0.73306313290E+02  0.00000000000E+00 0.  1.
         11    1    5    5    0    0 -0.31343408384E+03  0.41628037400E+02  0.26497379723E+03  0.41253476414E+03  0.00000000000E+00 0. -1.
        -11    1    5    5    0    0 -0.78959268531E+02  0.59918478900E+02  0.77623851770E+02  0.12589778618E+03  0.00000000000E+00 0.  1.
          3    1    6    6  503    0  0.63890490494E+02  0.72653244941E+02  0.61398584062E+02  0.11458741162E+03  0.00000000000E+00 0. -1.
         -3    1    6    6    0  503  0.45668333943E+03  0.22333030747E+03  0.26781111450E+03  0.57459454557E+03  0.00000000000E+00 0.  1.
<mgrwt>
<rscale>  0 0.14985400E+04</rscale>
<asrwt>0</asrwt>
<pdfrwt beam="1">  1        1 0.25076850E+00 0.14985400E+04</pdfrwt>
<pdfrwt beam="2">  1       -2 0.52987937E-01 0.14985400E+04</pdfrwt>
<totfact> 0.15177108E+01</totfact>
</mgrwt>
</event>
<event>
12    4  0.4207946E-008  0.1547564E+04  0.7818608E-02  0.8853425E-01
          1   -1    0    0  501    0  0.00000000000E+00  0.00000000000E+00  0.69984316446E+03  0.69984316446E+03  0.00000000000E+00 0. -1.
         -2   -1    0    0    0  501 -0.00000000000E+00 -0.00000000000E+00 -0.85553230759E+03  0.85553230759E+03  0.00000000000E+00 0.  1.
        -24    2    1    2    0    0 -0.50657511294E+03 -0.93896203688E+02  0.15790875757E+02  0.52152151544E+03  0.79375671295E+02 0.  0.
        254    2    1    2    0    0  0.50657511294E+03  0.93896203688E+02 -0.17148001889E+03  0.10338539566E+04  0.87978052070E+03 0.  0.
         23    2    4    4    0    0  0.18985726101E+02  0.18369709809E+03  0.28538659720E+03  0.35353525524E+03  0.97142087656E+02 0.  0.
         23    2    4    4    0    0  0.48758938684E+03 -0.89800894403E+02 -0.45686661609E+03  0.68031870137E+03  0.91097858018E+02 0.  0.
          3    1    3    3  502    0 -0.75836943780E+02 -0.12255366621E+02 -0.26062266155E+02  0.81121376776E+02  0.00000000000E+00 0. -1.
         -4    1    3    3    0  502 -0.43073816916E+03 -0.81640837067E+02  0.41853141912E+02  0.44040013867E+03  0.00000000000E+00 0.  1.
         11    1    5    5    0    0  0.31591688612E+02  0.63662956266E+02  0.43815437371E+02  0.83491312973E+02  0.00000000000E+00 0.  1.
        -11    1    5    5    0    0 -0.12605962511E+02  0.12003414182E+03  0.24157115983E+03  0.27004394227E+03  0.00000000000E+00 0. -1.
          4    1    6    6  503    0  0.35095246559E+03 -0.88498563709E+02 -0.37427262330E+03  0.52065307589E+03  0.00000000000E+00 0. -1.
         -4    1    6    6    0  503  0.13663692125E+03 -0.13023306934E+01 -0.82593992796E+02  0.15966562548E+03  0.00000000000E+00 0.  1.
<mgrwt>
<rscale>  0 0.15475638E+04</rscale>
<asrwt>0</asrwt>
<pdfrwt beam="1">  1        1 0.10766818E+00 0.15475638E+04</pdfrwt>
<pdfrwt beam="2">  1       -2 0.13162036E+00 0.15475638E+04</pdfrwt>
<totfact> 0.96743688E+00</totfact>
</mgrwt>
</event>
<event>
12    4  0.4207946E-008  0.1948902E+04  0.7818608E-02  0.8630890E-01
          1   -1    0    0  501    0  0.00000000000E+00  0.00000000000E+00  0.20982599151E+04  0.20982599151E+04  0.00000000000E+00 0. -1.
         -2   -1    0    0    0  501 -0.00000000000E+00 -0.00000000000E+00 -0.45254404212E+03  0.45254404212E+03  0.00000000000E+00 0.  1.
        -24    2    1    2    0    0 -0.36202199001E+03  0.63232831282E+03  0.97700548040E+03  0.12214394632E+04  0.80471343777E+02 0.  0.
        254    2    1    2    0    0  0.36202199001E+03 -0.63232831282E+03  0.66871039256E+03  0.13293644940E+04  0.88833403191E+03 0.  0.
         23    2    4    4    0    0  0.33827904543E+03  0.65884634920E+02  0.48370993480E+03  0.60096590964E+03  0.91712735353E+02 0.  0.
         23    2    4    4    0    0  0.23742944584E+02 -0.69821294774E+03  0.18500045776E+03  0.72839858432E+03  0.90963071996E+02 0.  0.
          1    1    3    3  502    0 -0.33575299587E+03  0.61427083185E+03  0.94707190980E+03  0.11777113107E+04  0.00000000000E+00 0. -1.
         -2    1    3    3    0  502 -0.26268994144E+02  0.18057480963E+02  0.29933570603E+02  0.43728152500E+02  0.00000000000E+00 0.  1.
         11    1    5    5    0    0  0.27306175177E+03  0.84635194347E+02  0.35828052388E+03  0.45835659720E+03  0.00000000000E+00 0.  1.
        -11    1    5    5    0    0  0.65217293661E+02 -0.18750559426E+02  0.12542941092E+03  0.14260931244E+03  0.00000000000E+00 0. -1.
          4    1    6    6  503    0  0.42350172693E+02 -0.41585402876E+03  0.74366452608E+02  0.42456858061E+03  0.00000000000E+00 0. -1.
         -4    1    6    6    0  503 -0.18607228108E+02 -0.28235891898E+03  0.11063400515E+03  0.30383000372E+03  0.00000000000E+00 0.  1.
<mgrwt>
<rscale>  0 0.19489023E+04</rscale>
<asrwt>0</asrwt>
<pdfrwt beam="1">  1        1 0.32280921E+00 0.19489023E+04</pdfrwt>
<pdfrwt beam="2">  1       -2 0.69622161E-01 0.19489023E+04</pdfrwt>
<totfact> 0.39335749E+00</totfact>
</mgrwt>
</event>
<event>
12    4  0.4207946E-008  0.2559072E+04  0.7818608E-02  0.8382238E-01
         -2   -1    0    0    0  501 -0.00000000000E+00  0.00000000000E+00  0.16926251175E+04  0.16926251175E+04  0.00000000000E+00 0.  1.
          1   -1    0    0  501    0  0.00000000000E+00 -0.00000000000E+00 -0.96726262525E+03  0.96726262525E+03  0.00000000000E+00 0. -1.
        -24    2    1    2    0    0  0.30895324441E+03 -0.94424922857E+03  0.85607823032E+03  0.13144598625E+04  0.88747286124E+02 0.  0.
        254    2    1    2    0    0 -0.30895324441E+03  0.94424922857E+03 -0.13071573804E+03  0.13454278803E+04  0.89779221649E+03 0.  0.
         23    2    4    4    0    0 -0.18605653527E+03  0.22310787980E+02 -0.32967062621E+03  0.39005929882E+03  0.91371380822E+02 0.  0.
         23    2    4    4    0    0 -0.12289670915E+03  0.92193844059E+03  0.19895488817E+03  0.95536858146E+03  0.89844251708E+02 0.  0.
          1    1    3    3  502    0  0.17279893496E+03 -0.57985701800E+03  0.46743573433E+03  0.76458472321E+03  0.00000000000E+00 0. -1.
         -2    1    3    3    0  502  0.13615430945E+03 -0.36439221057E+03  0.38864249600E+03  0.54987513928E+03  0.00000000000E+00 0.  1.
         11    1    5    5    0    0 -0.46887868269E+02  0.40927016652E+02 -0.14722884107E+03  0.15984312474E+03  0.00000000000E+00 0. -1.
        -11    1    5    5    0    0 -0.13916866700E+03 -0.18616228672E+02 -0.18244178515E+03  0.23021617409E+03  0.00000000000E+00 0.  1.
          1    1    6    6  503    0 -0.38054866805E+02  0.12112445729E+03  0.49782939388E+02  0.13637319419E+03  0.00000000000E+00 0. -1.
         -1    1    6    6    0  503 -0.84841842341E+02  0.80081398330E+03  0.14917194878E+03  0.81899538727E+03  0.00000000000E+00 0.  1.
<mgrwt>
<rscale>  0 0.25590725E+04</rscale>
<asrwt>0</asrwt>
<pdfrwt beam="1">  1        1 0.14880963E+00 0.25590725E+04</pdfrwt>
<pdfrwt beam="2">  1       -2 0.26040386E+00 0.25590725E+04</pdfrwt>
<totfact> 0.69054664E-01</totfact>
</mgrwt>
</event>
<event>
12    4  0.4207946E-008  0.2230383E+04  0.7818608E-02  0.8505887E-01
          1   -1    0    0  501    0  0.00000000000E+00  0.00000000000E+00  0.27733859677E+04  0.27733859677E+04  0.00000000000E+00 0. -1.
         -2   -1    0    0    0  501 -0.00000000000E+00 -0.00000000000E+00 -0.44842380827E+03  0.44842380827E+03  0.00000000000E+00 0.  1.
        -24    2    1    2    0    0  0.24232221768E+03  0.51230384910E+03 -0.12302892983E+03  0.58557162257E+03  0.81133942370E+02 0.  0.
        254    2    1    2    0    0 -0.24232221768E+03 -0.51230384910E+03  0.24479910892E+04  0.26362381534E+04  0.79744337568E+03 0.  0.
         23    2    4    4    0    0 -0.51298410429E+03 -0.38918315952E+03  0.14108804332E+04  0.15536069057E+04  0.92166141972E+02 0.  0.
         23    2    4    4    0    0  0.27066188661E+03 -0.12312068957E+03  0.10371106561E+04  0.10826312477E+04  0.89862920883E+02 0.  0.
          3    1    3    3  502    0  0.65061674888E+01  0.15537511866E+02  0.10297706996E+02  0.19743030663E+02  0.00000000000E+00 0. -1.
         -4    1    3    3    0  502  0.23581605019E+03  0.49676633723E+03 -0.13332663682E+03  0.56582859191E+03  0.00000000000E+00 0.  1.
         11    1    5    5    0    0 -0.45569093404E+03 -0.35072717506E+03  0.11803314019E+04  0.13129531587E+04  0.00000000000E+00 0.  1.
        -11    1    5    5    0    0 -0.57293170252E+02 -0.38455984466E+02  0.23054903129E+03  0.24065374696E+03  0.00000000000E+00 0. -1.
          2    1    6    6  503    0  0.10995359633E+03 -0.21570535958E+02  0.27023664321E+03  0.29254559422E+03  0.00000000000E+00 0. -1.
         -2    1    6    6    0  503  0.16070829028E+03 -0.10155015362E+03  0.76687401287E+03  0.79008565351E+03  0.00000000000E+00 0.  1.
<mgrwt>
<rscale>  0 0.22303832E+04</rscale>
<asrwt>0</asrwt>
<pdfrwt beam="1">  1        1 0.42667476E+00 0.22303832E+04</pdfrwt>
<pdfrwt beam="2">  1       -2 0.68988280E-01 0.22303832E+04</pdfrwt>
<totfact> 0.13355316E+00</totfact>
</mgrwt>
</event>
<event>
12    4  0.4207946E-008  0.1448410E+04  0.7818608E-02  0.8919504E-01
          1   -1    0    0  501    0  0.00000000000E+00  0.00000000000E+00  0.10474455948E+04  0.10474455948E+04  0.00000000000E+00 0. -1.
         -2   -1    0    0    0  501 -0.00000000000E+00 -0.00000000000E+00 -0.50071605598E+03  0.50071605598E+03  0.00000000000E+00 0.  1.
        -24    2    1    2    0    0 -0.16470145766E+03  0.16720231751E+03  0.57085050317E+03  0.62332849356E+03  0.87091496592E+02 0.  0.
        254    2    1    2    0    0  0.16470145766E+03 -0.16720231751E+03 -0.24120964383E+02  0.92483315720E+03  0.89423227553E+03 0.  0.
         23    2    4    4    0    0  0.18264680556E+02  0.23799292306E+03  0.28802005801E+03  0.38511847252E+03  0.91577585027E+02 0.  0.
         23    2    4    4    0    0  0.14643677710E+03 -0.40519524057E+03 -0.31214102239E+03  0.53971468467E+03  0.90735937320E+02 0.  0.
          3    1    3    3  502    0 -0.68467980439E+02  0.10489082244E+03  0.38597129254E+03  0.40578786039E+03  0.00000000000E+00 0. -1.
         -4    1    3    3    0  502 -0.96233477218E+02  0.62311495069E+02  0.18487921064E+03  0.21754063317E+03  0.00000000000E+00 0.  1.
         11    1    5    5    0    0 -0.35811687888E+02  0.77331145160E+02  0.81302529156E+02  0.11778235967E+03  0.00000000000E+00 0.  1.
        -11    1    5    5    0    0  0.54076368444E+02  0.16066177790E+03  0.20671752886E+03  0.26733611286E+03  0.00000000000E+00 0. -1.
          3    1    6    6  503    0  0.92590870123E+02 -0.35430802012E+03 -0.25906239806E+03  0.44857615679E+03  0.00000000000E+00 0. -1.
         -3    1    6    6    0  503  0.53845906978E+02 -0.50887220449E+02 -0.53078624340E+02  0.91138527885E+02  0.00000000000E+00 0.  1.
<mgrwt>
<rscale>  0 0.14484099E+04</rscale>
<asrwt>0</asrwt>
<pdfrwt beam="1">  1        1 0.16114548E+00 0.14484099E+04</pdfrwt>
<pdfrwt beam="2">  1       -2 0.77033240E-01 0.14484099E+04</pdfrwt>
<totfact> 0.17813605E+01</totfact>
</mgrwt>
</event>
<event>
12    4  0.4207946E-008  0.3065150E+04  0.7818608E-02  0.8225368E-01
         -2   -1    0    0    0  501 -0.00000000000E+00  0.00000000000E+00  0.13406605931E+04  0.13406605931E+04  0.00000000000E+00 0.  1.
          1   -1    0    0  501    0  0.00000000000E+00 -0.00000000000E+00 -0.17519618380E+04  0.17519618380E+04  0.00000000000E+00 0. -1.
        -24    2    1    2    0    0  0.33701609715E+03 -0.90057181255E+03  0.83138367305E+03  0.12730169769E+04  0.69021536352E+02 0.  0.
        254    2    1    2    0    0 -0.33701609715E+03  0.90057181255E+03 -0.12426849179E+04  0.18196054541E+04  0.91765394586E+03 0.  0.
         23    2    4    4    0    0 -0.40438348086E+03  0.11556057579E+03 -0.80701428645E+03  0.91478496269E+03  0.93162348384E+02 0.  0.
         23    2    4    4    0    0  0.67367383707E+02  0.78501123676E+03 -0.43567063142E+03  0.90482049146E+03  0.90056740198E+02 0.  0.
          3    1    3    3  502    0  0.57905074220E+02 -0.20909456186E+03  0.15944318644E+03  0.26925018685E+03  0.00000000000E+00 0. -1.
         -4    1    3    3    0  502  0.27911102293E+03 -0.69147725070E+03  0.67194048661E+03  0.10037667901E+04  0.00000000000E+00 0.  1.
         11    1    5    5    0    0 -0.96052811951E+02 -0.76334977152E+01 -0.14377815765E+03  0.17307966832E+03  0.00000000000E+00 0.  1.
        -11    1    5    5    0    0 -0.30833066891E+03  0.12319407351E+03 -0.66323612881E+03  0.74170529437E+03  0.00000000000E+00 0. -1.
          2    1    6    6  503    0  0.75016332471E+02  0.41673027529E+03 -0.20773108586E+03  0.47163945607E+03  0.00000000000E+00 0. -1.
         -2    1    6    6    0  503 -0.76489487637E+01  0.36828096146E+03 -0.22793954556E+03  0.43318103539E+03  0.00000000000E+00 0.  1.
<mgrwt>
<rscale>  0 0.30651500E+04</rscale>
<asrwt>0</asrwt>
<pdfrwt beam="1">  1        1 0.26953259E+00 0.30651500E+04</pdfrwt>
<pdfrwt beam="2">  1       -2 0.20625548E+00 0.30651500E+04</pdfrwt>
<totfact> 0.39552798E-01</totfact>
</mgrwt>
</event>
<event>
12    4  0.4207946E-008  0.2832470E+04  0.7818608E-02  0.8293258E-01
         -2   -1    0    0    0  501 -0.00000000000E+00  0.00000000000E+00  0.70551194954E+03  0.70551194954E+03  0.00000000000E+00 0.  1.
          1   -1    0    0  501    0  0.00000000000E+00 -0.00000000000E+00 -0.28429304123E+04  0.28429304123E+04  0.00000000000E+00 0. -1.
        -24    2    1    2    0    0 -0.28352813400E+03  0.50430758139E+03 -0.23624822656E+04  0.24334814341E+04  0.76125524412E+02 0.  0.
        254    2    1    2    0    0  0.28352813400E+03 -0.50430758139E+03  0.22506380282E+03  0.11149609278E+04  0.92615863418E+03 0.  0.
         23    2    4    4    0    0  0.37959167295E+03  0.10437939841E+03  0.27671742131E+03  0.48982631140E+03  0.91500749149E+02 0.  0.
         23    2    4    4    0    0 -0.96063538954E+02 -0.60868697979E+03 -0.51653618494E+02  0.62513461636E+03  0.91635961176E+02 0.  0.
          1    1    3    3  502    0 -0.26096157743E+03  0.48968844758E+03 -0.22870452841E+04  0.23533958129E+04  0.00000000000E+00 0. -1.
         -2    1    3    3    0  502 -0.22566556566E+02  0.14619133806E+02 -0.75436981449E+02  0.80085621173E+02  0.00000000000E+00 0.  1.
         11    1    5    5    0    0  0.86263938806E+02  0.62940185408E+02  0.89995514978E+02  0.13965001537E+03  0.00000000000E+00 0. -1.
        -11    1    5    5    0    0  0.29332773415E+03  0.41439212998E+02  0.18672190633E+03  0.35017629602E+03  0.00000000000E+00 0.  1.
          2    1    6    6  503    0 -0.34201252417E+02 -0.10364672273E+03  0.21039570574E+02  0.11115319307E+03  0.00000000000E+00 0. -1.
         -2    1    6    6    0  503 -0.61862286536E+02 -0.50504025706E+03 -0.72693189068E+02  0.51398142329E+03  0.00000000000E+00 0.  1.
<mgrwt>
<rscale>  0 0.28324699E+04</rscale>
<asrwt>0</asrwt>
<pdfrwt beam="1">  1        1 0.43737391E+00 0.28324699E+04</pdfrwt>
<pdfrwt beam="2">  1       -2 0.10854030E+00 0.28324699E+04</pdfrwt>
<totfact> 0.40002961E-01</totfact>
</mgrwt>
</event>
<event>
12    4  0.4207946E-008  0.1662202E+04  0.7818608E-02  0.8783220E-01
         -2   -1    0    0    0  501 -0.00000000000E+00  0.00000000000E+00  0.11560707820E+04  0.11560707820E+04  0.00000000000E+00 0.  1.
          1   -1    0    0  501    0  0.00000000000E+00 -0.00000000000E+00 -0.59747993060E+03  0.59747993060E+03  0.00000000000E+00 0. -1.
        -24    2    1    2    0    0 -0.14251775103E+03 -0.50421715250E+03 -0.71025996725E+02  0.53454453073E+03  0.78402276027E+02 0.  0.
        254    2    1    2    0    0  0.14251775103E+03  0.50421715250E+03  0.62961684816E+03  0.12190061819E+04  0.90278039954E+03 0.  0.
         23    2    4    4    0    0 -0.10410199415E+03  0.70058968420E+03  0.44047258215E+03  0.83925476888E+03  0.93109294124E+02 0.  0.
         23    2    4    4    0    0  0.24661974517E+03 -0.19637253171E+03  0.18914426600E+03  0.37975141302E+03  0.95142589887E+02 0.  0.
          3    1    3    3  502    0 -0.10319813010E+03 -0.45600769584E+03 -0.65156346801E+02  0.47205743533E+03  0.00000000000E+00 0. -1.
         -4    1    3    3    0  502 -0.39319620922E+02 -0.48209456662E+02 -0.58696499238E+01  0.62487095398E+02  0.00000000000E+00 0.  1.
         11    1    5    5    0    0 -0.38626637863E+02  0.71501263370E+02  0.39318113673E+02  0.90279354666E+02  0.00000000000E+00 0.  1.
        -11    1    5    5    0    0 -0.65475356286E+02  0.62908842083E+03  0.40115446848E+03  0.74897541421E+03  0.00000000000E+00 0. -1.
          1    1    6    6  503    0  0.16503011686E+03 -0.17040349184E+03  0.10404502179E+03  0.25903215256E+03  0.00000000000E+00 0. -1.
         -1    1    6    6    0  503  0.81589628317E+02 -0.25969039865E+02  0.85099244206E+02  0.12071926045E+03  0.00000000000E+00 0.  1.
<mgrwt>
<rscale>  0 0.16622023E+04</rscale>
<asrwt>0</asrwt>
<pdfrwt beam="1">  1        1 0.91919989E-01 0.16622023E+04</pdfrwt>
<pdfrwt beam="2">  1       -2 0.17785704E+00 0.16622023E+04</pdfrwt>
<totfact> 0.53975677E+00</totfact>
</mgrwt>
</event>
<event>
12    4  0.4207946E-008  0.1557394E+04  0.7818608E-02  0.8847159E-01
          1   -1    0    0  501    0  0.00000000000E+00  0.00000000000E+00  0.16112828293E+04  0.16112828293E+04  0.00000000000E+00 0. -1.
         -2   -1    0    0    0  501 -0.00000000000E+00 -0.00000000000E+00 -0.37632692340E+03  0.37632692340E+03  0.00000000000E+00 0.  1.
        -24    2    1    2    0    0 -0.45369604630E+03  0.11708578566E+03  0.13593351330E+03  0.49436968189E+03  0.79839080010E+02 0.  0.
        254    2    1    2    0    0  0.45369604630E+03 -0.11708578566E+03  0.10990223926E+04  0.14932400708E+04  0.89574913121E+03 0.  0.
         23    2    4    4    0    0  0.13040796906E+03  0.20213541102E+03  0.98475315863E+03  0.10176103921E+04  0.89034621877E+02 0.  0.
         23    2    4    4    0    0  0.32328807724E+03 -0.31922119668E+03  0.11426923398E+03  0.47562967874E+03  0.82150959620E+02 0.  0.
          3    1    3    3  502    0 -0.45036892467E+02  0.14437564100E+02  0.40681015608E+02  0.62383571324E+02  0.00000000000E+00 0. -1.
         -4    1    3    3    0  502 -0.40865915384E+03  0.10264822156E+03  0.95252497696E+02  0.43198611056E+03  0.00000000000E+00 0.  1.
         11    1    5    5    0    0  0.38565272887E+02  0.80667067269E+01  0.20965615403E+03  0.21332617034E+03  0.00000000000E+00 0. -1.
        -11    1    5    5    0    0  0.91842696172E+02  0.19406870429E+03  0.77509700460E+03  0.80428422176E+03  0.00000000000E+00 0.  1.
          2    1    6    6  503    0  0.16704070546E+02 -0.31422279807E+02  0.30492529409E+02  0.46863418472E+02  0.00000000000E+00 0. -1.
         -2    1    6    6    0  503  0.30658400670E+03 -0.28779891687E+03  0.83776704571E+02  0.42876626027E+03  0.00000000000E+00 0.  1.
<mgrwt>
<rscale>  0 0.15573941E+04</rscale>
<asrwt>0</asrwt>
<pdfrwt beam="1">  1        1 0.24788966E+00 0.15573941E+04</pdfrwt>
<pdfrwt beam="2">  1       -2 0.57896451E-01 0.15573941E+04</pdfrwt>
<totfact> 0.12934432E+01</totfact>
</mgrwt>
</event>
<event>
12    4  0.4207946E-008  0.1097974E+04  0.7818608E-02  0.9207169E-01
         -4   -1    0    0    0  501 -0.00000000000E+00  0.00000000000E+00  0.36346896113E+03  0.36346896113E+03  0.00000000000E+00 0.  1.
          3   -1    0    0  501    0  0.00000000000E+00 -0.00000000000E+00 -0.82919493938E+03  0.82919493938E+03  0.00000000000E+00 0. -1.
        -24    2    1    2    0    0  0.91429803058E+02  0.10930232779E+03  0.17374011885E+02  0.15901282077E+03  0.68387229319E+02 0.  0.
        254    2    1    2    0    0 -0.91429803058E+02 -0.10930232779E+03 -0.48309999014E+03  0.10336510797E+04  0.90263090266E+03 0.  0.
         23    2    4    4    0    0 -0.40183381611E+03  0.15667896666E+03 -0.71174300882E+02  0.44633191606E+03  0.90153667818E+02 0.  0.
         23    2    4    4    0    0  0.31040401305E+03 -0.26598129445E+03 -0.41192568926E+03  0.58731916368E+03  0.90356661314E+02 0.  0.
          1    1    3    3  502    0  0.13497810450E+02  0.61413896719E+02 -0.96931063143E+01  0.63622432421E+02  0.00000000000E+00 0. -1.
         -2    1    3    3    0  502  0.77931992608E+02  0.47888431066E+02  0.27067118200E+02  0.95390388350E+02  0.00000000000E+00 0.  1.
         11    1    5    5    0    0 -0.31303924537E+03  0.14838629512E+03 -0.28877678054E+02  0.34762908683E+03  0.00000000000E+00 0. -1.
        -11    1    5    5    0    0 -0.88794570745E+02  0.82926715373E+01 -0.42296622828E+02  0.98702829228E+02  0.00000000000E+00 0.  1.
          4    1    6    6  503    0  0.21194786607E+03 -0.22598574973E+03 -0.27723375925E+03  0.41575234729E+03  0.00000000000E+00 0. -1.
         -4    1    6    6    0  503  0.98456146987E+02 -0.39995544713E+02 -0.13469193001E+03  0.17156681639E+03  0.00000000000E+00 0.  1.
<mgrwt>
<rscale>  0 0.10979738E+04</rscale>
<asrwt>0</asrwt>
<pdfrwt beam="1">  1        3 0.12756845E+00 0.10979738E+04</pdfrwt>
<pdfrwt beam="2">  1       -4 0.55918302E-01 0.10979738E+04</pdfrwt>
<totfact> 0.33740230E+00</totfact>
</mgrwt>
</event>
<event>
12    4  0.4207946E-008  0.3094200E+04  0.7818608E-02  0.8217331E-01
         -2   -1    0    0    0  501 -0.00000000000E+00  0.00000000000E+00  0.31216221542E+04  0.31216221542E+04  0.00000000000E+00 0.  1.
          1   -1    0    0  501    0  0.00000000000E+00 -0.00000000000E+00 -0.76675473512E+03  0.76675473512E+03  0.00000000000E+00 0. -1.
        -24    2    1    2    0    0 -0.81592569474E+03 -0.94472975879E+03  0.19174560128E+04  0.22893776597E+04  0.79771244063E+02 0.  0.
        254    2    1    2    0    0  0.81592569474E+03  0.94472975879E+03  0.43741140628E+03  0.15989992296E+04  0.89845464069E+03 0.  0.
         23    2    4    4    0    0  0.41599577243E+03  0.92631883702E+03  0.56664537436E+03  0.11664008221E+04  0.91021024915E+02 0.  0.
         23    2    4    4    0    0  0.39992992231E+03  0.18410921772E+02 -0.12923396808E+03  0.43259840750E+03  0.10078223485E+03 0.  0.
          1    1    3    3  502    0 -0.93395418901E+02 -0.11305882479E+03  0.18141337259E+03  0.23327197408E+03  0.00000000000E+00 0. -1.
         -2    1    3    3    0  502 -0.72253027584E+03 -0.83167093400E+03  0.17360426402E+04  0.20561056856E+04  0.00000000000E+00 0.  1.
         11    1    5    5    0    0  0.11137754547E+02  0.38931455437E+02  0.48083589329E+01  0.40777789474E+02  0.00000000000E+00 0.  1.
        -11    1    5    5    0    0  0.40485801788E+03  0.88738738158E+03  0.56183701543E+03  0.11256230326E+04  0.00000000000E+00 0. -1.
          2    1    6    6  503    0  0.27721432660E+03  0.31663186895E+02 -0.13303794160E+03  0.30911071509E+03  0.00000000000E+00 0. -1.
         -2    1    6    6    0  503  0.12271559571E+03 -0.13252265123E+02  0.38039735217E+01  0.12348769241E+03  0.00000000000E+00 0.  1.
<mgrwt>
<rscale>  0 0.30942001E+04</rscale>
<asrwt>0</asrwt>
<pdfrwt beam="1">  1        1 0.11796227E+00 0.30942001E+04</pdfrwt>
<pdfrwt beam="2">  1       -2 0.48024955E+00 0.30942001E+04</pdfrwt>
<totfact> 0.38461554E-02</totfact>
</mgrwt>
</event>
<event>
12    4  0.4207946E-008  0.1249119E+04  0.7818608E-02  0.9070917E-01
          1   -1    0    0  501    0  0.00000000000E+00  0.00000000000E+00  0.21117810971E+04  0.21117810971E+04  0.00000000000E+00 0. -1.
         -2   -1    0    0    0  501 -0.00000000000E+00 -0.00000000000E+00 -0.18471352507E+03  0.18471352507E+03  0.00000000000E+00 0.  1.
        -24    2    1    2    0    0 -0.24531906686E+03 -0.10908432479E+03  0.37654763966E+03  0.46942781992E+03  0.80582372153E+02 0.  0.
        254    2    1    2    0    0  0.24531906686E+03  0.10908432479E+03  0.15505199323E+04  0.18270668022E+04  0.92842889050E+03 0.  0.
         23    2    4    4    0    0  0.39542451869E+03  0.43035053951E+03  0.10825477179E+04  0.12334872282E+04  0.89549113854E+02 0.  0.
         23    2    4    4    0    0 -0.15010545183E+03 -0.32126621472E+03  0.46797221445E+03  0.59357957402E+03  0.87149812417E+02 0.  0.
          3    1    3    3  502    0 -0.95924213177E+02 -0.56134215649E+01  0.16101687474E+03  0.18750839748E+03  0.00000000000E+00 0. -1.
         -4    1    3    3    0  502 -0.14939485368E+03 -0.10347090322E+03  0.21553076492E+03  0.28191942243E+03  0.00000000000E+00 0.  1.
         11    1    5    5    0    0  0.11214492804E+03  0.15668537185E+03  0.28562660890E+03  0.34454223304E+03  0.00000000000E+00 0.  1.
        -11    1    5    5    0    0  0.28327959065E+03  0.27366516766E+03  0.79692110899E+03  0.88894499516E+03  0.00000000000E+00 0. -1.
          2    1    6    6  503    0 -0.27634367305E+01 -0.93008327360E+02  0.13212368607E+03  0.16160090953E+03  0.00000000000E+00 0.  1.
         -2    1    6    6    0  503 -0.14734201510E+03 -0.22825788736E+03  0.33584852838E+03  0.43197866449E+03  0.00000000000E+00 0. -1.
<mgrwt>
<rscale>  0 0.12491189E+04</rscale>
<asrwt>0</asrwt>
<pdfrwt beam="1">  1        1 0.32488938E+00 0.12491189E+04</pdfrwt>
<pdfrwt beam="2">  1       -2 0.28417467E-01 0.12491189E+04</pdfrwt>
<totfact> 0.24623160E+01</totfact>
</mgrwt>
</event>
<event>
12    4  0.4207946E-008  0.2172761E+04  0.7818608E-02  0.8529852E-01
          1   -1    0    0  501    0  0.00000000000E+00  0.00000000000E+00  0.26968105691E+04  0.26968105691E+04  0.00000000000E+00 0. -1.
         -2   -1    0    0    0  501 -0.00000000000E+00 -0.00000000000E+00 -0.43763627703E+03  0.43763627703E+03  0.00000000000E+00 0.  1.
        -24    2    1    2    0    0 -0.85315831135E+03 -0.15373786235E+03  0.12444332082E+04  0.15187230948E+04  0.79946197789E+02 0.  0.
        254    2    1    2    0    0  0.85315831135E+03  0.15373786235E+03  0.10147410839E+04  0.16157237514E+04  0.91068619116E+03 0.  0.
         23    2    4    4    0    0  0.85900397883E+03 -0.18845400897E+03  0.59021501799E+03  0.10627677655E+04  0.87856740070E+02 0.  0.
         23    2    4    4    0    0 -0.58456674797E+01  0.34219187132E+03  0.42452606594E+03  0.55295598587E+03  0.91697835438E+02 0.  0.
          1    1    3    3  502    0 -0.74636337657E+03 -0.10928624250E+03  0.10971830368E+04  0.13314700106E+04  0.00000000000E+00 0. -1.
         -2    1    3    3    0  502 -0.10679493478E+03 -0.44451619852E+02  0.14725017133E+03  0.18725308425E+03  0.00000000000E+00 0.  1.
         11    1    5    5    0    0  0.16284095395E+03 -0.18202521179E+01  0.11792698473E+03  0.20106532105E+03  0.00000000000E+00 0. -1.
        -11    1    5    5    0    0  0.69616302488E+03 -0.18663375685E+03  0.47228803326E+03  0.86170244445E+03  0.00000000000E+00 0.  1.
          3    1    6    6  503    0  0.23126749744E+02  0.22849048702E+02  0.27256496256E+02  0.42424546768E+02  0.00000000000E+00 0. -1.
         -3    1    6    6    0  503 -0.28972417224E+02  0.31934282262E+03  0.39726956968E+03  0.51053143910E+03  0.00000000000E+00 0.  1.
<mgrwt>
<rscale>  0 0.21727606E+04</rscale>
<asrwt>0</asrwt>
<pdfrwt beam="1">  1        1 0.41489392E+00 0.21727606E+04</pdfrwt>
<pdfrwt beam="2">  1       -2 0.67328660E-01 0.21727606E+04</pdfrwt>
<totfact> 0.16034981E+00</totfact>
</mgrwt>
</event>
<event>
12    4  0.4207946E-008  0.2430075E+04  0.7818608E-02  0.8428329E-01
          1   -1    0    0  501    0  0.00000000000E+00  0.00000000000E+00  0.15391293021E+04  0.15391293021E+04  0.00000000000E+00 0. -1.
         -2   -1    0    0    0  501 -0.00000000000E+00 -0.00000000000E+00 -0.95918913422E+03  0.95918913422E+03  0.00000000000E+00 0.  1.
        -24    2    1    2    0    0 -0.46874415585E+03  0.86444499132E+03  0.61241296269E+03  0.11610653512E+04  0.77697401806E+02 0.  0.
        254    2    1    2    0    0  0.46874415585E+03 -0.86444499132E+03 -0.32472794846E+02  0.13372530851E+04  0.90565175672E+03 0.  0.
         23    2    4    4    0    0  0.66149850442E+03 -0.77225967521E+03 -0.21303240680E+03  0.10430891326E+04  0.93203298714E+02 0.  0.
         23    2    4    4    0    0 -0.19275434857E+03 -0.92185316108E+02  0.18055961195E+03  0.29416395247E+03  0.90985087052E+02 0.  0.
          1    1    3    3  502    0 -0.41076947338E+03  0.77796460812E+03  0.52056337838E+03  0.10222263559E+04  0.00000000000E+00 0. -1.
         -2    1    3    3    0  502 -0.57974682474E+02  0.86480383200E+02  0.91849584309E+02  0.13883899533E+03  0.00000000000E+00 0.  1.
         11    1    5    5    0    0  0.18533473506E+03 -0.19467509006E+03 -0.17186629660E+02  0.26933758547E+03  0.00000000000E+00 0. -1.
        -11    1    5    5    0    0  0.47616376936E+03 -0.57758458515E+03 -0.19584577714E+03  0.77375154713E+03  0.00000000000E+00 0.  1.
          3    1    6    6  503    0 -0.74368029698E+02  0.85208845345E+01  0.41382897299E+02  0.85532178174E+02  0.00000000000E+00 0. -1.
         -3    1    6    6    0  503 -0.11838631887E+03 -0.10070620064E+03  0.13917671465E+03  0.20863177429E+03  0.00000000000E+00 0.  1.
<mgrwt>
<rscale>  0 0.24300750E+04</rscale>
<asrwt>0</asrwt>
<pdfrwt beam="1">  1        1 0.23678912E+00 0.24300750E+04</pdfrwt>
<pdfrwt beam="2">  1       -2 0.14756756E+00 0.24300750E+04</pdfrwt>
<totfact> 0.15092404E+00</totfact>
</mgrwt>
</event>
<event>
12    4  0.4207946E-008  0.1468809E+04  0.7818608E-02  0.8905463E-01
          1   -1    0    0  501    0  0.00000000000E+00  0.00000000000E+00  0.14083068988E+04  0.14083068988E+04  0.00000000000E+00 0. -1.
         -2   -1    0    0    0  501 -0.00000000000E+00 -0.00000000000E+00 -0.38297780090E+03  0.38297780090E+03  0.00000000000E+00 0.  1.
        -24    2    1    2    0    0  0.18846468138E+03  0.27976707228E+03 -0.49781074161E+02  0.35031094959E+03  0.80318461158E+02 0.  0.
        254    2    1    2    0    0 -0.18846468138E+03 -0.27976707228E+03  0.10751101721E+04  0.14409737501E+04  0.89819536604E+03 0.  0.
         23    2    4    4    0    0  0.33422155120E+03 -0.61894382612E+02  0.60268525726E+03  0.69768483883E+03  0.89440791157E+02 0.  0.
         23    2    4    4    0    0 -0.52268623258E+03 -0.21787268967E+03  0.47242491479E+03  0.74328891127E+03  0.92863872830E+02 0.  0.
          3    1    3    3  502    0  0.11141377353E+03  0.14922890559E+03  0.12009749633E+02  0.18661867346E+03  0.00000000000E+00 0. -1.
         -4    1    3    3    0  502  0.77050907848E+02  0.13053816669E+03 -0.61790823794E+02  0.16369227614E+03  0.00000000000E+00 0.  1.
         11    1    5    5    0    0  0.28811919372E+03 -0.23356008919E+02  0.46598988866E+03  0.54836552525E+03  0.00000000000E+00 0. -1.
        -11    1    5    5    0    0  0.46102357484E+02 -0.38538373693E+02  0.13669536860E+03  0.14931931358E+03  0.00000000000E+00 0.  1.
          1    1    6    6  503    0 -0.45186197216E+03 -0.16293959758E+03  0.36440992415E+03  0.60292880771E+03  0.00000000000E+00 0.  1.
         -1    1    6    6    0  503 -0.70824260420E+02 -0.54933092086E+02  0.10801499064E+03  0.14036010357E+03  0.00000000000E+00 0. -1.
<mgrwt>
<rscale>  0 0.14688094E+04</rscale>
<asrwt>0</asrwt>
<pdfrwt beam="1">  1        1 0.21666260E+00 0.14688094E+04</pdfrwt>
<pdfrwt beam="2">  1       -2 0.58919662E-01 0.14688094E+04</pdfrwt>
<totfact> 0.17357310E+01</totfact>
</mgrwt>
</event>
<event>
12    4  0.4207946E-008  0.1860202E+04  0.7818608E-02  0.8674924E-01
          1   -1    0    0  501    0  0.00000000000E+00  0.00000000000E+00  0.18931019718E+04  0.18931019718E+04  0.00000000000E+00 0. -1.
         -4   -1    0    0    0  501 -0.00000000000E+00 -0.00000000000E+00 -0.45696863017E+03  0.45696863017E+03  0.00000000000E+00 0.  1.
        -24    2    1    2    0    0 -0.48485245787E+03 -0.23869657374E+03  0.11173564600E+04  0.12437850417E+04  0.80360506036E+02 0.  0.
        254    2    1    2    0    0  0.48485245787E+03  0.23869657374E+03  0.31877688156E+03  0.11062855603E+04  0.91114822087E+03 0.  0.
         23    2    4    4    0    0  0.45986939861E+03  0.42890665675E+03 -0.93993141566E+02  0.64217256751E+03  0.90056159233E+02 0.  0.
         23    2    4    4    0    0  0.24983059258E+02 -0.19021008301E+03  0.41277002312E+03  0.46411299274E+03  0.90651801494E+02 0.  0.
          1    1    3    3  502    0 -0.47801307350E+03 -0.22384000067E+03  0.10991191654E+04  0.12192882285E+04  0.00000000000E+00 0. -1.
         -4    1    3    3    0  502 -0.68393843700E+01 -0.14856573070E+02  0.18237294592E+02  0.24496813180E+02  0.00000000000E+00 0.  1.
         11    1    5    5    0    0  0.24046696205E+01  0.24073965107E+02 -0.58185590856E+00  0.24200760076E+02  0.00000000000E+00 0.  1.
        -11    1    5    5    0    0  0.45746472899E+03  0.40483269164E+03 -0.93411285657E+02  0.61797180743E+03  0.00000000000E+00 0. -1.
          4    1    6    6  503    0  0.16023794238E+02 -0.19040154531E+03  0.33366554504E+03  0.38450254405E+03  0.00000000000E+00 0. -1.
         -4    1    6    6    0  503  0.89592650201E+01  0.19146229616E+00  0.79104478084E+02  0.79610448689E+02  0.00000000000E+00 0.  1.
<mgrwt>
<rscale>  0 0.18602024E+04</rscale>
<asrwt>0</asrwt>
<pdfrwt beam="1">  1        1 0.29124645E+00 0.18602024E+04</pdfrwt>
<pdfrwt beam="2">  1       -4 0.70302867E-01 0.18602024E+04</pdfrwt>
<totfact> 0.30200162E+00</totfact>
</mgrwt>
</event>
<event>
12    4  0.4207946E-008  0.1306866E+04  0.7818608E-02  0.9024138E-01
          1   -1    0    0  501    0  0.00000000000E+00  0.00000000000E+00  0.11533939957E+04  0.11533939957E+04  0.00000000000E+00 0. -1.
         -2   -1    0    0    0  501 -0.00000000000E+00 -0.00000000000E+00 -0.37018997805E+03  0.37018997805E+03  0.00000000000E+00 0.  1.
        -24    2    1    2    0    0  0.48633236235E+01  0.28079434936E+03 -0.73827213253E+01  0.29231473150E+03  0.80773009883E+02 0.  0.
        254    2    1    2    0    0 -0.48633236235E+01 -0.28079434936E+03  0.79058673893E+03  0.12312692422E+04  0.90118113412E+03 0.  0.
         23    2    4    4    0    0 -0.39023065593E+02 -0.17213299644E+03  0.97591046545E+03  0.99589215840E+03  0.90815122508E+02 0.  0.
         23    2    4    4    0    0  0.34159741970E+02 -0.10866135292E+03 -0.18532372652E+03  0.23537708381E+03  0.89907232103E+02 0.  0.
          1    1    3    3  502    0  0.19959317068E+02  0.22045102909E+03  0.23988321481E+02  0.22264875956E+03  0.00000000000E+00 0. -1.
         -2    1    3    3    0  502 -0.15095993444E+02  0.60343320268E+02 -0.31371042807E+02  0.69665971936E+02  0.00000000000E+00 0.  1.
         11    1    5    5    0    0 -0.10753716729E+02 -0.11688636030E+01  0.10576803870E+02  0.15128696101E+02  0.00000000000E+00 0. -1.
        -11    1    5    5    0    0 -0.28269348864E+02 -0.17096413284E+03  0.96533366158E+03  0.98076346230E+03  0.00000000000E+00 0.  1.
          4    1    6    6  503    0  0.25849062166E+02 -0.11229218401E+03 -0.10932284763E+03  0.15883700330E+03  0.00000000000E+00 0. -1.
         -4    1    6    6    0  503  0.83106798038E+01  0.36308310896E+01 -0.76000878882E+02  0.76540080508E+02  0.00000000000E+00 0.  1.
<mgrwt>
<rscale>  0 0.13068663E+04</rscale>
<asrwt>0</asrwt>
<pdfrwt beam="1">  1        1 0.17744523E+00 0.13068663E+04</pdfrwt>
<pdfrwt beam="2">  1       -2 0.56952305E-01 0.13068663E+04</pdfrwt>
<totfact> 0.28788000E+01</totfact>
</mgrwt>
</event>
<event>
12    4  0.4207946E-008  0.2838102E+04  0.7818608E-02  0.8291536E-01
          1   -1    0    0  501    0  0.00000000000E+00  0.00000000000E+00  0.19440420488E+04  0.19440420488E+04  0.00000000000E+00 0. -1.
         -2   -1    0    0    0  501 -0.00000000000E+00 -0.00000000000E+00 -0.10358344886E+04  0.10358344886E+04  0.00000000000E+00 0.  1.
        -24    2    1    2    0    0 -0.99763313434E+03  0.36667417466E+03 -0.32820209805E+03  0.11153255289E+04  0.80700664382E+02 0.  0.
        254    2    1    2    0    0  0.99763313434E+03 -0.36667417466E+03  0.12364096583E+04  0.18645510085E+04  0.90449975064E+03 0.  0.
         23    2    4    4    0    0  0.58170558413E+03  0.45109666839E+02  0.12276979382E+03  0.60320196461E+03  0.91454465092E+02 0.  0.
         23    2    4    4    0    0  0.41592755020E+03 -0.41178384150E+03  0.11136398645E+04  0.12613490439E+04  0.90807507972E+02 0.  0.
          1    1    3    3  502    0 -0.10512570820E+03  0.13596451826E+02 -0.37940796007E+02  0.11258677555E+03  0.00000000000E+00 0. -1.
         -2    1    3    3    0  502 -0.89250742613E+03  0.35307772283E+03 -0.29026130204E+03  0.10027387534E+04  0.00000000000E+00 0.  1.
         11    1    5    5    0    0  0.28359493100E+03 -0.11969321732E+02  0.90701258616E+02  0.29798669076E+03  0.00000000000E+00 0. -1.
        -11    1    5    5    0    0  0.29811065313E+03  0.57078988570E+02  0.32068535206E+02  0.30521527386E+03  0.00000000000E+00 0.  1.
          2    1    6    6  503    0  0.10619575794E+03 -0.54299798054E+02  0.22036983439E+03  0.25057707594E+03  0.00000000000E+00 0. -1.
         -2    1    6    6    0  503  0.30973179226E+03 -0.35748404344E+03  0.89327003010E+03  0.10107719679E+04  0.00000000000E+00 0.  1.
<mgrwt>
<rscale>  0 0.28381020E+04</rscale>
<asrwt>0</asrwt>
<pdfrwt beam="1">  1        1 0.29908339E+00 0.28381020E+04</pdfrwt>
<pdfrwt beam="2">  1       -2 0.15935915E+00 0.28381020E+04</pdfrwt>
<totfact> 0.62821160E-01</totfact>
</mgrwt>
</event>
<event>
12    4  0.4207946E-008  0.3171006E+04  0.7818608E-02  0.8196517E-01
          1   -1    0    0  501    0  0.00000000000E+00  0.00000000000E+00  0.17520072480E+04  0.17520072480E+04  0.00000000000E+00 0. -1.
         -2   -1    0    0    0  501 -0.00000000000E+00 -0.00000000000E+00 -0.14348225707E+04  0.14348225707E+04  0.00000000000E+00 0.  1.
        -24    2    1    2    0    0 -0.14464133881E+04  0.16324639459E+03  0.15518480718E+03  0.14658402621E+04  0.76447858846E+02 0.  0.
        254    2    1    2    0    0  0.14464133881E+04 -0.16324639459E+03  0.16199987009E+03  0.17209895565E+04  0.90376989390E+03 0.  0.
         23    2    4    4    0    0  0.69683448990E+03  0.10692532507E+03 -0.32611887483E+03  0.78219845301E+03  0.92030255455E+02 0.  0.
         23    2    4    4    0    0  0.74957889821E+03 -0.27017171966E+03  0.48811874492E+03  0.93879110351E+03  0.90595497403E+02 0.  0.
          3    1    3    3  502    0 -0.12637788731E+04  0.14817641314E+03  0.11056108845E+03  0.12772302234E+04  0.00000000000E+00 0. -1.
         -2    1    3    3    0  502 -0.18263451505E+03  0.15069981447E+02  0.44623718726E+02  0.18861003871E+03  0.00000000000E+00 0.  1.
         11    1    5    5    0    0  0.57036351700E+03  0.10062694294E+03 -0.30241177402E+03  0.65337064844E+03  0.00000000000E+00 0. -1.
        -11    1    5    5    0    0  0.12647097289E+03  0.62983821309E+01 -0.23707100811E+02  0.12882780457E+03  0.00000000000E+00 0.  1.
          1    1    6    6  503    0  0.56759963623E+03 -0.16286178534E+03  0.35144352768E+03  0.68717236653E+03  0.00000000000E+00 0. -1.
         -1    1    6    6    0  503  0.18197926197E+03 -0.10730993432E+03  0.13667521724E+03  0.25161873698E+03  0.00000000000E+00 0.  1.
<mgrwt>
<rscale>  0 0.31710059E+04</rscale>
<asrwt>0</asrwt>
<pdfrwt beam="1">  1        1 0.26953957E+00 0.31710059E+04</pdfrwt>
<pdfrwt beam="2">  1       -2 0.22074194E+00 0.31710059E+04</pdfrwt>
<totfact> 0.31653264E-01</totfact>
</mgrwt>
</event>
<event>
12    4  0.4207946E-008  0.1392766E+04  0.7818608E-02  0.8959071E-01
         -4   -1    0    0    0  501 -0.00000000000E+00  0.00000000000E+00  0.13422778437E+04  0.13422778437E+04  0.00000000000E+00 0.  1.
          3   -1    0    0  501    0  0.00000000000E+00 -0.00000000000E+00 -0.36128845204E+03  0.36128845204E+03  0.00000000000E+00 0. -1.
        -24    2    1    2    0    0  0.23427051817E+03 -0.31989028003E+03  0.19425832600E+03  0.44889803928E+03  0.80998058644E+02 0.  0.
        254    2    1    2    0    0 -0.23427051817E+03  0.31989028003E+03  0.78673106562E+03  0.12546682564E+04  0.89332759786E+03 0.  0.
         23    2    4    4    0    0 -0.54618004346E+02  0.35996587467E+01  0.86428262928E+03  0.87189650071E+03  0.10110865803E+03 0.  0.
         23    2    4    4    0    0 -0.17965251383E+03  0.31629062128E+03 -0.77551563658E+02  0.38277175571E+03  0.90472034922E+02 0.  0.
          1    1    3    3  502    0  0.54179741375E+02 -0.33818387970E+02  0.12451238659E+02  0.65070431723E+02  0.00000000000E+00 0. -1.
         -2    1    3    3    0  502  0.18009077680E+03 -0.28607189206E+03  0.18180708734E+03  0.38382760756E+03  0.00000000000E+00 0.  1.
         11    1    5    5    0    0  0.19617745692E+02 -0.23897611170E+02  0.37270493964E+03  0.37398519195E+03  0.00000000000E+00 0.  1.
        -11    1    5    5    0    0 -0.74235750038E+02  0.27497269917E+02  0.49157768964E+03  0.49791130876E+03  0.00000000000E+00 0. -1.
          1    1    6    6  503    0 -0.14510317028E+03  0.25619622019E+03 -0.24441801667E+02  0.29544683944E+03  0.00000000000E+00 0.  1.
         -1    1    6    6    0  503 -0.34549343552E+02  0.60094401093E+02 -0.53109761991E+02  0.87324916269E+02  0.00000000000E+00 0. -1.
<mgrwt>
<rscale>  0 0.13927663E+04</rscale>
<asrwt>0</asrwt>
<pdfrwt beam="1">  1        3 0.55582839E-01 0.13927663E+04</pdfrwt>
<pdfrwt beam="2">  1       -4 0.20650428E+00 0.13927663E+04</pdfrwt>
<totfact> 0.84719669E-01</totfact>
</mgrwt>
</event>
<event>
12    4  0.4207946E-008  0.1503114E+04  0.7818608E-02  0.8882385E-01
         -2   -1    0    0    0  501 -0.00000000000E+00  0.00000000000E+00  0.14943219510E+03  0.14943219510E+03  0.00000000000E+00 0.  1.
          1   -1    0    0  501    0  0.00000000000E+00 -0.00000000000E+00 -0.37798936091E+04  0.37798936091E+04  0.00000000000E+00 0. -1.
        -24    2    1    2    0    0  0.83261904756E+02  0.45802472384E+02 -0.24156556191E+04  0.24187841422E+04  0.78065647776E+02 0.  0.
        254    2    1    2    0    0 -0.83261904756E+02 -0.45802472384E+02 -0.12148057949E+04  0.15105416619E+04  0.89272200709E+03 0.  0.
         23    2    4    4    0    0 -0.37193869728E+02 -0.41425216711E+03 -0.30839811823E+03  0.52616342126E+03  0.93543063015E+02 0.  0.
         23    2    4    4    0    0 -0.46068035028E+02  0.36844969473E+03 -0.90640767664E+03  0.98437824068E+03  0.97714907021E+02 0.  0.
          1    1    3    3  502    0  0.60377731639E+02  0.67031149720E+02 -0.16118300577E+04  0.16143527435E+04  0.00000000000E+00 0. -1.
         -2    1    3    3    0  502  0.22884173117E+02 -0.21228677335E+02 -0.80382556140E+03  0.80443139874E+03  0.00000000000E+00 0.  1.
         11    1    5    5    0    0  0.13728026371E+01 -0.53074340283E+02 -0.83484101443E+02  0.98936168196E+02  0.00000000000E+00 0. -1.
        -11    1    5    5    0    0 -0.38566672365E+02 -0.36117782683E+03 -0.22491401679E+03  0.42722725306E+03  0.00000000000E+00 0.  1.
          1    1    6    6  503    0 -0.52843040175E+01  0.13844204150E+01 -0.68133522623E+02  0.68352157200E+02  0.00000000000E+00 0. -1.
         -1    1    6    6    0  503 -0.40783731011E+02  0.36706527432E+03 -0.83827415401E+03  0.91602608348E+03  0.00000000000E+00 0.  1.
<mgrwt>
<rscale>  0 0.15031138E+04</rscale>
<asrwt>0</asrwt>
<pdfrwt beam="1">  1        1 0.58152210E+00 0.15031138E+04</pdfrwt>
<pdfrwt beam="2">  1       -2 0.22989568E-01 0.15031138E+04</pdfrwt>
<totfact> 0.21331946E+00</totfact>
</mgrwt>
</event>
<event>
12    4  0.4207946E-008  0.1577152E+04  0.7818608E-02  0.8834708E-01
          1   -1    0    0  501    0  0.00000000000E+00  0.00000000000E+00  0.91877239629E+03  0.91877239629E+03  0.00000000000E+00 0. -1.
         -2   -1    0    0    0  501 -0.00000000000E+00 -0.00000000000E+00 -0.67682962417E+03  0.67682962417E+03  0.00000000000E+00 0.  1.
        -24    2    1    2    0    0 -0.87729468464E+02 -0.34493299159E+03  0.44569416997E+03  0.57557110559E+03  0.77224193900E+02 0.  0.
        254    2    1    2    0    0  0.87729468464E+02  0.34493299159E+03 -0.20375139785E+03  0.10200309149E+04  0.93395567713E+03 0.  0.
         23    2    4    4    0    0  0.16924665578E+03  0.51803645228E+03 -0.43950442968E+03  0.70611536283E+03  0.91807219412E+02 0.  0.
         23    2    4    4    0    0 -0.81517187319E+02 -0.17310346069E+03  0.23575303183E+03  0.31391555204E+03  0.79709609601E+02 0.  0.
          3    1    3    3  502    0 -0.56739312705E+02 -0.30774512575E+03  0.40816185041E+03  0.51431751687E+03  0.00000000000E+00 0. -1.
         -4    1    3    3    0  502 -0.30990155760E+02 -0.37187865841E+02  0.37532319555E+02  0.61253588719E+02  0.00000000000E+00 0.  1.
         11    1    5    5    0    0  0.42703041173E+02  0.22060725116E+03 -0.22626267611E+03  0.31888227858E+03  0.00000000000E+00 0.  1.
        -11    1    5    5    0    0  0.12654361461E+03  0.29742920112E+03 -0.21324175357E+03  0.38723308426E+03  0.00000000000E+00 0. -1.
          3    1    6    6  503    0 -0.13072898365E+02  0.60175331586E+01  0.90837114075E+01  0.17018378005E+02  0.00000000000E+00 0. -1.
         -3    1    6    6    0  503 -0.68444288954E+02 -0.17912099385E+03  0.22666932042E+03  0.29689717403E+03  0.00000000000E+00 0.  1.
<mgrwt>
<rscale>  0 0.15771523E+04</rscale>
<asrwt>0</asrwt>
<pdfrwt beam="1">  1        1 0.14134960E+00 0.15771523E+04</pdfrwt>
<pdfrwt beam="2">  1       -2 0.10412763E+00 0.15771523E+04</pdfrwt>
<totfact> 0.11098465E+01</totfact>
</mgrwt>
</event>
<event>
12    4  0.4207946E-008  0.1484062E+04  0.7818608E-02  0.8895121E-01
          3   -1    0    0  501    0  0.00000000000E+00  0.00000000000E+00  0.12536198923E+04  0.12536198923E+04  0.00000000000E+00 0. -1.
         -4   -1    0    0    0  501 -0.00000000000E+00 -0.00000000000E+00 -0.43921624679E+03  0.43921624679E+03  0.00000000000E+00 0.  1.
        -24    2    1    2    0    0  0.10561063880E+03  0.28835597823E+03 -0.13610436042E+03  0.34536512170E+03  0.80311226841E+02 0.  0.
        254    2    1    2    0    0 -0.10561063880E+03 -0.28835597823E+03  0.95050800592E+03  0.13474710174E+04  0.90438371070E+03 0.  0.
         23    2    4    4    0    0 -0.18558332399E+03 -0.19567262592E+03 -0.87879093838E+02  0.29798378736E+03  0.91338139444E+02 0.  0.
         23    2    4    4    0    0  0.79972685196E+02 -0.92683352309E+02  0.10383870998E+04  0.10494872300E+04  0.90497750673E+02 0.  0.
          1    1    3    3  502    0  0.19711414969E+02  0.14406538196E+03 -0.35744762255E+02  0.14973664277E+03  0.00000000000E+00 0. -1.
         -2    1    3    3    0  502  0.85899223828E+02  0.14429059626E+03 -0.10035959816E+03  0.19562847893E+03  0.00000000000E+00 0.  1.
         11    1    5    5    0    0 -0.59936163796E+02 -0.24163380580E+02  0.73149198319E+01  0.65036303276E+02  0.00000000000E+00 0.  1.
        -11    1    5    5    0    0 -0.12564716020E+03 -0.17150924534E+03 -0.95194013670E+02  0.23294748408E+03  0.00000000000E+00 0. -1.
          3    1    6    6  503    0  0.83776410379E+02 -0.69659526586E+02  0.55822339462E+03  0.56875679766E+03  0.00000000000E+00 0.  1.
         -3    1    6    6    0  503 -0.38037251838E+01 -0.23023825722E+02  0.48016370514E+03  0.48073043237E+03  0.00000000000E+00 0. -1.
<mgrwt>
<rscale>  0 0.14840623E+04</rscale>
<asrwt>0</asrwt>
<pdfrwt beam="1">  1        3 0.19286460E+00 0.14840623E+04</pdfrwt>
<pdfrwt beam="2">  1       -4 0.67571731E-01 0.14840623E+04</pdfrwt>
<totfact> 0.73412597E-01</totfact>
</mgrwt>
</event>
<event>
12    4  0.4207946E-008  0.1573198E+04  0.7818608E-02  0.8837185E-01
          1   -1    0    0  501    0  0.00000000000E+00  0.00000000000E+00  0.55325859780E+03  0.55325859780E+03  0.00000000000E+00 0. -1.
         -2   -1    0    0    0  501 -0.00000000000E+00 -0.00000000000E+00 -0.11183526521E+04  0.11183526521E+04  0.00000000000E+00 0.  1.
        -24    2    1    2    0    0 -0.24879900644E+03 -0.42966021187E+03 -0.40509816318E+02  0.50290156999E+03  0.68993482393E+02 0.  0.
        254    2    1    2    0    0  0.24879900644E+03  0.42966021187E+03 -0.52458423798E+03  0.11687096799E+04  0.91879532536E+03 0.  0.
         23    2    4    4    0    0 -0.27031122521E+03 -0.33288230843E+02  0.10095184333E+02  0.28692297669E+03  0.89702937617E+02 0.  0.
         23    2    4    4    0    0  0.51911023165E+03  0.46294844271E+03 -0.53467942231E+03  0.88178670322E+03  0.88707452421E+02 0.  0.
          3    1    3    3  502    0 -0.21851703738E+03 -0.36409119213E+03 -0.10696954523E+02  0.42476642599E+03  0.00000000000E+00 0. -1.
         -4    1    3    3    0  502 -0.30281969059E+02 -0.65569019732E+02 -0.29812861795E+02  0.78135143995E+02  0.00000000000E+00 0.  1.
         11    1    5    5    0    0 -0.44238504991E+02 -0.10776467375E+02  0.36292895019E+02  0.58226727555E+02  0.00000000000E+00 0. -1.
        -11    1    5    5    0    0 -0.22607272022E+03 -0.22511763468E+02 -0.26197710686E+02  0.22869624914E+03  0.00000000000E+00 0.  1.
          4    1    6    6  503    0  0.14603162541E+02  0.12191172071E+02 -0.38018883394E+02  0.42512498483E+02  0.00000000000E+00 0. -1.
         -4    1    6    6    0  503  0.50450706911E+03  0.45075727064E+03 -0.49666053891E+03  0.83927420474E+03  0.00000000000E+00 0.  1.
<mgrwt>
<rscale>  0 0.15731983E+04</rscale>
<asrwt>0</asrwt>
<pdfrwt beam="1">  1        1 0.85116708E-01 0.15731983E+04</pdfrwt>
<pdfrwt beam="2">  1       -2 0.17205425E+00 0.15731983E+04</pdfrwt>
<totfact> 0.66644696E+00</totfact>
</mgrwt>
</event>
<event>
12    4  0.4207946E-008  0.1526597E+04  0.7818608E-02  0.8866956E-01
         -2   -1    0    0    0  501 -0.00000000000E+00  0.00000000000E+00  0.32019925073E+03  0.32019925073E+03  0.00000000000E+00 0.  1.
          1   -1    0    0  501    0  0.00000000000E+00 -0.00000000000E+00 -0.18195694151E+04  0.18195694151E+04  0.00000000000E+00 0. -1.
        -24    2    1    2    0    0 -0.36494377080E+03 -0.56118037048E+02 -0.94354857222E+03  0.10165794627E+04  0.82563345422E+02 0.  0.
        254    2    1    2    0    0  0.36494377080E+03  0.56118037048E+02 -0.55582159214E+03  0.11231892031E+04  0.90348389785E+03 0.  0.
         23    2    4    4    0    0  0.52984990387E+03 -0.14403042514E+02 -0.44093710773E+01  0.53750304638E+03  0.89116295077E+02 0.  0.
         23    2    4    4    0    0 -0.16490613307E+03  0.70521079562E+02 -0.55141222107E+03  0.58568615669E+03  0.82495946633E+02 0.  0.
          1    1    3    3  502    0 -0.63608465635E+02 -0.42778182088E+02 -0.19892885164E+03  0.21318700189E+03  0.00000000000E+00 0. -1.
         -2    1    3    3    0  502 -0.30133530516E+03 -0.13339854960E+02 -0.74461972058E+03  0.80339246085E+03  0.00000000000E+00 0.  1.
         11    1    5    5    0    0  0.53239887438E+02 -0.22958572006E+02 -0.17732123342E+02  0.60630106722E+02  0.00000000000E+00 0.  1.
        -11    1    5    5    0    0  0.47661001643E+03  0.85555294921E+01  0.13322752265E+02  0.47687293966E+03  0.00000000000E+00 0. -1.
          1    1    6    6  503    0 -0.11484008052E+03  0.50955180209E+01 -0.31303524748E+03  0.33347454860E+03  0.00000000000E+00 0. -1.
         -1    1    6    6    0  503 -0.50066052558E+02  0.65425561541E+02 -0.23837697358E+03  0.25221160809E+03  0.00000000000E+00 0.  1.
<mgrwt>
<rscale>  0 0.15265972E+04</rscale>
<asrwt>0</asrwt>
<pdfrwt beam="1">  1        1 0.27993375E+00 0.15265972E+04</pdfrwt>
<pdfrwt beam="2">  1       -2 0.49261424E-01 0.15265972E+04</pdfrwt>
<totfact> 0.13062114E+01</totfact>
</mgrwt>
</event>
<event>
12    4  0.4207946E-008  0.1407257E+04  0.7818608E-02  0.8948582E-01
          1   -1    0    0  501    0  0.00000000000E+00  0.00000000000E+00  0.77122883625E+03  0.77122883625E+03  0.00000000000E+00 0. -1.
         -2   -1    0    0    0  501 -0.00000000000E+00 -0.00000000000E+00 -0.64195326762E+03  0.64195326762E+03  0.00000000000E+00 0.  1.
        -24    2    1    2    0    0 -0.26213389135E+03 -0.23558221333E+03  0.25114278851E+03  0.44003573512E+03  0.79659222505E+02 0.  0.
        254    2    1    2    0    0  0.26213389135E+03  0.23558221333E+03 -0.12186721989E+03  0.97314636875E+03  0.89885987756E+03 0.  0.
         23    2    4    4    0    0  0.20269794924E+03  0.21487465815E+03  0.36259536804E+03  0.47625147886E+03  0.89902685434E+02 0.  0.
         23    2    4    4    0    0  0.59435942110E+02  0.20707555181E+02 -0.48446258793E+03  0.49689488989E+03  0.90769479662E+02 0.  0.
          3    1    3    3  502    0 -0.25758220411E+03 -0.22641306267E+03  0.25671059419E+03  0.42838276809E+03  0.00000000000E+00 0. -1.
         -4    1    3    3    0  502 -0.45516872363E+01 -0.91691506609E+01 -0.55678056828E+01  0.11652967033E+02  0.00000000000E+00 0.  1.
         11    1    5    5    0    0  0.18052601632E+03  0.18984944832E+03  0.35627244557E+03  0.44222450301E+03  0.00000000000E+00 0.  1.
        -11    1    5    5    0    0  0.22171932919E+02  0.25025209832E+02  0.63229224747E+01  0.34026975845E+02  0.00000000000E+00 0. -1.
          1    1    6    6  503    0  0.74047212686E+02  0.30019429515E+02 -0.26586882886E+03  0.27761554354E+03  0.00000000000E+00 0. -1.
         -1    1    6    6    0  503 -0.14611270576E+02 -0.93118743348E+01 -0.21859375907E+03  0.21927934635E+03  0.00000000000E+00 0.  1.
<mgrwt>
<rscale>  0 0.14072567E+04</rscale>
<asrwt>0</asrwt>
<pdfrwt beam="1">  1        1 0.11865059E+00 0.14072567E+04</pdfrwt>
<pdfrwt beam="2">  1       -2 0.98762041E-01 0.14072567E+04</pdfrwt>
<totfact> 0.17022720E+01</totfact>
</mgrwt>
</event>
<event>
12    4  0.4207946E-008  0.1324238E+04  0.7818608E-02  0.9010562E-01
         -4   -1    0    0    0  501 -0.00000000000E+00  0.00000000000E+00  0.10454553303E+04  0.10454553303E+04  0.00000000000E+00 0.  1.
          1   -1    0    0  501    0  0.00000000000E+00 -0.00000000000E+00 -0.41934041518E+03  0.41934041518E+03  0.00000000000E+00 0. -1.
        -24    2    1    2    0    0  0.64017402134E+01  0.32174395683E+02  0.54131561362E+03  0.54788252119E+03  0.77951840598E+02 0.  0.
        254    2    1    2    0    0 -0.64017402134E+01 -0.32174395683E+02  0.84799301541E+02  0.91691322435E+03  0.91239397490E+03 0.  0.
         23    2    4    4    0    0  0.23297738394E+03  0.26754391050E+03 -0.21239781948E+03  0.42323793709E+03  0.90328911195E+02 0.  0.
         23    2    4    4    0    0 -0.23937912415E+03 -0.29971830619E+03  0.29719712103E+03  0.49367528726E+03  0.90861060719E+02 0.  0.
          1    1    3    3  502    0 -0.19593766306E+02 -0.68824828104E+01  0.47478464894E+02  0.51821702754E+02  0.00000000000E+00 0. -1.
         -2    1    3    3    0  502  0.25995506520E+02  0.39056878493E+02  0.49383714873E+03  0.49606081843E+03  0.00000000000E+00 0.  1.
         11    1    5    5    0    0 -0.35314518669E+01  0.16837881341E+02  0.20247236819E+01  0.17322958937E+02  0.00000000000E+00 0.  1.
        -11    1    5    5    0    0  0.23650883581E+03  0.25070602916E+03 -0.21442254317E+03  0.40591497816E+03  0.00000000000E+00 0. -1.
          1    1    6    6  503    0 -0.21924789894E+03 -0.29248949701E+03  0.29894265641E+03  0.47221442044E+03  0.00000000000E+00 0. -1.
         -1    1    6    6    0  503 -0.20131225213E+02 -0.72288091769E+01 -0.17455353805E+01  0.21460866815E+02  0.00000000000E+00 0.  1.
<mgrwt>
<rscale>  0 0.13242382E+04</rscale>
<asrwt>0</asrwt>
<pdfrwt beam="1">  1        1 0.64513910E-01 0.13242382E+04</pdfrwt>
<pdfrwt beam="2">  1       -4 0.16083928E+00 0.13242382E+04</pdfrwt>
<totfact> 0.65039752E+00</totfact>
</mgrwt>
</event>
<event>
12    4  0.4207946E-008  0.1301933E+04  0.7818608E-02  0.9028034E-01
         -2   -1    0    0    0  501 -0.00000000000E+00  0.00000000000E+00  0.25392429427E+03  0.25392429427E+03  0.00000000000E+00 0.  1.
          1   -1    0    0  501    0  0.00000000000E+00 -0.00000000000E+00 -0.16688330732E+04  0.16688330732E+04  0.00000000000E+00 0. -1.
        -24    2    1    2    0    0 -0.81711000179E+02 -0.13272667867E+01  0.10573751776E+03  0.15546277882E+03  0.79434273133E+02 0.  0.
        254    2    1    2    0    0  0.81711000179E+02  0.13272667867E+01 -0.15206462967E+04  0.17672945886E+04  0.89682024635E+03 0.  0.
         23    2    4    4    0    0 -0.15120078188E+03 -0.33308028234E+03 -0.31601604897E+03  0.49230587441E+03  0.93245803355E+02 0.  0.
         23    2    4    4    0    0  0.23291178206E+03  0.33440754912E+03 -0.12046302477E+04  0.12749887142E+04  0.91574453932E+02 0.  0.
          1    1    3    3  502    0 -0.12808078571E+02 -0.24345993041E+02  0.41052388330E+00  0.27512593184E+02  0.00000000000E+00 0. -1.
         -2    1    3    3    0  502 -0.68902921608E+02  0.23018726254E+02  0.10532699388E+03  0.12795018563E+03  0.00000000000E+00 0.  1.
         11    1    5    5    0    0 -0.16044447055E+03 -0.29429644037E+03 -0.26345979644E+03  0.42633776197E+03  0.00000000000E+00 0.  1.
        -11    1    5    5    0    0  0.92436886635E+01 -0.38783841972E+02 -0.52556252538E+02  0.65968112441E+02  0.00000000000E+00 0. -1.
          3    1    6    6  503    0  0.88371342815E+02  0.20549804996E+03 -0.67041368258E+03  0.70674850446E+03  0.00000000000E+00 0. -1.
         -3    1    6    6    0  503  0.14454043925E+03  0.12890949917E+03 -0.53421656510E+03  0.56824020976E+03  0.00000000000E+00 0.  1.
<mgrwt>
<rscale>  0 0.13019328E+04</rscale>
<asrwt>0</asrwt>
<pdfrwt beam="1">  1        1 0.25674356E+00 0.13019328E+04</pdfrwt>
<pdfrwt beam="2">  1       -2 0.39065275E-01 0.13019328E+04</pdfrwt>
<totfact> 0.26737000E+01</totfact>
</mgrwt>
</event>
<event>
12    4  0.4207946E-008  0.1101006E+04  0.7818608E-02  0.9204212E-01
          1   -1    0    0  501    0  0.00000000000E+00  0.00000000000E+00  0.54566268320E+03  0.54566268320E+03  0.00000000000E+00 0. -1.
         -2   -1    0    0    0  501 -0.00000000000E+00 -0.00000000000E+00 -0.55538628607E+03  0.55538628607E+03  0.00000000000E+00 0.  1.
        -24    2    1    2    0    0 -0.14648424184E+03 -0.65668974003E+02  0.53573849034E+02  0.18454928764E+03  0.73608661285E+02 0.  0.
        254    2    1    2    0    0  0.14648424184E+03  0.65668974003E+02 -0.63297451901E+02  0.91649968162E+03  0.90010835556E+03 0.  0.
         23    2    4    4    0    0  0.29278254684E+03  0.35762516306E+02  0.35057737093E+03  0.46730891936E+03  0.92046487156E+02 0.  0.
         23    2    4    4    0    0 -0.14629830500E+03  0.29906457697E+02 -0.41387482283E+03  0.44919076227E+03  0.90456518136E+02 0.  0.
          1    1    3    3  502    0 -0.88127967407E+02 -0.63093851235E+02  0.63023563950E+02  0.12537680135E+03  0.00000000000E+00 0. -1.
         -2    1    3    3    0  502 -0.58356274428E+02 -0.25751227685E+01 -0.94497149159E+01  0.59172486296E+02  0.00000000000E+00 0.  1.
         11    1    5    5    0    0  0.12755824455E+03 -0.28077753767E+02  0.16973333377E+03  0.21417019075E+03  0.00000000000E+00 0.  1.
        -11    1    5    5    0    0  0.16522430228E+03  0.63840270073E+02  0.18084403716E+03  0.25313872861E+03  0.00000000000E+00 0. -1.
          2    1    6    6  503    0 -0.97936182499E+02  0.52031336450E+02 -0.19882465460E+03  0.22766202822E+03  0.00000000000E+00 0.  1.
         -2    1    6    6    0  503 -0.48362122502E+02 -0.22124878753E+02 -0.21505016823E+03  0.22152873405E+03  0.00000000000E+00 0. -1.
<mgrwt>
<rscale>  0 0.11010060E+04</rscale>
<asrwt>0</asrwt>
<pdfrwt beam="1">  1        1 0.83948105E-01 0.11010060E+04</pdfrwt>
<pdfrwt beam="2">  1       -2 0.85444044E-01 0.11010060E+04</pdfrwt>
<totfact> 0.40732222E+01</totfact>
</mgrwt>
</event>
<event>
12    4  0.4207946E-008  0.1044843E+04  0.7818608E-02  0.9260685E-01
          1   -1    0    0  501    0  0.00000000000E+00  0.00000000000E+00  0.56003757506E+03  0.56003757506E+03  0.00000000000E+00 0. -1.
         -2   -1    0    0    0  501 -0.00000000000E+00 -0.00000000000E+00 -0.48733164136E+03  0.48733164136E+03  0.00000000000E+00 0.  1.
        -24    2    1    2    0    0  0.70743754659E+02 -0.71806966387E+02 -0.52075334381E+02  0.13750559055E+03  0.77685440957E+02 0.  0.
        254    2    1    2    0    0 -0.70743754659E+02  0.71806966387E+02  0.12478126808E+03  0.90986362587E+03  0.89561182081E+03 0.  0.
         23    2    4    4    0    0 -0.18978346999E+03  0.14034507792E+03  0.46629928691E+03  0.53020386984E+03  0.89255880737E+02 0.  0.
         23    2    4    4    0    0  0.11903971533E+03 -0.68538111529E+02 -0.34151801883E+03  0.37965975603E+03  0.92946471721E+02 0.  0.
          3    1    3    3  502    0 -0.66789758226E+01 -0.23270368670E+02  0.10877230380E+02  0.26541155152E+02  0.00000000000E+00 0. -1.
         -4    1    3    3    0  502  0.77422730482E+02 -0.48536597717E+02 -0.62952564761E+02  0.11096443540E+03  0.00000000000E+00 0.  1.
         11    1    5    5    0    0 -0.18971440077E+03  0.11118431413E+03  0.43503175513E+03  0.48744859580E+03  0.00000000000E+00 0. -1.
        -11    1    5    5    0    0 -0.69069212565E-01  0.29160763788E+02  0.31267531777E+02  0.42755274045E+02  0.00000000000E+00 0.  1.
          3    1    6    6  503    0  0.98889414363E+02 -0.31933104478E+02 -0.31104134982E+03  0.32794139832E+03  0.00000000000E+00 0. -1.
         -3    1    6    6    0  503  0.20150300964E+02 -0.36605007051E+02 -0.30476669011E+02  0.51718357709E+02  0.00000000000E+00 0.  1.
<mgrwt>
<rscale>  0 0.10448426E+04</rscale>
<asrwt>0</asrwt>
<pdfrwt beam="1">  1        1 0.86159627E-01 0.10448426E+04</pdfrwt>
<pdfrwt beam="2">  1       -2 0.74974098E-01 0.10448426E+04</pdfrwt>
<totfact> 0.52893805E+01</totfact>
</mgrwt>
</event>
<event>
12    4  0.4207946E-008  0.1740820E+04  0.7818608E-02  0.8738419E-01
          1   -1    0    0  501    0  0.00000000000E+00  0.00000000000E+00  0.61996668399E+03  0.61996668399E+03  0.00000000000E+00 0. -1.
         -2   -1    0    0    0  501 -0.00000000000E+00 -0.00000000000E+00 -0.12220236999E+04  0.12220236999E+04  0.00000000000E+00 0.  1.
        -24    2    1    2    0    0  0.22950241911E+03 -0.55394755456E+03  0.10359826164E+02  0.60579019018E+03  0.85703996075E+02 0.  0.
        254    2    1    2    0    0 -0.22950241911E+03  0.55394755456E+03 -0.61241684208E+03  0.12362001937E+04  0.89084638234E+03 0.  0.
         23    2    4    4    0    0  0.32965543153E+03  0.28826046141E+03 -0.22776354013E+03  0.50171956078E+03  0.89885985020E+02 0.  0.
         23    2    4    4    0    0 -0.55915785064E+03  0.26568709314E+03 -0.38465330195E+03  0.73448063295E+03  0.90865307354E+02 0.  0.
          3    1    3    3  502    0  0.12262954245E+03 -0.35253183504E+03 -0.29113599827E+02  0.37438523087E+03  0.00000000000E+00 0. -1.
         -4    1    3    3    0  502  0.10687287666E+03 -0.20141571951E+03  0.39473425992E+02  0.23140495930E+03  0.00000000000E+00 0.  1.
         11    1    5    5    0    0  0.31475707399E+03  0.25981575114E+03 -0.18465462243E+03  0.44796603638E+03  0.00000000000E+00 0. -1.
        -11    1    5    5    0    0  0.14898357547E+02  0.28444710277E+02 -0.43108917702E+02  0.53753524403E+02  0.00000000000E+00 0.  1.
          4    1    6    6  503    0 -0.51537375371E+03  0.26899043612E+03 -0.35030986534E+03  0.67873629820E+03  0.00000000000E+00 0. -1.
         -4    1    6    6    0  503 -0.43784096926E+02 -0.33033429730E+01 -0.34343436611E+02  0.55744334749E+02  0.00000000000E+00 0.  1.
<mgrwt>
<rscale>  0 0.17408205E+04</rscale>
<asrwt>0</asrwt>
<pdfrwt beam="1">  1        1 0.95379491E-01 0.17408205E+04</pdfrwt>
<pdfrwt beam="2">  1       -2 0.18800364E+00 0.17408205E+04</pdfrwt>
<totfact> 0.43306303E+00</totfact>
</mgrwt>
</event>
<event>
12    4  0.4207946E-008  0.2567969E+04  0.7818608E-02  0.8379164E-01
         -2   -1    0    0    0  501 -0.00000000000E+00  0.00000000000E+00  0.58912515162E+03  0.58912515162E+03  0.00000000000E+00 0.  1.
          1   -1    0    0  501    0  0.00000000000E+00 -0.00000000000E+00 -0.27984135890E+04  0.27984135890E+04  0.00000000000E+00 0. -1.
        -24    2    1    2    0    0 -0.10263121838E+04  0.33271030389E+03 -0.56230604491E+03  0.12197441753E+04  0.87034016575E+02 0.  0.
        254    2    1    2    0    0  0.10263121838E+04 -0.33271030389E+03 -0.16469823925E+04  0.21677945654E+04  0.90706638763E+03 0.  0.
         23    2    4    4    0    0  0.65526634680E+03 -0.38068873213E+03 -0.16104078458E+04  0.17821302209E+04  0.90976911175E+02 0.  0.
         23    2    4    4    0    0  0.37104583700E+03  0.47978428243E+02 -0.36574546745E+02  0.38566434454E+03  0.86153040825E+02 0.  0.
          1    1    3    3  502    0 -0.69765722477E+03  0.22867549171E+03 -0.42766181438E+03  0.84965446580E+03  0.00000000000E+00 0. -1.
         -2    1    3    3    0  502 -0.32865495903E+03  0.10403481218E+03 -0.13464423053E+03  0.37008970947E+03  0.00000000000E+00 0.  1.
         11    1    5    5    0    0  0.49040873587E+03 -0.28921236825E+03 -0.11124547688E+04  0.12496800130E+04  0.00000000000E+00 0.  1.
        -11    1    5    5    0    0  0.16485761092E+03 -0.91476363884E+02 -0.49795307694E+03  0.53245020787E+03  0.00000000000E+00 0. -1.
          3    1    6    6  503    0  0.22386568165E+03 -0.13046423380E+02 -0.13255062593E+02  0.22463692766E+03  0.00000000000E+00 0. -1.
         -3    1    6    6    0  503  0.14718015536E+03  0.61024851623E+02 -0.23319484153E+02  0.16102741688E+03  0.00000000000E+00 0.  1.
<mgrwt>
<rscale>  0 0.25679687E+04</rscale>
<asrwt>0</asrwt>
<pdfrwt beam="1">  1        1 0.43052517E+00 0.25679687E+04</pdfrwt>
<pdfrwt beam="2">  1       -2 0.90634638E-01 0.25679687E+04</pdfrwt>
<totfact> 0.67458413E-01</totfact>
</mgrwt>
</event>
<event>
12    4  0.4207946E-008  0.1107743E+04  0.7818608E-02  0.9197678E-01
          1   -1    0    0  501    0  0.00000000000E+00  0.00000000000E+00  0.67787795311E+03  0.67787795311E+03  0.00000000000E+00 0. -1.
         -2   -1    0    0    0  501 -0.00000000000E+00 -0.00000000000E+00 -0.45255006296E+03  0.45255006296E+03  0.00000000000E+00 0.  1.
        -24    2    1    2    0    0 -0.15332066552E+03  0.10230644058E+03  0.62490489149E+02  0.21210539677E+03  0.84319652772E+02 0.  0.
        254    2    1    2    0    0  0.15332066552E+03 -0.10230644058E+03  0.16283740100E+03  0.91832261929E+03  0.88477487514E+03 0.  0.
         23    2    4    4    0    0  0.27138499998E+03 -0.23833294374E+03 -0.25768145568E+03  0.45263293639E+03  0.89579195194E+02 0.  0.
         23    2    4    4    0    0 -0.11806433446E+03  0.13602650316E+03  0.42051885668E+03  0.46568968291E+03  0.87111281168E+02 0.  0.
          1    1    3    3  502    0  0.27101475956E+01 -0.99721669204E+01  0.15618485569E+01  0.10451238395E+02  0.00000000000E+00 0. -1.
         -2    1    3    3    0  502 -0.15603081312E+03  0.11227860750E+03  0.60928640592E+02  0.20165415837E+03  0.00000000000E+00 0.  1.
         11    1    5    5    0    0  0.18048339655E+02  0.70329707109E+01 -0.11460743539E+02  0.22506751960E+02  0.00000000000E+00 0.  1.
        -11    1    5    5    0    0  0.25333666033E+03 -0.24536591446E+03 -0.24622071214E+03  0.43012618443E+03  0.00000000000E+00 0. -1.
          3    1    6    6  503    0 -0.12086748848E+03  0.14327611937E+03  0.41692735818E+03  0.45712735442E+03  0.00000000000E+00 0. -1.
         -3    1    6    6    0  503  0.28031540201E+01 -0.72496162137E+01  0.35914985000E+01  0.85623284906E+01  0.00000000000E+00 0.  1.
<mgrwt>
<rscale>  0 0.11077431E+04</rscale>
<asrwt>0</asrwt>
<pdfrwt beam="1">  1        1 0.10428892E+00 0.11077431E+04</pdfrwt>
<pdfrwt beam="2">  1       -2 0.69623087E-01 0.11077431E+04</pdfrwt>
<totfact> 0.46938989E+01</totfact>
</mgrwt>
</event>
<event>
12    4  0.4207946E-008  0.2756275E+04  0.7818608E-02  0.8316973E-01
         -2   -1    0    0    0  501 -0.00000000000E+00  0.00000000000E+00  0.13851058868E+04  0.13851058868E+04  0.00000000000E+00 0.  1.
          1   -1    0    0  501    0  0.00000000000E+00 -0.00000000000E+00 -0.13712039674E+04  0.13712039674E+04  0.00000000000E+00 0. -1.
        -24    2    1    2    0    0 -0.24381636259E+03  0.43855615224E+03  0.11287952828E+04  0.12378426157E+04  0.79357629936E+02 0.  0.
        254    2    1    2    0    0  0.24381636259E+03 -0.43855615224E+03 -0.11148933633E+04  0.15184672386E+04  0.90054296158E+03 0.  0.
         23    2    4    4    0    0  0.57235448610E+03 -0.22877988462E+03 -0.58705532175E+03  0.85579783687E+03  0.88465210285E+02 0.  0.
         23    2    4    4    0    0 -0.32853812351E+03 -0.20977626762E+03 -0.52783804158E+03  0.66266940169E+03  0.92597822557E+02 0.  0.
          3    1    3    3  502    0 -0.86752467703E+02  0.90389059815E+02  0.30911214987E+03  0.33353634582E+03  0.00000000000E+00 0. -1.
         -4    1    3    3    0  502 -0.15706389488E+03  0.34816709242E+03  0.81968313288E+03  0.90430626983E+03  0.00000000000E+00 0.  1.
         11    1    5    5    0    0  0.36090609283E+02 -0.35609778956E+02 -0.30596906096E+02  0.59217895085E+02  0.00000000000E+00 0.  1.
        -11    1    5    5    0    0  0.53626387682E+03 -0.19317010567E+03 -0.55645841566E+03  0.79657994179E+03  0.00000000000E+00 0. -1.
          1    1    6    6  503    0 -0.29835176136E+03 -0.19527823553E+03 -0.51586129250E+03  0.62710464507E+03  0.00000000000E+00 0. -1.
         -1    1    6    6    0  503 -0.30186362153E+02 -0.14498032089E+02 -0.11976749080E+02  0.35564756614E+02  0.00000000000E+00 0.  1.
<mgrwt>
<rscale>  0 0.27562748E+04</rscale>
<asrwt>0</asrwt>
<pdfrwt beam="1">  1        1 0.21095446E+00 0.27562748E+04</pdfrwt>
<pdfrwt beam="2">  1       -2 0.21309321E+00 0.27562748E+04</pdfrwt>
<totfact> 0.67180761E-01</totfact>
</mgrwt>
</event>
<event>
12    4  0.4207946E-008  0.1898633E+04  0.7818608E-02  0.8655537E-01
         -2   -1    0    0    0  501 -0.00000000000E+00  0.00000000000E+00  0.62410232160E+03  0.62410232160E+03  0.00000000000E+00 0.  1.
          1   -1    0    0  501    0  0.00000000000E+00 -0.00000000000E+00 -0.14439962217E+04  0.14439962217E+04  0.00000000000E+00 0. -1.
        -24    2    1    2    0    0 -0.65515492469E+03 -0.17173757442E+03 -0.60812211594E+03  0.91368606216E+03  0.79296547693E+02 0.  0.
        254    2    1    2    0    0  0.65515492469E+03  0.17173757442E+03 -0.21177178417E+03  0.11544124811E+04  0.91054880058E+03 0.  0.
         23    2    4    4    0    0  0.35907934059E+03  0.48513943215E+03  0.92798977517E+02  0.61808000569E+03  0.95462043461E+02 0.  0.
         23    2    4    4    0    0  0.29607558411E+03 -0.31340185773E+03 -0.30457076169E+03  0.53633247546E+03  0.94908900644E+02 0.  0.
          1    1    3    3  502    0 -0.46574876118E+03 -0.11028427540E+03 -0.47389893928E+03  0.67354638637E+03  0.00000000000E+00 0. -1.
         -2    1    3    3    0  502 -0.18940616351E+03 -0.61453299022E+02 -0.13422317667E+03  0.24013967579E+03  0.00000000000E+00 0.  1.
         11    1    5    5    0    0  0.12072664952E+03  0.22411168901E+03  0.69279463484E+02  0.26381928875E+03  0.00000000000E+00 0.  1.
        -11    1    5    5    0    0  0.23835269107E+03  0.26102774314E+03  0.23519514033E+02  0.35426071694E+03  0.00000000000E+00 0. -1.
          2    1    6    6  503    0  0.68485295175E+02 -0.10524068593E+03 -0.13498703055E+03  0.18435654599E+03  0.00000000000E+00 0. -1.
         -2    1    6    6    0  503  0.22759028893E+03 -0.20816117180E+03 -0.16958373113E+03  0.35197592947E+03  0.00000000000E+00 0.  1.
<mgrwt>
<rscale>  0 0.18986326E+04</rscale>
<asrwt>0</asrwt>
<pdfrwt beam="1">  1        1 0.22215326E+00 0.18986326E+04</pdfrwt>
<pdfrwt beam="2">  1       -2 0.96015743E-01 0.18986326E+04</pdfrwt>
<totfact> 0.53422360E+00</totfact>
</mgrwt>
</event>
<event>
12    4  0.4207946E-008  0.1787518E+04  0.7818608E-02  0.8712965E-01
         -2   -1    0    0    0  501 -0.00000000000E+00  0.00000000000E+00  0.31281046701E+03  0.31281046701E+03  0.00000000000E+00 0.  1.
          1   -1    0    0  501    0  0.00000000000E+00 -0.00000000000E+00 -0.25536407172E+04  0.25536407172E+04  0.00000000000E+00 0. -1.
        -24    2    1    2    0    0 -0.61300405566E+03  0.11116235542E+03 -0.12175043180E+04  0.13700843692E+04  0.81751899509E+02 0.  0.
        254    2    1    2    0    0  0.61300405566E+03 -0.11116235542E+03 -0.10233259323E+04  0.14963668150E+04  0.89654148809E+03 0.  0.
         23    2    4    4    0    0  0.22293259360E+03  0.38137155948E+03 -0.35211673889E+03  0.57210158814E+03  0.90392597444E+02 0.  0.
         23    2    4    4    0    0  0.39007146207E+03 -0.49253391491E+03 -0.67120919339E+03  0.92426522687E+03  0.94863193409E+02 0.  0.
          1    1    3    3  502    0 -0.56908166364E+03  0.93359703649E+02 -0.10751498379E+04  0.12200480106E+04  0.00000000000E+00 0. -1.
         -2    1    3    3    0  502 -0.43922392022E+02  0.17802651776E+02 -0.14235448007E+03  0.15003635868E+03  0.00000000000E+00 0.  1.
         11    1    5    5    0    0  0.16238858737E+03  0.24585002485E+03 -0.18193421968E+03  0.34628362410E+03  0.00000000000E+00 0.  1.
        -11    1    5    5    0    0  0.60544006229E+02  0.13552153463E+03 -0.17018251921E+03  0.22581796404E+03  0.00000000000E+00 0. -1.
          4    1    6    6  503    0  0.65194973161E+02 -0.12151577985E+03 -0.10446716688E+03  0.17300248043E+03  0.00000000000E+00 0. -1.
         -4    1    6    6    0  503  0.32487648890E+03 -0.37101813505E+03 -0.56674202651E+03  0.75126274644E+03  0.00000000000E+00 0.  1.
<mgrwt>
<rscale>  0 0.17875184E+04</rscale>
<asrwt>0</asrwt>
<pdfrwt beam="1">  1        1 0.39286779E+00 0.17875184E+04</pdfrwt>
<pdfrwt beam="2">  1       -2 0.48124689E-01 0.17875184E+04</pdfrwt>
<totfact> 0.42244186E+00</totfact>
</mgrwt>
</event>
<event>
12    4  0.4207946E-008  0.1650550E+04  0.7818608E-02  0.8790081E-01
         -2   -1    0    0    0  501 -0.00000000000E+00  0.00000000000E+00  0.37868108922E+03  0.37868108922E+03  0.00000000000E+00 0.  1.
          1   -1    0    0  501    0  0.00000000000E+00 -0.00000000000E+00 -0.17985551364E+04  0.17985551364E+04  0.00000000000E+00 0. -1.
        -24    2    1    2    0    0 -0.52650128738E+03  0.20676869756E+03 -0.68666519428E+03  0.89329567168E+03  0.80691809400E+02 0.  0.
        254    2    1    2    0    0  0.52650128738E+03 -0.20676869756E+03 -0.73320885290E+03  0.12839405539E+04  0.88935438616E+03 0.  0.
         23    2    4    4    0    0  0.19431219667E+03 -0.49799413978E+03 -0.18239254320E+03  0.57201554037E+03  0.90439734512E+02 0.  0.
         23    2    4    4    0    0  0.33218909071E+03  0.29122544222E+03 -0.55081630970E+03  0.71192501357E+03  0.90976742791E+02 0.  0.
          1    1    3    3  502    0 -0.19787369793E+03  0.11372542451E+03 -0.30818890076E+03  0.38349429079E+03  0.00000000000E+00 0. -1.
         -2    1    3    3    0  502 -0.32862758945E+03  0.93043273052E+02 -0.37847629352E+03  0.50980138089E+03  0.00000000000E+00 0.  1.
         11    1    5    5    0    0  0.13100694599E+03 -0.36272153157E+03 -0.88753470510E+02  0.39573590674E+03  0.00000000000E+00 0.  1.
        -11    1    5    5    0    0  0.63305250682E+02 -0.13527260822E+03 -0.93639072690E+02  0.17627963363E+03  0.00000000000E+00 0. -1.
          1    1    6    6  503    0  0.10014939968E+03  0.14684931694E+03 -0.21562008157E+03  0.27943987496E+03  0.00000000000E+00 0. -1.
         -1    1    6    6    0  503  0.23203969103E+03  0.14437612528E+03 -0.33519622813E+03  0.43248513861E+03  0.00000000000E+00 0.  1.
<mgrwt>
<rscale>  0 0.16505500E+04</rscale>
<asrwt>0</asrwt>
<pdfrwt beam="1">  1        1 0.27670079E+00 0.16505500E+04</pdfrwt>
<pdfrwt beam="2">  1       -2 0.58258630E-01 0.16505500E+04</pdfrwt>
<totfact> 0.94403576E+00</totfact>
</mgrwt>
</event>
<event>
12    4  0.4207946E-008  0.1968180E+04  0.7818608E-02  0.8621644E-01
          1   -1    0    0  501    0  0.00000000000E+00  0.00000000000E+00  0.11636187197E+04  0.11636187197E+04  0.00000000000E+00 0. -1.
         -2   -1    0    0    0  501 -0.00000000000E+00 -0.00000000000E+00 -0.83225954375E+03  0.83225954375E+03  0.00000000000E+00 0.  1.
        -24    2    1    2    0    0 -0.40977681825E+02  0.78376578344E+03  0.13861740338E+03  0.80089805386E+03  0.79088143538E+02 0.  0.
        254    2    1    2    0    0  0.40977681825E+02 -0.78376578344E+03  0.19274177260E+03  0.11949802096E+04  0.88026151614E+03 0.  0.
         23    2    4    4    0    0 -0.15977657422E+03 -0.22502804247E+03 -0.30003762999E+03  0.41816897937E+03  0.93147959352E+02 0.  0.
         23    2    4    4    0    0  0.20075425604E+03 -0.55873774097E+03  0.49277940260E+03  0.77681123025E+03  0.90077818111E+02 0.  0.
          1    1    3    3  502    0 -0.12336530488E+02  0.46106875267E+03  0.11900736144E+03  0.47633951836E+03  0.00000000000E+00 0. -1.
         -4    1    3    3    0  502 -0.28641151338E+02  0.32269703078E+03  0.19610041938E+02  0.32455853550E+03  0.00000000000E+00 0.  1.
         11    1    5    5    0    0 -0.63301843037E+01 -0.77000541542E+02 -0.66424615713E+02  0.10188907794E+03  0.00000000000E+00 0. -1.
        -11    1    5    5    0    0 -0.15344638992E+03 -0.14802750093E+03 -0.23361301428E+03  0.31627990143E+03  0.00000000000E+00 0.  1.
          2    1    6    6  503    0  0.65165930214E+02 -0.98355095997E+02  0.69792843760E+02  0.13708159763E+03  0.00000000000E+00 0. -1.
         -2    1    6    6    0  503  0.13558832583E+03 -0.46038264498E+03  0.42298655884E+03  0.63972963262E+03  0.00000000000E+00 0.  1.
<mgrwt>
<rscale>  0 0.19681797E+04</rscale>
<asrwt>0</asrwt>
<pdfrwt beam="1">  1        1 0.17901826E+00 0.19681797E+04</pdfrwt>
<pdfrwt beam="2">  1       -2 0.12803993E+00 0.19681797E+04</pdfrwt>
<totfact> 0.41848317E+00</totfact>
</mgrwt>
</event>
<event>
12    4  0.4207946E-008  0.1995389E+04  0.7818608E-02  0.8608779E-01
         -2   -1    0    0    0  501 -0.00000000000E+00  0.00000000000E+00  0.86542933400E+03  0.86542933400E+03  0.00000000000E+00 0.  1.
          1   -1    0    0  501    0  0.00000000000E+00 -0.00000000000E+00 -0.11501741425E+04  0.11501741425E+04  0.00000000000E+00 0. -1.
        -24    2    1    2    0    0  0.54595212691E+03 -0.35609429662E+03  0.33529108707E+03  0.73767549280E+03  0.82934592593E+02 0.  0.
        254    2    1    2    0    0 -0.54595212691E+03  0.35609429662E+03 -0.62003589562E+03  0.12779279837E+04  0.90762797821E+03 0.  0.
         23    2    4    4    0    0  0.23686886859E+02  0.41039820669E+03 -0.55255282894E+03  0.69428444593E+03  0.87911924264E+02 0.  0.
         23    2    4    4    0    0 -0.56963901376E+03 -0.54303910070E+02 -0.67483066680E+02  0.58364353782E+03  0.92996205824E+02 0.  0.
          3    1    3    3  502    0  0.11818290586E+03 -0.10614002098E+03  0.53014573759E+02  0.16746178168E+03  0.00000000000E+00 0. -1.
         -4    1    3    3    0  502  0.42776922104E+03 -0.24995427563E+03  0.28227651331E+03  0.57021371111E+03  0.00000000000E+00 0.  1.
         11    1    5    5    0    0  0.21493294940E+02  0.46196650337E+02 -0.10931071829E+03  0.12060234394E+03  0.00000000000E+00 0.  1.
        -11    1    5    5    0    0  0.21935919188E+01  0.36420155635E+03 -0.44324211065E+03  0.57368210199E+03  0.00000000000E+00 0. -1.
          1    1    6    6  503    0 -0.32127705759E+03 -0.70665572981E+02 -0.61594043226E+02  0.33467356797E+03  0.00000000000E+00 0. -1.
         -1    1    6    6    0  503 -0.24836195618E+03  0.16361662911E+02 -0.58890234542E+01  0.24896996985E+03  0.00000000000E+00 0.  1.
<mgrwt>
<rscale>  0 0.19953891E+04</rscale>
<asrwt>0</asrwt>
<pdfrwt beam="1">  1        1 0.17694987E+00 0.19953891E+04</pdfrwt>
<pdfrwt beam="2">  1       -2 0.13314298E+00 0.19953891E+04</pdfrwt>
<totfact> 0.38685407E+00</totfact>
</mgrwt>
</event>
<event>
12    4  0.4207946E-008  0.1279292E+04  0.7818608E-02  0.9046150E-01
          3   -1    0    0  501    0  0.00000000000E+00  0.00000000000E+00  0.66242963718E+03  0.66242963718E+03  0.00000000000E+00 0. -1.
         -4   -1    0    0    0  501 -0.00000000000E+00 -0.00000000000E+00 -0.61764630477E+03  0.61764630477E+03  0.00000000000E+00 0.  1.
        -24    2    1    2    0    0 -0.30057757879E+03 -0.23941761015E+01  0.44772320398E+02  0.31425504521E+03  0.79994123617E+02 0.  0.
        254    2    1    2    0    0  0.30057757879E+03  0.23941761015E+01  0.11012012357E-01  0.96582089674E+03  0.91785477692E+03 0.  0.
         23    2    4    4    0    0  0.34560872367E+03  0.28248833249E+02 -0.40939578280E+03  0.54337610756E+03  0.86077295713E+02 0.  0.
         23    2    4    4    0    0 -0.45031144877E+02 -0.25854657148E+02  0.40940679481E+03  0.42244478918E+03  0.90274076910E+02 0.  0.
          3    1    3    3  502    0 -0.27577771282E+03 -0.20974510300E+02  0.54261222092E+02  0.28184669094E+03  0.00000000000E+00 0. -1.
         -4    1    3    3    0  502 -0.24799865978E+02  0.18580334198E+02 -0.94889016935E+01  0.32408354275E+02  0.00000000000E+00 0.  1.
         11    1    5    5    0    0  0.23755742366E+03  0.52631208378E+01 -0.33291581219E+03  0.40901609746E+03  0.00000000000E+00 0. -1.
        -11    1    5    5    0    0  0.10805130001E+03  0.22985712412E+02 -0.76479970607E+02  0.13436001010E+03  0.00000000000E+00 0.  1.
          3    1    6    6  503    0 -0.50660157640E+02 -0.45020390515E+02  0.38493391477E+03  0.39085471198E+03  0.00000000000E+00 0. -1.
         -3    1    6    6    0  503  0.56290127636E+01  0.19165733367E+02  0.24472880043E+02  0.31590077204E+02  0.00000000000E+00 0.  1.
<mgrwt>
<rscale>  0 0.12792923E+04</rscale>
<asrwt>0</asrwt>
<pdfrwt beam="1">  1        3 0.10191225E+00 0.12792923E+04</pdfrwt>
<pdfrwt beam="2">  1       -4 0.95022508E-01 0.12792923E+04</pdfrwt>
<totfact> 0.17518421E+00</totfact>
</mgrwt>
</event>
<event>
12    4  0.4207946E-008  0.1517566E+04  0.7818608E-02  0.8872855E-01
          1   -1    0    0  501    0  0.00000000000E+00  0.00000000000E+00  0.17665048966E+04  0.17665048966E+04  0.00000000000E+00 0. -1.
         -2   -1    0    0    0  501 -0.00000000000E+00 -0.00000000000E+00 -0.32592692617E+03  0.32592692617E+03  0.00000000000E+00 0.  1.
        -24    2    1    2    0    0 -0.25998689599E+03  0.21760175382E+03 -0.33335617076E+01  0.34824192114E+03  0.79483417477E+02 0.  0.
        254    2    1    2    0    0  0.25998689599E+03 -0.21760175382E+03  0.14439115321E+04  0.17441899016E+04  0.91780945241E+03 0.  0.
         23    2    4    4    0    0  0.33761860131E+03  0.14219172702E+03  0.12699127620E+04  0.13247565578E+04  0.89981705022E+02 0.  0.
         23    2    4    4    0    0 -0.77631705318E+02 -0.35979348083E+03  0.17399877017E+03  0.41943334383E+03  0.10085002416E+03 0.  0.
          1    1    3    3  502    0 -0.25632324199E+03  0.20335565997E+03  0.11441835726E+02  0.32739279838E+03  0.00000000000E+00 0. -1.
         -2    1    3    3    0  502 -0.36636540018E+01  0.14246093846E+02 -0.14775397434E+02  0.20849122760E+02  0.00000000000E+00 0.  1.
         11    1    5    5    0    0  0.33294507004E+03  0.15084718344E+03  0.12087524493E+04  0.12628102693E+04  0.00000000000E+00 0. -1.
        -11    1    5    5    0    0  0.46735312665E+01 -0.86554564198E+01  0.61160312620E+02  0.61946288510E+02  0.00000000000E+00 0.  1.
          4    1    6    6  503    0 -0.10170051199E+03 -0.27018076368E+03  0.12637728372E+03  0.31513783817E+03  0.00000000000E+00 0. -1.
         -4    1    6    6    0  503  0.24068806672E+02 -0.89612717149E+02  0.47621486457E+02  0.10429550566E+03  0.00000000000E+00 0.  1.
<mgrwt>
<rscale>  0 0.15175658E+04</rscale>
<asrwt>0</asrwt>
<pdfrwt beam="1">  1        1 0.27176998E+00 0.15175658E+04</pdfrwt>
<pdfrwt beam="2">  1       -2 0.50142605E-01 0.15175658E+04</pdfrwt>
<totfact> 0.13698240E+01</totfact>
</mgrwt>
</event>
<event>
12    4  0.4207946E-008  0.1753222E+04  0.7818608E-02  0.8731579E-01
         -2   -1    0    0    0  501 -0.00000000000E+00  0.00000000000E+00  0.10213088337E+04  0.10213088337E+04  0.00000000000E+00 0.  1.
          1   -1    0    0  501    0  0.00000000000E+00 -0.00000000000E+00 -0.75241372677E+03  0.75241372677E+03  0.00000000000E+00 0. -1.
        -24    2    1    2    0    0  0.40022091026E+03 -0.27513521455E+03  0.50413243455E+03  0.70497216067E+03  0.83427048667E+02 0.  0.
        254    2    1    2    0    0 -0.40022091026E+03  0.27513521455E+03 -0.23523732764E+03  0.10687503998E+04  0.92250455468E+03 0.  0.
         23    2    4    4    0    0 -0.38919553454E+02 -0.22336682583E+03  0.19588213739E+03  0.31177055420E+03  0.86160293630E+02 0.  0.
         23    2    4    4    0    0 -0.36130135681E+03  0.49850204037E+03 -0.43111946503E+03  0.75697984557E+03  0.90064081526E+02 0.  0.
          3    1    3    3  502    0  0.40247258217E+03 -0.26688766328E+03  0.48710384322E+03  0.68591789471E+03  0.00000000000E+00 0. -1.
         -4    1    3    3    0  502 -0.22516719031E+01 -0.82475512673E+01  0.17028591329E+02  0.19054265950E+02  0.00000000000E+00 0.  1.
         11    1    5    5    0    0  0.18697168087E+02 -0.10025960440E+03  0.54453603096E+02  0.11561473634E+03  0.00000000000E+00 0. -1.
        -11    1    5    5    0    0 -0.57616721541E+02 -0.12310722142E+03  0.14142853429E+03  0.19615581786E+03  0.00000000000E+00 0.  1.
          4    1    6    6  503    0 -0.71504741815E+02  0.12841609371E+03 -0.14625105937E+03  0.20734751890E+03  0.00000000000E+00 0.  1.
         -4    1    6    6    0  503 -0.28979661500E+03  0.37008594666E+03 -0.28486840566E+03  0.54963232667E+03  0.00000000000E+00 0. -1.
<mgrwt>
<rscale>  0 0.17532219E+04</rscale>
<asrwt>0</asrwt>
<pdfrwt beam="1">  1        1 0.11575596E+00 0.17532219E+04</pdfrwt>
<pdfrwt beam="2">  1       -2 0.15712444E+00 0.17532219E+04</pdfrwt>
<totfact> 0.53480771E+00</totfact>
</mgrwt>
</event>
<event>
12    4  0.4207946E-008  0.1889831E+04  0.7818608E-02  0.8659935E-01
          1   -1    0    0  501    0  0.00000000000E+00  0.00000000000E+00  0.28926710864E+04  0.28926710864E+04  0.00000000000E+00 0. -1.
         -2   -1    0    0    0  501 -0.00000000000E+00 -0.00000000000E+00 -0.30866475919E+03  0.30866475919E+03  0.00000000000E+00 0.  1.
        -24    2    1    2    0    0  0.27938621728E+03 -0.26543826551E+03  0.18411019777E+04  0.18828809720E+04  0.84084073495E+02 0.  0.
        254    2    1    2    0    0 -0.27938621728E+03  0.26543826551E+03  0.74290434952E+03  0.13184548736E+04  0.10187748769E+04 0.  0.
         23    2    4    4    0    0 -0.29493260020E+03  0.37712497972E+03  0.94860731395E+03  0.10665187338E+04  0.91639972511E+02 0.  0.
         23    2    4    4    0    0  0.15546382918E+02 -0.11168671421E+03 -0.20570296443E+03  0.25193613972E+03  0.91883060280E+02 0.  0.
          3    1    3    3  502    0  0.27287462435E+03 -0.22620397498E+03  0.16738539177E+04  0.17109692389E+04  0.00000000000E+00 0. -1.
         -4    1    3    3    0  502  0.65115929259E+01 -0.39234290531E+02  0.16724806003E+03  0.17191173311E+03  0.00000000000E+00 0.  1.
         11    1    5    5    0    0 -0.47491255116E+02  0.38507658245E+02  0.69960545954E+02  0.92912523624E+02  0.00000000000E+00 0. -1.
        -11    1    5    5    0    0 -0.24744134508E+03  0.33861732147E+03  0.87864676800E+03  0.97360621022E+03  0.00000000000E+00 0.  1.
          4    1    6    6  503    0  0.41840384473E+02 -0.18312450213E+02 -0.90181492207E+02  0.10108741337E+03  0.00000000000E+00 0. -1.
         -4    1    6    6    0  503 -0.26294001554E+02 -0.93374263998E+02 -0.11552147222E+03  0.15084872634E+03  0.00000000000E+00 0.  1.
<mgrwt>
<rscale>  0 0.18898313E+04</rscale>
<asrwt>0</asrwt>
<pdfrwt beam="1">  1        1 0.44502630E+00 0.18898313E+04</pdfrwt>
<pdfrwt beam="2">  1       -2 0.47486888E-01 0.18898313E+04</pdfrwt>
<totfact> 0.24773033E+00</totfact>
</mgrwt>
</event>
<event>
12    4  0.4207946E-008  0.1975910E+04  0.7818608E-02  0.8617967E-01
         -2   -1    0    0    0  501 -0.00000000000E+00  0.00000000000E+00  0.64483613669E+03  0.64483613669E+03  0.00000000000E+00 0.  1.
          1   -1    0    0  501    0  0.00000000000E+00 -0.00000000000E+00 -0.15136484708E+04  0.15136484708E+04  0.00000000000E+00 0. -1.
        -24    2    1    2    0    0  0.13365270835E+03 -0.66398608648E+03 -0.76412172275E+03  0.10241638049E+04  0.79302727440E+02 0.  0.
        254    2    1    2    0    0 -0.13365270835E+03  0.66398608648E+03 -0.10469061138E+03  0.11343208026E+04  0.90387111340E+03 0.  0.
         23    2    4    4    0    0 -0.12120874533E+03  0.79809693213E+03 -0.31288327884E+03  0.87045638105E+03  0.90266782994E+02 0.  0.
         23    2    4    4    0    0 -0.12443963024E+02 -0.13411084565E+03  0.20819266747E+03  0.26386442157E+03  0.90220147672E+02 0.  0.
          3    1    3    3  502    0  0.12801187038E+03 -0.62456262057E+03 -0.74316047309E+03  0.97915933062E+03  0.00000000000E+00 0. -1.
         -4    1    3    3    0  502  0.56408379697E+01 -0.39423465906E+02 -0.20961249661E+02  0.45004474271E+02  0.00000000000E+00 0.  1.
         11    1    5    5    0    0 -0.82327261654E+02  0.56445063571E+03 -0.17633713107E+03  0.59705701735E+03  0.00000000000E+00 0.  1.
        -11    1    5    5    0    0 -0.38881483673E+02  0.23364629641E+03 -0.13654614777E+03  0.27339936370E+03  0.00000000000E+00 0. -1.
          2    1    6    6  503    0 -0.44065564579E+02 -0.37840030062E+02  0.99887361113E+02  0.11554707598E+03  0.00000000000E+00 0. -1.
         -2    1    6    6    0  503  0.31621601555E+02 -0.96270815586E+02  0.10830530635E+03  0.14831734559E+03  0.00000000000E+00 0.  1.
<mgrwt>
<rscale>  0 0.19759102E+04</rscale>
<asrwt>0</asrwt>
<pdfrwt beam="1">  1        1 0.23286900E+00 0.19759102E+04</pdfrwt>
<pdfrwt beam="2">  1       -2 0.99205559E-01 0.19759102E+04</pdfrwt>
<totfact> 0.43959449E+00</totfact>
</mgrwt>
</event>
<event>
12    4  0.4207946E-008  0.1369466E+04  0.7818608E-02  0.8976222E-01
         -4   -1    0    0    0  501 -0.00000000000E+00  0.00000000000E+00  0.34713585795E+03  0.34713585795E+03  0.00000000000E+00 0.  1.
          1   -1    0    0  501    0  0.00000000000E+00 -0.00000000000E+00 -0.13506512131E+04  0.13506512131E+04  0.00000000000E+00 0. -1.
        -24    2    1    2    0    0 -0.22184418810E+03  0.27892891029E+03 -0.43070609211E+03  0.56463094502E+03  0.79272854763E+02 0.  0.
        254    2    1    2    0    0  0.22184418810E+03 -0.27892891029E+03 -0.57280926309E+03  0.11331561261E+04  0.91044833647E+03 0.  0.
         23    2    4    4    0    0 -0.32199702952E+03 -0.25988294461E+03 -0.28880888470E+03  0.51272419791E+03  0.90853174538E+02 0.  0.
         23    2    4    4    0    0  0.54384121762E+03 -0.19045965684E+02 -0.28400037839E+03  0.62043192817E+03  0.90296975437E+02 0.  0.
          3    1    3    3  502    0 -0.59072791356E+02  0.26514262691E+02 -0.75056668063E+02  0.99126707932E+02  0.00000000000E+00 0. -1.
         -4    1    3    3    0  502 -0.16277139674E+03  0.25241464760E+03 -0.35564942405E+03  0.46550423708E+03  0.00000000000E+00 0.  1.
         11    1    5    5    0    0 -0.21886645084E+03 -0.13014629417E+03 -0.14337206168E+03  0.29222616115E+03  0.00000000000E+00 0.  1.
        -11    1    5    5    0    0 -0.10313057868E+03 -0.12973665043E+03 -0.14543682301E+03  0.22049803676E+03  0.00000000000E+00 0. -1.
          2    1    6    6  503    0  0.15344900418E+03  0.65544373139E+01 -0.37770146422E+02  0.15816491866E+03  0.00000000000E+00 0. -1.
         -2    1    6    6    0  503  0.39039221343E+03 -0.25600402998E+02 -0.24623023197E+03  0.46226700951E+03  0.00000000000E+00 0.  1.
<mgrwt>
<rscale>  0 0.13694663E+04</rscale>
<asrwt>0</asrwt>
<pdfrwt beam="1">  1        1 0.20779250E+00 0.13694663E+04</pdfrwt>
<pdfrwt beam="2">  1       -4 0.53405515E-01 0.13694663E+04</pdfrwt>
<totfact> 0.13408224E+01</totfact>
</mgrwt>
</event>
<event>
12    4  0.4207946E-008  0.1169113E+04  0.7818608E-02  0.9140330E-01
         -2   -1    0    0    0  501 -0.00000000000E+00  0.00000000000E+00  0.10313024409E+04  0.10313024409E+04  0.00000000000E+00 0.  1.
          1   -1    0    0  501    0  0.00000000000E+00 -0.00000000000E+00 -0.33133483622E+03  0.33133483622E+03  0.00000000000E+00 0. -1.
        -24    2    1    2    0    0 -0.10322510196E+03 -0.13605079639E+03  0.32836824257E+03  0.37893008264E+03  0.81222311744E+02 0.  0.
        254    2    1    2    0    0  0.10322510196E+03  0.13605079639E+03  0.37159936214E+03  0.98370719451E+03  0.89466670762E+03 0.  0.
         23    2    4    4    0    0  0.23952108815E+03  0.14175186347E+03 -0.22046851593E+03  0.36932073098E+03  0.10162427542E+03 0.  0.
         23    2    4    4    0    0 -0.13629598619E+03 -0.57010670711E+01  0.59206787806E+03  0.61438646353E+03  0.91198992928E+02 0.  0.
          3    1    3    3  502    0  0.80435272682E+01 -0.42953217793E+02  0.85773522117E+02  0.96264086481E+02  0.00000000000E+00 0. -1.
         -4    1    3    3    0  502 -0.11126862922E+03 -0.93097578601E+02  0.24259472045E+03  0.28266599616E+03  0.00000000000E+00 0.  1.
         11    1    5    5    0    0  0.23786943352E+02  0.40103614196E+02 -0.79854309455E+02  0.92470694191E+02  0.00000000000E+00 0. -1.
        -11    1    5    5    0    0  0.21573414480E+03  0.10164824927E+03 -0.14061420647E+03  0.27685003679E+03  0.00000000000E+00 0.  1.
          2    1    6    6  503    0 -0.69359585573E+01 -0.12038618313E+02  0.77951328626E+01  0.15931100036E+02  0.00000000000E+00 0. -1.
         -2    1    6    6    0  503 -0.12936002763E+03  0.63375512420E+01  0.58427274520E+03  0.59845536349E+03  0.00000000000E+00 0.  1.
<mgrwt>
<rscale>  0 0.11691132E+04</rscale>
<asrwt>0</asrwt>
<pdfrwt beam="1">  1        1 0.50974590E-01 0.11691132E+04</pdfrwt>
<pdfrwt beam="2">  1       -2 0.15866191E+00 0.11691132E+04</pdfrwt>
<totfact> 0.17158102E+01</totfact>
</mgrwt>
</event>
<event>
12    4  0.4207946E-008  0.2409748E+04  0.7818608E-02  0.8435863E-01
         -2   -1    0    0    0  501 -0.00000000000E+00  0.00000000000E+00  0.79008132687E+03  0.79008132687E+03  0.00000000000E+00 0.  1.
          1   -1    0    0  501    0  0.00000000000E+00 -0.00000000000E+00 -0.18374323530E+04  0.18374323530E+04  0.00000000000E+00 0. -1.
        -24    2    1    2    0    0 -0.98870880652E+03  0.26910416289E+03 -0.43016661502E+03  0.11141013287E+04  0.78843511230E+02 0.  0.
        254    2    1    2    0    0  0.98870880652E+03 -0.26910416289E+03 -0.61718441111E+03  0.15134123512E+04  0.92711282641E+03 0.  0.
         23    2    4    4    0    0 -0.16562385467E+03 -0.19457254460E+01 -0.12934065963E+03  0.22884739273E+03  0.90592912744E+02 0.  0.
         23    2    4    4    0    0  0.11543326612E+04 -0.26715843744E+03 -0.48784375148E+03  0.12845649585E+04  0.90873996878E+02 0.  0.
          1    1    3    3  502    0 -0.15245341877E+02  0.95870147171E+01 -0.18377909357E+02  0.25730892959E+02  0.00000000000E+00 0. -1.
         -2    1    3    3    0  502 -0.97346346464E+03  0.25951714817E+03 -0.41178870566E+03  0.10883704357E+04  0.00000000000E+00 0.  1.
         11    1    5    5    0    0 -0.84116303862E+02  0.42029757972E+02 -0.47950900607E+02  0.10555255563E+03  0.00000000000E+00 0. -1.
        -11    1    5    5    0    0 -0.81507550812E+02 -0.43975483418E+02 -0.81389759025E+02  0.12329483710E+03  0.00000000000E+00 0.  1.
          1    1    6    6  503    0  0.22034375004E+03 -0.42002370976E+02 -0.13053502335E+03  0.25952834079E+03  0.00000000000E+00 0. -1.
         -1    1    6    6    0  503  0.93398891115E+03 -0.22515606647E+03 -0.35730872813E+03  0.10250366177E+04  0.00000000000E+00 0.  1.
<mgrwt>
<rscale>  0 0.24097477E+04</rscale>
<asrwt>0</asrwt>
<pdfrwt beam="1">  1        1 0.28268190E+00 0.24097477E+04</pdfrwt>
<pdfrwt beam="2">  1       -2 0.12155097E+00 0.24097477E+04</pdfrwt>
<totfact> 0.15542441E+00</totfact>
</mgrwt>
</event>
<event>
12    4  0.4207946E-008  0.1441497E+04  0.7818608E-02  0.8924317E-01
         -2   -1    0    0    0  501 -0.00000000000E+00  0.00000000000E+00  0.28154922249E+03  0.28154922249E+03  0.00000000000E+00 0.  1.
          1   -1    0    0  501    0  0.00000000000E+00 -0.00000000000E+00 -0.18450707914E+04  0.18450707914E+04  0.00000000000E+00 0. -1.
        -24    2    1    2    0    0 -0.16985031021E+03 -0.17177767820E+03 -0.10931778524E+04  0.11225867689E+04  0.82501746638E+02 0.  0.
        254    2    1    2    0    0  0.16985031021E+03  0.17177767820E+03 -0.47034371650E+03  0.10040332450E+04  0.85352378216E+03 0.  0.
         23    2    4    4    0    0  0.47903065205E+03  0.17659419275E+03 -0.44185965210E+03  0.68100225815E+03  0.88703150658E+02 0.  0.
         23    2    4    4    0    0 -0.30918034184E+03 -0.48165145493E+01 -0.28484064407E+02  0.32303098681E+03  0.89005583642E+02 0.  0.
          1    1    3    3  502    0 -0.12676337139E+03 -0.16960356658E+03 -0.93027456280E+03  0.95406765186E+03  0.00000000000E+00 0. -1.
         -2    1    3    3    0  502 -0.43086938820E+02 -0.21741116208E+01 -0.16290328958E+03  0.16851911706E+03  0.00000000000E+00 0.  1.
         11    1    5    5    0    0  0.42668940822E+03  0.13351985383E+03 -0.40780851826E+03  0.60514394157E+03  0.00000000000E+00 0.  1.
        -11    1    5    5    0    0  0.52341243827E+02  0.43074338912E+02 -0.34051133839E+02  0.75858316577E+02  0.00000000000E+00 0. -1.
          2    1    6    6  503    0 -0.34664686568E+02  0.26886829353E+02  0.69903701288E+01  0.44423049896E+02  0.00000000000E+00 0. -1.
         -2    1    6    6    0  503 -0.27451565527E+03 -0.31703343902E+02 -0.35474434536E+02  0.27860793691E+03  0.00000000000E+00 0.  1.
<mgrwt>
<rscale>  0 0.14414968E+04</rscale>
<asrwt>0</asrwt>
<pdfrwt beam="1">  1        1 0.28385704E+00 0.14414968E+04</pdfrwt>
<pdfrwt beam="2">  1       -2 0.43315266E-01 0.14414968E+04</pdfrwt>
<totfact> 0.16374816E+01</totfact>
</mgrwt>
</event>
<event>
12    4  0.4207946E-008  0.1488741E+04  0.7818608E-02  0.8891975E-01
          1   -1    0    0  501    0  0.00000000000E+00  0.00000000000E+00  0.83178854265E+03  0.83178854265E+03  0.00000000000E+00 0. -1.
         -2   -1    0    0    0  501 -0.00000000000E+00 -0.00000000000E+00 -0.66613956227E+03  0.66613956227E+03  0.00000000000E+00 0.  1.
        -24    2    1    2    0    0 -0.18464827533E+03  0.19695389929E+03 -0.33065304985E+03  0.43471339025E+03  0.82209903684E+02 0.  0.
        254    2    1    2    0    0  0.18464827533E+03 -0.19695389929E+03  0.49630203024E+03  0.10632147147E+04  0.90067974343E+03 0.  0.
         23    2    4    4    0    0 -0.16779166870E+03 -0.45371380768E+03  0.27165053210E+03  0.56241934658E+03  0.92256416840E+02 0.  0.
         23    2    4    4    0    0  0.35243994404E+03  0.25675990840E+03  0.22465149813E+03  0.50079536808E+03  0.10093631837E+03 0.  0.
          1    1    3    3  502    0 -0.91068392650E+02  0.99847487242E+02 -0.10223204821E+03  0.16945313372E+03  0.00000000000E+00 0. -1.
         -2    1    3    3    0  502 -0.93579882683E+02  0.97106412048E+02 -0.22842100164E+03  0.26526025653E+03  0.00000000000E+00 0.  1.
         11    1    5    5    0    0 -0.65195109837E+02 -0.20165170420E+03  0.68190461605E+02  0.22262917870E+03  0.00000000000E+00 0.  1.
        -11    1    5    5    0    0 -0.10259655887E+03 -0.25206210348E+03  0.20346007050E+03  0.33979016788E+03  0.00000000000E+00 0. -1.
          1    1    6    6  503    0  0.27611606027E+03  0.18834685468E+03  0.21594678466E+03  0.39792917738E+03  0.00000000000E+00 0.  1.
         -1    1    6    6    0  503  0.76323883769E+02  0.68413053719E+02  0.87047134724E+01  0.10286619070E+03  0.00000000000E+00 0. -1.
<mgrwt>
<rscale>  0 0.14887408E+04</rscale>
<asrwt>0</asrwt>
<pdfrwt beam="1">  1        1 0.12796747E+00 0.14887408E+04</pdfrwt>
<pdfrwt beam="2">  1       -2 0.10248301E+00 0.14887408E+04</pdfrwt>
<totfact> 0.13717171E+01</totfact>
</mgrwt>
</event>
<event>
12    4  0.4207946E-008  0.1976210E+04  0.7818608E-02  0.8617825E-01
         -2   -1    0    0    0  501 -0.00000000000E+00  0.00000000000E+00  0.84138944431E+03  0.84138944431E+03  0.00000000000E+00 0.  1.
          1   -1    0    0  501    0  0.00000000000E+00 -0.00000000000E+00 -0.11604032104E+04  0.11604032104E+04  0.00000000000E+00 0. -1.
        -24    2    1    2    0    0 -0.20287241166E+03  0.72489065633E+03 -0.32810015864E+03  0.82478707692E+03  0.77461791276E+02 0.  0.
        254    2    1    2    0    0  0.20287241166E+03 -0.72489065633E+03  0.90863925794E+01  0.11770055778E+04  0.90478499575E+03 0.  0.
         23    2    4    4    0    0  0.13844527648E+03 -0.13674970556E+02 -0.33872215809E+03  0.37757197887E+03  0.92053242433E+02 0.  0.
         23    2    4    4    0    0  0.64427135179E+02 -0.71121568577E+03  0.34780855067E+03  0.79943359890E+03  0.90247901360E+02 0.  0.
          1    1    3    3  502    0 -0.97650597773E+02  0.23311585825E+03 -0.13059699287E+03  0.28448939727E+03  0.00000000000E+00 0. -1.
         -2    1    3    3    0  502 -0.10522181388E+03  0.49177479808E+03 -0.19750316577E+03  0.54029767965E+03  0.00000000000E+00 0.  1.
         11    1    5    5    0    0  0.60061618090E+00  0.23030745778E+02 -0.64043829645E+02  0.68061649308E+02  0.00000000000E+00 0. -1.
        -11    1    5    5    0    0  0.13784466030E+03 -0.36705716334E+02 -0.27467832845E+03  0.30951032956E+03  0.00000000000E+00 0.  1.
          1    1    6    6  503    0  0.51079957804E+02 -0.23687779709E+03  0.83761165520E+02  0.25639068956E+03  0.00000000000E+00 0. -1.
         -1    1    6    6    0  503  0.13347177375E+02 -0.47433788868E+03  0.26404738515E+03  0.54304290934E+03  0.00000000000E+00 0.  1.
<mgrwt>
<rscale>  0 0.19762095E+04</rscale>
<asrwt>0</asrwt>
<pdfrwt beam="1">  1        1 0.17852357E+00 0.19762095E+04</pdfrwt>
<pdfrwt beam="2">  1       -2 0.12944453E+00 0.19762095E+04</pdfrwt>
<totfact> 0.40904572E+00</totfact>
</mgrwt>
</event>
<event>
12    4  0.4207946E-008  0.1510198E+04  0.7818608E-02  0.8877699E-01
         -4   -1    0    0    0  501 -0.00000000000E+00  0.00000000000E+00  0.11737865856E+04  0.11737865856E+04  0.00000000000E+00 0.  1.
          3   -1    0    0  501    0  0.00000000000E+00 -0.00000000000E+00 -0.48575677718E+03  0.48575677718E+03  0.00000000000E+00 0. -1.
        -24    2    1    2    0    0  0.37237983166E+03  0.19577544939E+03  0.48422426187E+03  0.64650595751E+03  0.80635300579E+02 0.  0.
        254    2    1    2    0    0 -0.37237983166E+03 -0.19577544939E+03  0.20380554657E+03  0.10130374053E+04  0.89872872331E+03 0.  0.
         23    2    4    4    0    0  0.72877744477E+02  0.27037737238E+03  0.20771533538E+03  0.36175740521E+03  0.96476269275E+02 0.  0.
         23    2    4    4    0    0 -0.44525757613E+03 -0.46615282178E+03 -0.39097888088E+01  0.65128000009E+03  0.92723188647E+02 0.  0.
          3    1    3    3  502    0 -0.92800120659E+00  0.59434020867E+01 -0.35760631496E+00  0.60260349219E+01  0.00000000000E+00 0. -1.
         -4    1    3    3    0  502  0.37330783286E+03  0.18983204730E+03  0.48458186819E+03  0.64047992259E+03  0.00000000000E+00 0.  1.
         11    1    5    5    0    0  0.77278237725E+02  0.10368756456E+03  0.85741932008E+02  0.15516029123E+03  0.00000000000E+00 0. -1.
        -11    1    5    5    0    0 -0.44004932480E+01  0.16668980783E+03  0.12197340337E+03  0.20659711398E+03  0.00000000000E+00 0.  1.
          1    1    6    6  503    0 -0.32183747958E+01 -0.86973657859E+01 -0.11913502836E+02  0.15097471900E+02  0.00000000000E+00 0. -1.
         -1    1    6    6    0  503 -0.44203920134E+03 -0.45745545599E+03  0.80037140273E+01  0.63618252819E+03  0.00000000000E+00 0.  1.
<mgrwt>
<rscale>  0 0.15101984E+04</rscale>
<asrwt>0</asrwt>
<pdfrwt beam="1">  1        3 0.74731812E-01 0.15101984E+04</pdfrwt>
<pdfrwt beam="2">  1       -4 0.18058255E+00 0.15101984E+04</pdfrwt>
<totfact> 0.66541944E-01</totfact>
</mgrwt>
</event>
<event>
12    4  0.4207946E-008  0.2114436E+04  0.7818608E-02  0.8554911E-01
          3   -1    0    0  501    0  0.00000000000E+00  0.00000000000E+00  0.15107011583E+04  0.15107011583E+04  0.00000000000E+00 0. -1.
         -4   -1    0    0    0  501 -0.00000000000E+00 -0.00000000000E+00 -0.73986146451E+03  0.73986146451E+03  0.00000000000E+00 0.  1.
        -24    2    1    2    0    0  0.70771647001E+03 -0.23259417360E+03 -0.14359437245E+03  0.76278128130E+03  0.79077732574E+02 0.  0.
        254    2    1    2    0    0 -0.70771647001E+03  0.23259417360E+03  0.91443406624E+03  0.14877813415E+04  0.90683019752E+03 0.  0.
         23    2    4    4    0    0 -0.28727931492E+03  0.78280056740E+02  0.97888927907E+03  0.10272390673E+04  0.91316530018E+02 0.  0.
         23    2    4    4    0    0 -0.42043715509E+03  0.15431411686E+03 -0.64455212829E+02  0.46054227421E+03  0.85816454332E+02 0.  0.
          1    1    3    3  502    0  0.12518835471E+03 -0.10204925917E+02 -0.25096260650E+02  0.12808624816E+03  0.00000000000E+00 0. -1.
         -2    1    3    3    0  502  0.58252811529E+03 -0.22238924768E+03 -0.11849811180E+03  0.63469503314E+03  0.00000000000E+00 0.  1.
         11    1    5    5    0    0 -0.21874859320E+03  0.92477018383E+02  0.81819472762E+03  0.85196570251E+03  0.00000000000E+00 0.  1.
        -11    1    5    5    0    0 -0.68530721715E+02 -0.14196961643E+02  0.16069455145E+03  0.17527336479E+03  0.00000000000E+00 0. -1.
          1    1    6    6  503    0 -0.58269174404E+02 -0.43227333916E+01  0.66687778177E+01  0.58808632931E+02  0.00000000000E+00 0. -1.
         -1    1    6    6    0  503 -0.36216798068E+03  0.15863685025E+03 -0.71123990646E+02  0.40173364128E+03  0.00000000000E+00 0.  1.
<mgrwt>
<rscale>  0 0.21144357E+04</rscale>
<asrwt>0</asrwt>
<pdfrwt beam="1">  1        3 0.23241556E+00 0.21144357E+04</pdfrwt>
<pdfrwt beam="2">  1       -4 0.11382484E+00 0.21144357E+04</pdfrwt>
<totfact> 0.11888596E-01</totfact>
</mgrwt>
</event>
<event>
12    4  0.4207946E-008  0.1678890E+04  0.7818608E-02  0.8773497E-01
         -2   -1    0    0    0  501 -0.00000000000E+00  0.00000000000E+00  0.17266559553E+04  0.17266559553E+04  0.00000000000E+00 0.  1.
          1   -1    0    0  501    0  0.00000000000E+00 -0.00000000000E+00 -0.40811133367E+03  0.40811133367E+03  0.00000000000E+00 0. -1.
        -24    2    1    2    0    0 -0.31605387858E+03 -0.23576941700E+03  0.10287511483E+04  0.11047165520E+04  0.81193984104E+02 0.  0.
        254    2    1    2    0    0  0.31605387858E+03  0.23576941700E+03  0.28979347336E+03  0.10300507370E+04  0.90639229440E+03 0.  0.
         23    2    4    4    0    0 -0.30063215856E+03  0.14753464107E+02  0.17183605807E+03  0.35822114885E+03  0.90539500600E+02 0.  0.
         23    2    4    4    0    0  0.61668603714E+03  0.22101595290E+03  0.11795741530E+03  0.67182958810E+03  0.91056706426E+02 0.  0.
          1    1    3    3  502    0 -0.50336288901E+01 -0.14376723592E+02  0.90427159313E+02  0.91701138175E+02  0.00000000000E+00 0. -1.
         -2    1    3    3    0  502 -0.31102024969E+03 -0.22139269341E+03  0.93832398895E+03  0.10130154138E+04  0.00000000000E+00 0.  1.
         11    1    5    5    0    0 -0.16152291247E+02  0.18453614162E+02 -0.23390239886E+01  0.24635409909E+02  0.00000000000E+00 0.  1.
        -11    1    5    5    0    0 -0.28447986732E+03 -0.37001500552E+01  0.17417508205E+03  0.33358573895E+03  0.00000000000E+00 0. -1.
          4    1    6    6  503    0  0.26730164390E+03  0.86760276310E+02  0.57774212554E+01  0.28108876352E+03  0.00000000000E+00 0. -1.
         -4    1    6    6    0  503  0.34938439324E+03  0.13425567659E+03  0.11217999404E+03  0.39074082459E+03  0.00000000000E+00 0.  1.
<mgrwt>
<rscale>  0 0.16788899E+04</rscale>
<asrwt>0</asrwt>
<pdfrwt beam="1">  1        1 0.62786360E-01 0.16788899E+04</pdfrwt>
<pdfrwt beam="2">  1       -2 0.26563937E+00 0.16788899E+04</pdfrwt>
<totfact> 0.25109260E+00</totfact>
</mgrwt>
</event>
<event>
12    4  0.4207946E-008  0.1253795E+04  0.7818608E-02  0.9067031E-01
         -2   -1    0    0    0  501 -0.00000000000E+00  0.00000000000E+00  0.67312401067E+03  0.67312401067E+03  0.00000000000E+00 0.  1.
          1   -1    0    0  501    0  0.00000000000E+00 -0.00000000000E+00 -0.58384555014E+03  0.58384555014E+03  0.00000000000E+00 0. -1.
        -24    2    1    2    0    0 -0.11789166983E+02 -0.24483845457E+03 -0.11798292049E+03  0.28359299831E+03  0.80125937530E+02 0.  0.
        254    2    1    2    0    0  0.11789166983E+02  0.24483845457E+03  0.20726138101E+03  0.97337656251E+03  0.91892317366E+03 0.  0.
         23    2    4    4    0    0 -0.21914667014E+03  0.50361885961E+03 -0.38770095056E+01  0.55680927077E+03  0.91456623750E+02 0.  0.
         23    2    4    4    0    0  0.23093583712E+03 -0.25878040504E+03  0.21113839052E+03  0.41656729173E+03  0.93006611006E+02 0.  0.
          3    1    3    3  502    0 -0.26762787294E+02 -0.77910396834E+02 -0.72984192488E+02  0.11005893454E+03  0.00000000000E+00 0. -1.
         -4    1    3    3    0  502  0.14973620311E+02 -0.16692805774E+03 -0.44998727997E+02  0.17353406377E+03  0.00000000000E+00 0.  1.
         11    1    5    5    0    0 -0.21164089196E+03  0.49464382983E+03  0.10690377318E+02  0.53812514317E+03  0.00000000000E+00 0.  1.
        -11    1    5    5    0    0 -0.75057781781E+01  0.89750297815E+01 -0.14567386824E+02  0.18684127609E+02  0.00000000000E+00 0. -1.
          3    1    6    6  503    0  0.23478806031E+03 -0.26253472514E+03  0.20216227887E+03  0.40610282216E+03  0.00000000000E+00 0.  1.
         -3    1    6    6    0  503 -0.38522231910E+01  0.37543201064E+01  0.89761116502E+01  0.10464469568E+02  0.00000000000E+00 0. -1.
<mgrwt>
<rscale>  0 0.12537950E+04</rscale>
<asrwt>0</asrwt>
<pdfrwt beam="1">  1        1 0.89822392E-01 0.12537950E+04</pdfrwt>
<pdfrwt beam="2">  1       -2 0.10355754E+00 0.12537950E+04</pdfrwt>
<totfact> 0.23354444E+01</totfact>
</mgrwt>
</event>
<event>
12    4  0.4207946E-008  0.1837350E+04  0.7818608E-02  0.8686686E-01
          1   -1    0    0  501    0  0.00000000000E+00  0.00000000000E+00  0.83247069622E+03  0.83247069622E+03  0.00000000000E+00 0. -1.
         -2   -1    0    0    0  501 -0.00000000000E+00 -0.00000000000E+00 -0.10138056727E+04  0.10138056727E+04  0.00000000000E+00 0.  1.
        -24    2    1    2    0    0 -0.52180587996E+03 -0.28312086436E+03  0.29014471302E+03  0.66559817955E+03  0.79988636220E+02 0.  0.
        254    2    1    2    0    0  0.52180587996E+03  0.28312086436E+03 -0.47147968956E+03  0.11806781894E+04  0.90513484581E+03 0.  0.
         23    2    4    4    0    0  0.28868088702E+03 -0.29527062936E+03 -0.59489836913E+02  0.42698211488E+03  0.90847601186E+02 0.  0.
         23    2    4    4    0    0  0.23312499294E+03  0.57839149372E+03 -0.41198985264E+03  0.75369607454E+03  0.97150150507E+02 0.  0.
          1    1    3    3  502    0 -0.52300566786E+03 -0.28467825239E+03  0.28512398527E+03  0.66020627305E+03  0.00000000000E+00 0. -1.
         -2    1    3    3    0  502  0.11997879036E+01  0.15573880313E+01  0.50207277493E+01  0.53919064927E+01  0.00000000000E+00 0.  1.
         11    1    5    5    0    0  0.29468042877E+03 -0.28423176987E+03 -0.52983528273E+02  0.41283351169E+03  0.00000000000E+00 0.  1.
        -11    1    5    5    0    0 -0.59995417580E+01 -0.11038859489E+02 -0.65063086401E+01  0.14148603190E+02  0.00000000000E+00 0. -1.
          3    1    6    6  503    0  0.23620598785E+02  0.98329309462E+02 -0.10857979187E+03  0.14837842494E+03  0.00000000000E+00 0. -1.
         -3    1    6    6    0  503  0.20950439416E+03  0.48006218426E+03 -0.30341006077E+03  0.60531764959E+03  0.00000000000E+00 0.  1.
<mgrwt>
<rscale>  0 0.18373497E+04</rscale>
<asrwt>0</asrwt>
<pdfrwt beam="1">  1        1 0.12807242E+00 0.18373497E+04</pdfrwt>
<pdfrwt beam="2">  1       -2 0.15597010E+00 0.18373497E+04</pdfrwt>
<totfact> 0.46093296E+00</totfact>
</mgrwt>
</event>
<event>
12    4  0.4207946E-008  0.1360240E+04  0.7818608E-02  0.8983113E-01
         -2   -1    0    0    0  501 -0.00000000000E+00  0.00000000000E+00  0.30376290870E+03  0.30376290870E+03  0.00000000000E+00 0.  1.
          1   -1    0    0  501    0  0.00000000000E+00 -0.00000000000E+00 -0.15227770595E+04  0.15227770595E+04  0.00000000000E+00 0. -1.
        -24    2    1    2    0    0  0.11668478784E+03 -0.33643996719E+03 -0.44786970429E+03  0.57761919342E+03  0.79053585278E+02 0.  0.
        254    2    1    2    0    0 -0.11668478784E+03  0.33643996719E+03 -0.77114444651E+03  0.12489207748E+04  0.91560480180E+03 0.  0.
         23    2    4    4    0    0 -0.12116976791E+03  0.29846351197E+03 -0.96751969664E+03  0.10237699371E+04  0.90818170273E+02 0.  0.
         23    2    4    4    0    0  0.44849800643E+01  0.37976455219E+02  0.19637525014E+03  0.22515083770E+03  0.10328278973E+03 0.  0.
          3    1    3    3  502    0  0.82688639996E+02 -0.25144407350E+03 -0.38241313338E+03  0.46508207648E+03  0.00000000000E+00 0. -1.
         -4    1    3    3    0  502  0.33996147845E+02 -0.84995893695E+02 -0.65456570909E+02  0.11253711694E+03  0.00000000000E+00 0.  1.
         11    1    5    5    0    0 -0.46924091738E+02  0.29866851108E+02 -0.14337115054E+03  0.15378291839E+03  0.00000000000E+00 0. -1.
        -11    1    5    5    0    0 -0.74245676168E+02  0.26859666087E+03 -0.82414854610E+03  0.86998701870E+03  0.00000000000E+00 0.  1.
          3    1    6    6  503    0  0.17481342065E+02 -0.15000788873E+02  0.18354740033E+01  0.23108222606E+02  0.00000000000E+00 0. -1.
         -3    1    6    6    0  503 -0.12996362000E+02  0.52977244092E+02  0.19453977613E+03  0.20204261510E+03  0.00000000000E+00 0.  1.
<mgrwt>
<rscale>  0 0.13602400E+04</rscale>
<asrwt>0</asrwt>
<pdfrwt beam="1">  1        1 0.23427340E+00 0.13602400E+04</pdfrwt>
<pdfrwt beam="2">  1       -2 0.46732754E-01 0.13602400E+04</pdfrwt>
<totfact> 0.23499327E+01</totfact>
</mgrwt>
</event>
<event>
12    4  0.4207946E-008  0.1333180E+04  0.7818608E-02  0.9003659E-01
         -2   -1    0    0    0  501 -0.00000000000E+00  0.00000000000E+00  0.25471275300E+03  0.25471275300E+03  0.00000000000E+00 0.  1.
          1   -1    0    0  501    0  0.00000000000E+00 -0.00000000000E+00 -0.17444847666E+04  0.17444847666E+04  0.00000000000E+00 0. -1.
        -24    2    1    2    0    0  0.15631010566E+03  0.26897936573E+03 -0.65149046296E+03  0.72649049573E+03  0.81030048334E+02 0.  0.
        254    2    1    2    0    0 -0.15631010566E+03 -0.26897936573E+03 -0.83828155066E+03  0.12727070239E+04  0.90569556815E+03 0.  0.
         23    2    4    4    0    0 -0.38700529582E+03  0.57249980982E+02 -0.75287075008E+03  0.85407317957E+03  0.97856887408E+02 0.  0.
         23    2    4    4    0    0  0.23069519016E+03 -0.32622934671E+03 -0.85410800573E+02  0.41863384432E+03  0.91178030978E+02 0.  0.
          3    1    3    3  502    0  0.15334060931E+03  0.26788539178E+03 -0.65350839835E+03  0.72273726368E+03  0.00000000000E+00 0. -1.
         -4    1    3    3    0  502  0.29694963473E+01  0.10939739465E+01  0.20179353914E+01  0.37532320466E+01  0.00000000000E+00 0.  1.
         11    1    5    5    0    0 -0.21234950532E+03  0.55894916660E+02 -0.50671442630E+03  0.55224637974E+03  0.00000000000E+00 0. -1.
        -11    1    5    5    0    0 -0.17465579050E+03  0.13550643220E+01 -0.24615632378E+03  0.30182679983E+03  0.00000000000E+00 0.  1.
          4    1    6    6  503    0  0.77273381794E+02 -0.46987592418E+02 -0.29679445511E+02  0.95183395931E+02  0.00000000000E+00 0.  1.
         -4    1    6    6    0  503  0.15342180837E+03 -0.27924175430E+03 -0.55731355063E+02  0.32345044839E+03  0.00000000000E+00 0. -1.
<mgrwt>
<rscale>  0 0.13331804E+04</rscale>
<asrwt>0</asrwt>
<pdfrwt beam="1">  1        1 0.26838227E+00 0.13331804E+04</pdfrwt>
<pdfrwt beam="2">  1       -2 0.39186577E-01 0.13331804E+04</pdfrwt>
<totfact> 0.23545885E+01</totfact>
</mgrwt>
</event>
<event>
12    4  0.4207946E-008  0.2272234E+04  0.7818608E-02  0.8488950E-01
         -2   -1    0    0    0  501 -0.00000000000E+00  0.00000000000E+00  0.25035255141E+04  0.25035255141E+04  0.00000000000E+00 0.  1.
          1   -1    0    0  501    0  0.00000000000E+00 -0.00000000000E+00 -0.51557758729E+03  0.51557758729E+03  0.00000000000E+00 0. -1.
        -24    2    1    2    0    0 -0.86937761670E+00 -0.57183790648E+03  0.18544425940E+04  0.19422537506E+04  0.79955928401E+02 0.  0.
        254    2    1    2    0    0  0.86937761670E+00  0.57183790648E+03  0.13350533285E+03  0.10768493508E+04  0.90265248197E+03 0.  0.
         23    2    4    4    0    0  0.30002725029E+03 -0.95571268018E+02  0.79032774483E+02  0.33756436479E+03  0.92484067527E+02 0.  0.
         23    2    4    4    0    0 -0.29915787268E+03  0.66740917450E+03  0.54472558366E+02  0.73928498596E+03  0.92976297293E+02 0.  0.
          1    1    3    3  502    0  0.19604344403E+02 -0.34675072028E+02  0.12440905867E+03  0.13063041307E+03  0.00000000000E+00 0. -1.
         -4    1    3    3    0  502 -0.20473722020E+02 -0.53716283446E+03  0.17300335353E+04  0.18116233376E+04  0.00000000000E+00 0.  1.
         11    1    5    5    0    0  0.13134210798E+03 -0.41411477940E+02 -0.12258611844E+02  0.13826038260E+03  0.00000000000E+00 0.  1.
        -11    1    5    5    0    0  0.16868514232E+03 -0.54159790078E+02  0.91291386327E+02  0.19930398219E+03  0.00000000000E+00 0. -1.
          2    1    6    6  503    0 -0.20208480782E+03  0.49162246573E+03  0.12302183000E+01  0.53153779903E+03  0.00000000000E+00 0. -1.
         -2    1    6    6    0  503 -0.97073064853E+02  0.17578670877E+03  0.53242340066E+02  0.20774718693E+03  0.00000000000E+00 0.  1.
<mgrwt>
<rscale>  0 0.22722338E+04</rscale>
<asrwt>0</asrwt>
<pdfrwt beam="1">  1        1 0.79319630E-01 0.22722338E+04</pdfrwt>
<pdfrwt beam="2">  1       -2 0.38515777E+00 0.22722338E+04</pdfrwt>
<totfact> 0.31294117E-01</totfact>
</mgrwt>
</event>
<event>
12    4  0.4207946E-008  0.4153097E+04  0.7818608E-02  0.7974355E-01
         -2   -1    0    0    0  501 -0.00000000000E+00  0.00000000000E+00  0.13471955708E+04  0.13471955708E+04  0.00000000000E+00 0.  1.
          1   -1    0    0  501    0  0.00000000000E+00 -0.00000000000E+00 -0.32007630762E+04  0.32007630762E+04  0.00000000000E+00 0. -1.
        -24    2    1    2    0    0  0.10938711397E+04  0.53456633221E+03  0.82275722101E+03  0.14719417494E+04  0.85836095187E+02 0.  0.
        254    2    1    2    0    0 -0.10938711397E+04 -0.53456633221E+03 -0.26763247264E+04  0.30760168976E+04  0.90379791968E+03 0.  0.
         23    2    4    4    0    0 -0.11778088590E+04 -0.28431428111E+03 -0.23588070368E+04  0.26534122565E+04  0.92507552884E+02 0.  0.
         23    2    4    4    0    0  0.83937719330E+02 -0.25025205110E+03 -0.31751768962E+03  0.42260464114E+03  0.90030937370E+02 0.  0.
          3    1    3    3  502    0  0.48493033618E+03  0.20473939294E+03  0.31791959967E+03  0.61493781948E+03  0.00000000000E+00 0. -1.
         -4    1    3    3    0  502  0.60894080349E+03  0.32982693928E+03  0.50483762134E+03  0.85700392995E+03  0.00000000000E+00 0.  1.
         11    1    5    5    0    0 -0.60007881517E+02  0.56951674618E+01 -0.11061467524E+03  0.12597216818E+03  0.00000000000E+00 0. -1.
        -11    1    5    5    0    0 -0.11178009775E+04 -0.29000944857E+03 -0.22481923615E+04  0.25274400883E+04  0.00000000000E+00 0.  1.
          4    1    6    6  503    0 -0.10969670028E+02 -0.67986690800E+02 -0.49195129703E+02  0.84632644842E+02  0.00000000000E+00 0. -1.
         -4    1    6    6    0  503  0.94907389358E+02 -0.18226536030E+03 -0.26832255992E+03  0.33797199630E+03  0.00000000000E+00 0.  1.
<mgrwt>
<rscale>  0 0.41530971E+04</rscale>
<asrwt>0</asrwt>
<pdfrwt beam="1">  1        1 0.49242509E+00 0.41530971E+04</pdfrwt>
<pdfrwt beam="2">  1       -2 0.20726086E+00 0.41530971E+04</pdfrwt>
<totfact> 0.34439731E-02</totfact>
</mgrwt>
</event>
<event>
12    4  0.4207946E-008  0.1352998E+04  0.7818608E-02  0.8988562E-01
         -2   -1    0    0    0  501 -0.00000000000E+00  0.00000000000E+00  0.12948314984E+04  0.12948314984E+04  0.00000000000E+00 0.  1.
          1   -1    0    0  501    0  0.00000000000E+00 -0.00000000000E+00 -0.35344450263E+03  0.35344450263E+03  0.00000000000E+00 0. -1.
        -24    2    1    2    0    0  0.17457980743E+02 -0.34702195339E+03  0.44028106856E+03  0.56682972474E+03  0.81972558132E+02 0.  0.
        254    2    1    2    0    0 -0.17457980743E+02  0.34702195339E+03  0.50110592716E+03  0.10814462762E+04  0.89313486156E+03 0.  0.
         23    2    4    4    0    0  0.44192491949E+02  0.58277107410E+03  0.95927942062E+02  0.59989335095E+03  0.95366457933E+02 0.  0.
         23    2    4    4    0    0 -0.61650472692E+02 -0.23574912071E+03  0.40517798510E+03  0.48155292529E+03  0.91354209269E+02 0.  0.
          1    1    3    3  502    0  0.86220442853E+01  0.61764491513E+00  0.62375009511E+01  0.10659622461E+02  0.00000000000E+00 0. -1.
         -2    1    3    3    0  502  0.88359364578E+01 -0.34763959830E+03  0.43404356761E+03  0.55617010228E+03  0.00000000000E+00 0.  1.
         11    1    5    5    0    0  0.48796042691E+02  0.53810767559E+03  0.11273430002E+03  0.55195103651E+03  0.00000000000E+00 0.  1.
        -11    1    5    5    0    0 -0.46035507423E+01  0.44663398508E+02 -0.16806357956E+02  0.47942314436E+02  0.00000000000E+00 0. -1.
          2    1    6    6  503    0 -0.18220221346E+02 -0.12081655024E+03  0.28314903008E+03  0.30838610298E+03  0.00000000000E+00 0. -1.
         -2    1    6    6    0  503 -0.43430251346E+02 -0.11493257047E+03  0.12202895502E+03  0.17316682231E+03  0.00000000000E+00 0.  1.
<mgrwt>
<rscale>  0 0.13529983E+04</rscale>
<asrwt>0</asrwt>
<pdfrwt beam="1">  1        1 0.54376078E-01 0.13529983E+04</pdfrwt>
<pdfrwt beam="2">  1       -2 0.19920484E+00 0.13529983E+04</pdfrwt>
<totfact> 0.81277037E+00</totfact>
</mgrwt>
</event>
<event>
12    4  0.4207946E-008  0.1766044E+04  0.7818608E-02  0.8724568E-01
         -2   -1    0    0    0  501 -0.00000000000E+00  0.00000000000E+00  0.50715215375E+03  0.50715215375E+03  0.00000000000E+00 0.  1.
          1   -1    0    0  501    0  0.00000000000E+00 -0.00000000000E+00 -0.15374638301E+04  0.15374638301E+04  0.00000000000E+00 0. -1.
        -24    2    1    2    0    0  0.57646892002E+03  0.23339115346E+03 -0.48346047287E+03  0.79178658236E+03  0.80025726557E+02 0.  0.
        254    2    1    2    0    0 -0.57646892002E+03 -0.23339115346E+03 -0.54685120344E+03  0.12528294015E+04  0.94007841384E+03 0.  0.
         23    2    4    4    0    0 -0.77009523454E+03 -0.10815508153E+03 -0.17116618830E+03  0.80100507066E+03  0.86988891721E+02 0.  0.
         23    2    4    4    0    0  0.19362631452E+03 -0.12523607193E+03 -0.37568501515E+03  0.45182433079E+03  0.99150249141E+02 0.  0.
          1    1    3    3  502    0  0.28395715839E+03  0.13607784035E+03 -0.28832620200E+03  0.42694360891E+03  0.00000000000E+00 0. -1.
         -2    1    3    3    0  502  0.29251176164E+03  0.97313313104E+02 -0.19513427087E+03  0.36484297345E+03  0.00000000000E+00 0.  1.
         11    1    5    5    0    0 -0.58245538512E+03 -0.46247567267E+02 -0.11391802888E+03  0.59529020690E+03  0.00000000000E+00 0. -1.
        -11    1    5    5    0    0 -0.18763984943E+03 -0.61907514261E+02 -0.57248159422E+02  0.20571486376E+03  0.00000000000E+00 0.  1.
          4    1    6    6  503    0  0.13275846149E+03 -0.45919477541E+02 -0.15290223345E+03  0.20763549915E+03  0.00000000000E+00 0.  1.
         -4    1    6    6    0  503  0.60867853031E+02 -0.79316594387E+02 -0.22278278170E+03  0.24418883164E+03  0.00000000000E+00 0. -1.
<mgrwt>
<rscale>  0 0.17660443E+04</rscale>
<asrwt>0</asrwt>
<pdfrwt beam="1">  1        1 0.23653290E+00 0.17660443E+04</pdfrwt>
<pdfrwt beam="2">  1       -2 0.78023408E-01 0.17660443E+04</pdfrwt>
<totfact> 0.74829259E+00</totfact>
</mgrwt>
</event>
<event>
12    4  0.4207946E-008  0.1527439E+04  0.7818608E-02  0.8866409E-01
         -2   -1    0    0    0  501 -0.00000000000E+00  0.00000000000E+00  0.54001537310E+03  0.54001537310E+03  0.00000000000E+00 0.  1.
          1   -1    0    0  501    0  0.00000000000E+00 -0.00000000000E+00 -0.10800937435E+04  0.10800937435E+04  0.00000000000E+00 0. -1.
        -24    2    1    2    0    0 -0.95487528650E+02 -0.18458119934E+02  0.33624399587E+03  0.35910091842E+03  0.80217669703E+02 0.  0.
        254    2    1    2    0    0  0.95487528650E+02  0.18458119934E+02 -0.87632236625E+03  0.12610081982E+04  0.90152216609E+03 0.  0.
         23    2    4    4    0    0 -0.28042788273E+03  0.13957441851E+01  0.90405040266E+01  0.29470867254E+03  0.90164990133E+02 0.  0.
         23    2    4    4    0    0  0.37591541138E+03  0.17062375749E+02 -0.88536287027E+03  0.96629952563E+03  0.90905665322E+02 0.  0.
          1    1    3    3  502    0 -0.39511884398E+02 -0.27537298957E+02  0.59215344551E+02  0.76327903632E+02  0.00000000000E+00 0. -1.
         -2    1    3    3    0  502 -0.55975644251E+02  0.90791790221E+01  0.27702865132E+03  0.28277301479E+03  0.00000000000E+00 0.  1.
         11    1    5    5    0    0 -0.18198645349E+03 -0.27878862860E+02  0.38024440364E+02  0.18799510183E+03  0.00000000000E+00 0. -1.
        -11    1    5    5    0    0 -0.98441429242E+02  0.29274607045E+02 -0.28983936337E+02  0.10671357071E+03  0.00000000000E+00 0.  1.
          1    1    6    6  503    0  0.15831433309E+03  0.46968092667E+02 -0.32814402645E+03  0.36735259886E+03  0.00000000000E+00 0. -1.
         -1    1    6    6    0  503  0.21760107829E+03 -0.29905716917E+02 -0.55721884382E+03  0.59894692677E+03  0.00000000000E+00 0.  1.
<mgrwt>
<rscale>  0 0.15274387E+04</rscale>
<asrwt>0</asrwt>
<pdfrwt beam="1">  1        1 0.16616827E+00 0.15274387E+04</pdfrwt>
<pdfrwt beam="2">  1       -2 0.83079289E-01 0.15274387E+04</pdfrwt>
<totfact> 0.14099901E+01</totfact>
</mgrwt>
</event>
<event>
12    4  0.4207946E-008  0.1975262E+04  0.7818608E-02  0.8618275E-01
         -2   -1    0    0    0  501 -0.00000000000E+00  0.00000000000E+00  0.41022876638E+03  0.41022876638E+03  0.00000000000E+00 0.  1.
          1   -1    0    0  501    0  0.00000000000E+00 -0.00000000000E+00 -0.23777331630E+04  0.23777331630E+04  0.00000000000E+00 0. -1.
        -24    2    1    2    0    0 -0.38076432198E+03  0.28817060324E+02  0.18171156334E+03  0.43054573339E+03  0.80861884937E+02 0.  0.
        254    2    1    2    0    0  0.38076432198E+03 -0.28817060324E+02 -0.21492159600E+04  0.23574161960E+04  0.89020783342E+03 0.  0.
         23    2    4    4    0    0  0.23438702500E+03  0.93330942922E+02 -0.21276957846E+04  0.21446004996E+04  0.92595943142E+02 0.  0.
         23    2    4    4    0    0  0.14637729698E+03 -0.12214800325E+03 -0.21520175334E+02  0.21281569636E+03  0.92092100112E+02 0.  0.
          3    1    3    3  502    0 -0.15221211920E+03 -0.22569461244E+02  0.49980909328E+02  0.16178999076E+03  0.00000000000E+00 0. -1.
         -4    1    3    3    0  502 -0.22855220278E+03  0.51386521568E+02  0.13173065401E+03  0.26875574264E+03  0.00000000000E+00 0.  1.
         11    1    5    5    0    0  0.13123479495E+03  0.98501751801E+02 -0.14086942298E+04  0.14182188123E+04  0.00000000000E+00 0.  1.
        -11    1    5    5    0    0  0.10315223004E+03 -0.51708088791E+01 -0.71900155480E+03  0.72638168729E+03  0.00000000000E+00 0. -1.
          4    1    6    6  503    0  0.56239435639E+02 -0.16893307288E+02  0.28776866061E+02  0.65393929170E+02  0.00000000000E+00 0. -1.
         -4    1    6    6    0  503  0.90137861339E+02 -0.10525469596E+03 -0.50297041395E+02  0.14742176719E+03  0.00000000000E+00 0.  1.
<mgrwt>
<rscale>  0 0.19752615E+04</rscale>
<asrwt>0</asrwt>
<pdfrwt beam="1">  1        1 0.36580511E+00 0.19752615E+04</pdfrwt>
<pdfrwt beam="2">  1       -2 0.63112117E-01 0.19752615E+04</pdfrwt>
<totfact> 0.31266903E+00</totfact>
</mgrwt>
</event>
<event>
12    4  0.4207946E-008  0.1452364E+04  0.7818608E-02  0.8916763E-01
          1   -1    0    0  501    0  0.00000000000E+00  0.00000000000E+00  0.99063890088E+03  0.99063890088E+03  0.00000000000E+00 0. -1.
         -2   -1    0    0    0  501 -0.00000000000E+00 -0.00000000000E+00 -0.53232370752E+03  0.53232370752E+03  0.00000000000E+00 0.  1.
        -24    2    1    2    0    0 -0.35930392198E+03 -0.23773245130E+03  0.22530803128E+02  0.43945532273E+03  0.83649966130E+02 0.  0.
        254    2    1    2    0    0  0.35930392198E+03  0.23773245130E+03  0.43578439023E+03  0.10835072857E+04  0.89356811524E+03 0.  0.
         23    2    4    4    0    0 -0.19488878634E+03  0.22285327179E+03 -0.80962961283E+02  0.32024076239E+03  0.91399808552E+02 0.  0.
         23    2    4    4    0    0  0.55419270832E+03  0.14879179510E+02  0.51674735152E+03  0.76326652329E+03  0.90537353231E+02 0.  0.
          1    1    3    3  502    0 -0.17354042083E+03 -0.10992325295E+03  0.52395595440E+02  0.21200164533E+03  0.00000000000E+00 0. -1.
         -2    1    3    3    0  502 -0.18576350115E+03 -0.12780919835E+03 -0.29864792312E+02  0.22745367739E+03  0.00000000000E+00 0.  1.
         11    1    5    5    0    0 -0.41429181488E+02  0.11484165132E+03 -0.35711106202E+02  0.12720167083E+03  0.00000000000E+00 0.  1.
        -11    1    5    5    0    0 -0.15345960485E+03  0.10801162047E+03 -0.45251855081E+02  0.19303909155E+03  0.00000000000E+00 0. -1.
          4    1    6    6  503    0  0.45889645210E+03  0.26711691003E+02  0.38131303795E+03  0.59724291632E+03  0.00000000000E+00 0. -1.
         -4    1    6    6    0  503  0.95296256222E+02 -0.11832511493E+02  0.13543431357E+03  0.16602360697E+03  0.00000000000E+00 0.  1.
<mgrwt>
<rscale>  0 0.14523644E+04</rscale>
<asrwt>0</asrwt>
<pdfrwt beam="1">  1        1 0.15240598E+00 0.14523644E+04</pdfrwt>
<pdfrwt beam="2">  1       -2 0.81895955E-01 0.14523644E+04</pdfrwt>
<totfact> 0.17176789E+01</totfact>
</mgrwt>
</event>
<event>
12    4  0.4207946E-008  0.2719943E+04  0.7818608E-02  0.8328563E-01
          1   -1    0    0  501    0  0.00000000000E+00  0.00000000000E+00  0.28649312748E+04  0.28649312748E+04  0.00000000000E+00 0. -1.
         -2   -1    0    0    0  501 -0.00000000000E+00 -0.00000000000E+00 -0.64557283941E+03  0.64557283941E+03  0.00000000000E+00 0.  1.
        -24    2    1    2    0    0  0.10586503079E+02 -0.10603039357E+04  0.17512383501E+04  0.20488290015E+04  0.80672230040E+02 0.  0.
        254    2    1    2    0    0 -0.10586503079E+02  0.10603039357E+04  0.46812008533E+03  0.14616751127E+04  0.89050615427E+03 0.  0.
         23    2    4    4    0    0  0.92491342341E+02  0.90151784170E+03  0.70015763354E+03  0.11490031552E+04  0.93265596814E+02 0.  0.
         23    2    4    4    0    0 -0.10307784542E+03  0.15878609396E+03 -0.23203754821E+03  0.31267195750E+03  0.89912531834E+02 0.  0.
          1    1    3    3  502    0  0.42366814719E+00 -0.38089095004E+03  0.55615544708E+03  0.67408232186E+03  0.00000000000E+00 0. -1.
         -2    1    3    3    0  502  0.10162834932E+02 -0.67941298561E+03  0.11950829030E+04  0.13747466797E+04  0.00000000000E+00 0.  1.
         11    1    5    5    0    0  0.10438940094E+03  0.61399677912E+03  0.49576709866E+03  0.79603656192E+03  0.00000000000E+00 0. -1.
        -11    1    5    5    0    0 -0.11898058597E+02  0.28752106258E+03  0.20439053488E+03  0.35296659328E+03  0.00000000000E+00 0.  1.
          3    1    6    6  503    0 -0.78450799045E+01 -0.12650143567E+01  0.63406473022E+01  0.10166088148E+02  0.00000000000E+00 0. -1.
         -3    1    6    6    0  503 -0.95232765516E+02  0.16005110832E+03 -0.23837819551E+03  0.30250586936E+03  0.00000000000E+00 0.  1.
<mgrwt>
<rscale>  0 0.27199425E+04</rscale>
<asrwt>0</asrwt>
<pdfrwt beam="1">  1        1 0.44075865E+00 0.27199425E+04</pdfrwt>
<pdfrwt beam="2">  1       -2 0.99318900E-01 0.27199425E+04</pdfrwt>
<totfact> 0.48175501E-01</totfact>
</mgrwt>
</event>
<event>
12    4  0.4207946E-008  0.1688381E+04  0.7818608E-02  0.8768019E-01
         -2   -1    0    0    0  501 -0.00000000000E+00  0.00000000000E+00  0.59502409880E+03  0.59502409880E+03  0.00000000000E+00 0.  1.
          1   -1    0    0  501    0  0.00000000000E+00 -0.00000000000E+00 -0.11976951087E+04  0.11976951087E+04  0.00000000000E+00 0. -1.
        -24    2    1    2    0    0 -0.47518506270E+02  0.38581155637E+03 -0.69768448859E+03  0.80289068534E+03  0.82226768852E+02 0.  0.
        254    2    1    2    0    0  0.47518506270E+02 -0.38581155637E+03  0.95013478707E+02  0.98982852216E+03  0.90533108677E+03 0.  0.
         23    2    4    4    0    0  0.42422276279E+03 -0.11864839650E+03 -0.12999081535E+03  0.46783561077E+03  0.89051401840E+02 0.  0.
         23    2    4    4    0    0 -0.37670425652E+03 -0.26716315987E+03  0.22500429406E+03  0.52199291139E+03  0.92560338840E+02 0.  0.
          1    1    3    3  502    0 -0.59439643506E+02  0.22457095898E+03 -0.35918280043E+03  0.42775865972E+03  0.00000000000E+00 0. -1.
         -2    1    3    3    0  502  0.11921137237E+02  0.16124059739E+03 -0.33850168816E+03  0.37513202562E+03  0.00000000000E+00 0.  1.
         11    1    5    5    0    0  0.30866473162E+03 -0.66096743073E+02 -0.12867898453E+03  0.34088264411E+03  0.00000000000E+00 0. -1.
        -11    1    5    5    0    0  0.11555803116E+03 -0.52551653424E+02 -0.13118308175E+01  0.12695296666E+03  0.00000000000E+00 0.  1.
          1    1    6    6  503    0 -0.33699048838E+03 -0.20120808744E+03  0.20323254194E+03  0.44198501085E+03  0.00000000000E+00 0. -1.
         -1    1    6    6    0  503 -0.39713768136E+02 -0.65955072429E+02  0.21771752117E+02  0.80007900540E+02  0.00000000000E+00 0.  1.
<mgrwt>
<rscale>  0 0.16883808E+04</rscale>
<asrwt>0</asrwt>
<pdfrwt beam="1">  1        1 0.18426078E+00 0.16883808E+04</pdfrwt>
<pdfrwt beam="2">  1       -2 0.91542170E-01 0.16883808E+04</pdfrwt>
<totfact> 0.91063777E+00</totfact>
</mgrwt>
</event>
<event>
12    4  0.4207946E-008  0.1437793E+04  0.7818608E-02  0.8926908E-01
          1   -1    0    0  501    0  0.00000000000E+00  0.00000000000E+00  0.99501242658E+03  0.99501242658E+03  0.00000000000E+00 0. -1.
         -2   -1    0    0    0  501 -0.00000000000E+00 -0.00000000000E+00 -0.51940243473E+03  0.51940243473E+03  0.00000000000E+00 0.  1.
        -24    2    1    2    0    0 -0.38063265327E+03 -0.47646291971E+02  0.30343722249E+03  0.49565857705E+03  0.80323664849E+02 0.  0.
        254    2    1    2    0    0  0.38063265327E+03  0.47646291971E+02  0.17217276936E+03  0.10187562843E+04  0.92793831602E+03 0.  0.
         23    2    4    4    0    0  0.12131491788E+02 -0.29853642042E+03 -0.21175604310E+03  0.37771116950E+03  0.92487503833E+02 0.  0.
         23    2    4    4    0    0  0.36850116149E+03  0.34618271239E+03  0.38392881247E+03  0.64104511476E+03  0.88892799195E+02 0.  0.
          3    1    3    3  502    0 -0.37035303115E+03 -0.36159408085E+02  0.30358595164E+03  0.48024295988E+03  0.00000000000E+00 0. -1.
         -4    1    3    3    0  502 -0.10279622121E+02 -0.11486883886E+02 -0.14872915818E+00  0.15415617170E+02  0.00000000000E+00 0.  1.
         11    1    5    5    0    0  0.37796384640E+01 -0.22158440261E+03 -0.20169188095E+03  0.29965571576E+03  0.00000000000E+00 0. -1.
        -11    1    5    5    0    0  0.83518533241E+01 -0.76952017804E+02 -0.10064162152E+02  0.78055453735E+02  0.00000000000E+00 0.  1.
          2    1    6    6  503    0  0.18300983314E+03  0.17888071242E+03  0.24935336186E+03  0.35730660135E+03  0.00000000000E+00 0. -1.
         -2    1    6    6    0  503  0.18549132835E+03  0.16730199997E+03  0.13457545061E+03  0.28373851341E+03  0.00000000000E+00 0.  1.
<mgrwt>
<rscale>  0 0.14377926E+04</rscale>
<asrwt>0</asrwt>
<pdfrwt beam="1">  1        1 0.15307883E+00 0.14377926E+04</pdfrwt>
<pdfrwt beam="2">  1       -2 0.79908067E-01 0.14377926E+04</pdfrwt>
<totfact> 0.18034294E+01</totfact>
</mgrwt>
</event>
<event>
12    4  0.4207946E-008  0.1092234E+04  0.7818608E-02  0.9212795E-01
          1   -1    0    0  501    0  0.00000000000E+00  0.00000000000E+00  0.10203515300E+04  0.10203515300E+04  0.00000000000E+00 0. -1.
         -2   -1    0    0    0  501 -0.00000000000E+00 -0.00000000000E+00 -0.29229502203E+03  0.29229502203E+03  0.00000000000E+00 0.  1.
        -24    2    1    2    0    0 -0.10084629875E+03  0.35364091937E+02  0.26574557895E+03  0.29668702625E+03  0.77342639227E+02 0.  0.
        254    2    1    2    0    0  0.10084629875E+03 -0.35364091937E+02  0.46231092899E+03  0.10159595257E+04  0.89834390292E+03 0.  0.
         23    2    4    4    0    0  0.42973140972E+03 -0.24301666244E+03  0.21145866080E+03  0.54477415352E+03  0.91312268584E+02 0.  0.
         23    2    4    4    0    0 -0.32888511097E+03  0.20765257050E+03  0.25085226819E+03  0.47118537222E+03  0.88339053037E+02 0.  0.
          3    1    3    3  502    0 -0.49006788189E+02 -0.14046805199E+01  0.19723337640E+03  0.20323543781E+03  0.00000000000E+00 0. -1.
         -4    1    3    3    0  502 -0.51839510562E+02  0.36768772457E+02  0.68512202548E+02  0.93451588436E+02  0.00000000000E+00 0.  1.
         11    1    5    5    0    0  0.32738855182E+03 -0.16496819783E+03  0.19435345671E+03  0.41493497839E+03  0.00000000000E+00 0.  1.
        -11    1    5    5    0    0  0.10234285790E+03 -0.78048464608E+02  0.17105204087E+02  0.12983917513E+03  0.00000000000E+00 0. -1.
          3    1    6    6  503    0 -0.64087490605E+02  0.24359663967E+02  0.84171732729E+02  0.10856095187E+03  0.00000000000E+00 0. -1.
         -3    1    6    6    0  503 -0.26479762036E+03  0.18329290654E+03  0.16668053546E+03  0.36262442035E+03  0.00000000000E+00 0.  1.
<mgrwt>
<rscale>  0 0.10922338E+04</rscale>
<asrwt>0</asrwt>
<pdfrwt beam="1">  1        1 0.15697716E+00 0.10922338E+04</pdfrwt>
<pdfrwt beam="2">  1       -2 0.44968465E-01 0.10922338E+04</pdfrwt>
<totfact> 0.59783461E+01</totfact>
</mgrwt>
</event>
<event>
12    4  0.4207946E-008  0.1721426E+04  0.7818608E-02  0.8749238E-01
         -2   -1    0    0    0  501 -0.00000000000E+00  0.00000000000E+00  0.32782335468E+03  0.32782335468E+03  0.00000000000E+00 0.  1.
          1   -1    0    0  501    0  0.00000000000E+00 -0.00000000000E+00 -0.22598361170E+04  0.22598361170E+04  0.00000000000E+00 0. -1.
        -24    2    1    2    0    0 -0.54561458101E+02  0.17650719673E+01 -0.16453523653E+04  0.16482542207E+04  0.81101800819E+02 0.  0.
        254    2    1    2    0    0  0.54561458101E+02 -0.17650719673E+01 -0.28666039711E+03  0.93940525099E+03  0.89293223379E+03 0.  0.
         23    2    4    4    0    0 -0.80574884885E+02  0.71279484799E+02  0.29761643722E+03  0.32919112474E+03  0.90654155324E+02 0.  0.
         23    2    4    4    0    0  0.13513634299E+03 -0.73044556766E+02 -0.58427683433E+03  0.61021412625E+03  0.85933243110E+02 0.  0.
          1    1    3    3  502    0 -0.72572676082E+02  0.16117417571E+02 -0.13154569293E+04  0.13175558802E+04  0.00000000000E+00 0. -1.
         -2    1    3    3    0  502  0.18011217982E+02 -0.14352345604E+02 -0.32989543592E+03  0.33069834054E+03  0.00000000000E+00 0.  1.
         11    1    5    5    0    0 -0.76774593678E+01  0.38265127322E+02  0.19599603410E+03  0.19984396097E+03  0.00000000000E+00 0. -1.
        -11    1    5    5    0    0 -0.72897425517E+02  0.33014357477E+02  0.10162040312E+03  0.12934716378E+03  0.00000000000E+00 0.  1.
          2    1    6    6  503    0  0.12460351334E+03 -0.27544358182E+02 -0.46271135644E+03  0.47998596499E+03  0.00000000000E+00 0. -1.
         -2    1    6    6    0  503  0.10532829643E+02 -0.45500198585E+02 -0.12156547789E+03  0.13022816126E+03  0.00000000000E+00 0.  1.
<mgrwt>
<rscale>  0 0.17214262E+04</rscale>
<asrwt>0</asrwt>
<pdfrwt beam="1">  1        1 0.34766709E+00 0.17214262E+04</pdfrwt>
<pdfrwt beam="2">  1       -2 0.50434363E-01 0.17214262E+04</pdfrwt>
<totfact> 0.61537435E+00</totfact>
</mgrwt>
</event>
<event>
12    4  0.4207946E-008  0.2774913E+04  0.7818608E-02  0.8311100E-01
         -2   -1    0    0    0  501 -0.00000000000E+00  0.00000000000E+00  0.14543287406E+04  0.14543287406E+04  0.00000000000E+00 0.  1.
          1   -1    0    0  501    0  0.00000000000E+00 -0.00000000000E+00 -0.13236588160E+04  0.13236588160E+04  0.00000000000E+00 0. -1.
        -24    2    1    2    0    0  0.27050432206E+03 -0.39824771029E+03 -0.10844049857E+04  0.11890884205E+04  0.78887715308E+02 0.  0.
        254    2    1    2    0    0 -0.27050432206E+03  0.39824771029E+03  0.12150749103E+04  0.15888991361E+04  0.90355940586E+03 0.  0.
         23    2    4    4    0    0 -0.27312921897E+03  0.14287125648E+03  0.12713286037E+04  0.13117901088E+04  0.97494126425E+02 0.  0.
         23    2    4    4    0    0  0.26248969093E+01  0.25537645382E+03 -0.56253693404E+02  0.27710902728E+03  0.91656487666E+02 0.  0.
          3    1    3    3  502    0  0.19811413017E+03 -0.32661481574E+03 -0.78878122958E+03  0.87641444225E+03  0.00000000000E+00 0. -1.
         -4    1    3    3    0  502  0.72390191894E+02 -0.71632894553E+02 -0.29562375614E+03  0.31267397823E+03  0.00000000000E+00 0.  1.
         11    1    5    5    0    0 -0.27007849062E+03  0.12523230783E+03  0.11014933055E+04  0.11410140333E+04  0.00000000000E+00 0. -1.
        -11    1    5    5    0    0 -0.30507283544E+01  0.17638948650E+02  0.16983529822E+03  0.17077607553E+03  0.00000000000E+00 0.  1.
          4    1    6    6  503    0 -0.34208687547E+01  0.24919139421E+03 -0.31879289499E+02  0.25124558183E+03  0.00000000000E+00 0. -1.
         -4    1    6    6    0  503  0.60457656640E+01  0.61850596074E+01 -0.24374403904E+02  0.25863445449E+02  0.00000000000E+00 0.  1.
<mgrwt>
<rscale>  0 0.27749127E+04</rscale>
<asrwt>0</asrwt>
<pdfrwt beam="1">  1        1 0.20363982E+00 0.27749127E+04</pdfrwt>
<pdfrwt beam="2">  1       -2 0.22374288E+00 0.27749127E+04</pdfrwt>
<totfact> 0.62020310E-01</totfact>
</mgrwt>
</event>
<event>
12    4  0.4207946E-008  0.1900714E+04  0.7818608E-02  0.8654501E-01
         -2   -1    0    0    0  501 -0.00000000000E+00  0.00000000000E+00  0.63354454264E+03  0.63354454264E+03  0.00000000000E+00 0.  1.
          1   -1    0    0  501    0  0.00000000000E+00 -0.00000000000E+00 -0.14255952824E+04  0.14255952824E+04  0.00000000000E+00 0. -1.
        -24    2    1    2    0    0  0.71716601095E+03  0.12159102288E+03 -0.35925699690E+03  0.81509413972E+03  0.78748985285E+02 0.  0.
        254    2    1    2    0    0 -0.71716601095E+03 -0.12159102288E+03 -0.43279374285E+03  0.12440456853E+04  0.91171694027E+03 0.  0.
         23    2    4    4    0    0 -0.54519608334E+02 -0.12498753820E+00  0.25555456201E+03  0.27653198034E+03  0.90495296415E+02 0.  0.
         23    2    4    4    0    0 -0.66264640262E+03 -0.12146603534E+03 -0.68834830486E+03  0.96751370497E+03  0.91679484411E+02 0.  0.
          1    1    3    3  502    0  0.55345977671E+03  0.12221151214E+03 -0.29750672073E+03  0.64012782084E+03  0.00000000000E+00 0. -1.
         -2    1    3    3    0  502  0.16370623424E+03 -0.62048926511E+00 -0.61750276174E+02  0.17496631889E+03  0.00000000000E+00 0.  1.
         11    1    5    5    0    0 -0.52520485158E+02  0.33978742795E+02  0.21280985128E+03  0.22181295978E+03  0.00000000000E+00 0. -1.
        -11    1    5    5    0    0 -0.19991231754E+01 -0.34103730334E+02  0.42744710724E+02  0.54719020560E+02  0.00000000000E+00 0.  1.
          2    1    6    6  503    0 -0.46372082994E+03 -0.10862175152E+03 -0.53299749548E+03  0.71478809672E+03  0.00000000000E+00 0. -1.
         -2    1    6    6    0  503 -0.19892557267E+03 -0.12844283817E+02 -0.15535080938E+03  0.25272560825E+03  0.00000000000E+00 0.  1.
<mgrwt>
<rscale>  0 0.19007137E+04</rscale>
<asrwt>0</asrwt>
<pdfrwt beam="1">  1        1 0.21932235E+00 0.19007137E+04</pdfrwt>
<pdfrwt beam="2">  1       -2 0.97468392E-01 0.19007137E+04</pdfrwt>
<totfact> 0.53111614E+00</totfact>
</mgrwt>
</event>
<event>
12    4  0.4207946E-008  0.2529216E+04  0.7818608E-02  0.8392651E-01
         -2   -1    0    0    0  501 -0.00000000000E+00  0.00000000000E+00  0.78956762879E+03  0.78956762879E+03  0.00000000000E+00 0.  1.
          1   -1    0    0  501    0  0.00000000000E+00 -0.00000000000E+00 -0.20254540402E+04  0.20254540402E+04  0.00000000000E+00 0. -1.
        -24    2    1    2    0    0 -0.93609795011E+03 -0.49683877640E+03 -0.20127836184E+03  0.10817404617E+04  0.80754600523E+02 0.  0.
        254    2    1    2    0    0  0.93609795011E+03  0.49683877640E+03 -0.10346080495E+04  0.17332812073E+04  0.90040090265E+03 0.  0.
         23    2    4    4    0    0  0.10386797889E+03 -0.23874256768E+03 -0.17660767689E+03  0.32726644400E+03  0.90147008659E+02 0.  0.
         23    2    4    4    0    0  0.83222997122E+03  0.73558134408E+03 -0.85800037263E+03  0.14060147633E+04  0.83822648604E+02 0.  0.
          1    1    3    3  502    0 -0.17570791155E+03 -0.12499733893E+03 -0.24304574702E+02  0.21699842689E+03  0.00000000000E+00 0. -1.
         -2    1    3    3    0  502 -0.76039003855E+03 -0.37184143747E+03 -0.17697378714E+03  0.86474203476E+03  0.00000000000E+00 0.  1.
         11    1    5    5    0    0  0.41414461519E+02 -0.84826697951E+02 -0.11803242120E+03  0.15113695367E+03  0.00000000000E+00 0.  1.
        -11    1    5    5    0    0  0.62453517370E+02 -0.15391586973E+03 -0.58575255688E+02  0.17612949033E+03  0.00000000000E+00 0. -1.
          2    1    6    6  503    0  0.60930182624E+03  0.55101063250E+03 -0.58842965870E+03  0.10105003196E+04  0.00000000000E+00 0. -1.
         -2    1    6    6    0  503  0.22292814498E+03  0.18457071158E+03 -0.26957071394E+03  0.39551444374E+03  0.00000000000E+00 0.  1.
<mgrwt>
<rscale>  0 0.25292156E+04</rscale>
<asrwt>0</asrwt>
<pdfrwt beam="1">  1        1 0.31160832E+00 0.25292156E+04</pdfrwt>
<pdfrwt beam="2">  1       -2 0.12147194E+00 0.25292156E+04</pdfrwt>
<totfact> 0.11487436E+00</totfact>
</mgrwt>
</event>
<event>
12    4  0.4207946E-008  0.1914400E+04  0.7818608E-02  0.8647722E-01
          1   -1    0    0  501    0  0.00000000000E+00  0.00000000000E+00  0.13076927394E+04  0.13076927394E+04  0.00000000000E+00 0. -1.
         -2   -1    0    0    0  501 -0.00000000000E+00 -0.00000000000E+00 -0.70064752309E+03  0.70064752309E+03  0.00000000000E+00 0.  1.
        -24    2    1    2    0    0 -0.12988498925E+03 -0.73183647106E+03  0.32810586345E+03  0.81698790883E+03  0.85796589266E+02 0.  0.
        254    2    1    2    0    0  0.12988498925E+03  0.73183647106E+03  0.27893935290E+03  0.11913523537E+04  0.88828966969E+03 0.  0.
         23    2    4    4    0    0  0.50185165390E+03  0.36140761600E+03  0.16134675689E+03  0.64549668077E+03  0.90347338140E+02 0.  0.
         23    2    4    4    0    0 -0.37196666464E+03  0.37042885507E+03  0.11759259601E+03  0.54585567293E+03  0.92486003063E+02 0.  0.
          3    1    3    3  502    0 -0.71662374469E+02 -0.53339891097E+03  0.27031355221E+03  0.60226182898E+03  0.00000000000E+00 0. -1.
         -4    1    3    3    0  502 -0.58222614786E+02 -0.19843756010E+03  0.57792311238E+02  0.21472607985E+03  0.00000000000E+00 0.  1.
         11    1    5    5    0    0  0.10641272163E+03  0.41511125034E+02  0.50701566120E+02  0.12496995493E+03  0.00000000000E+00 0. -1.
        -11    1    5    5    0    0  0.39543893226E+03  0.31989649096E+03  0.11064519077E+03  0.52052672585E+03  0.00000000000E+00 0.  1.
          1    1    6    6  503    0 -0.93272997504E+01 -0.84186864818E+00 -0.75069340872E+01  0.12002554847E+02  0.00000000000E+00 0. -1.
         -1    1    6    6    0  503 -0.36263936489E+03  0.37127072372E+03  0.12509953010E+03  0.53385311809E+03  0.00000000000E+00 0.  1.
<mgrwt>
<rscale>  0 0.19143998E+04</rscale>
<asrwt>0</asrwt>
<pdfrwt beam="1">  1        1 0.20118350E+00 0.19143998E+04</pdfrwt>
<pdfrwt beam="2">  1       -2 0.10779193E+00 0.19143998E+04</pdfrwt>
<totfact> 0.50533983E+00</totfact>
</mgrwt>
</event>
<event>
12    4  0.4207946E-008  0.2752167E+04  0.7818608E-02  0.8318274E-01
          1   -1    0    0  501    0  0.00000000000E+00  0.00000000000E+00  0.30001864395E+04  0.30001864395E+04  0.00000000000E+00 0. -1.
         -2   -1    0    0    0  501 -0.00000000000E+00 -0.00000000000E+00 -0.63116248497E+03  0.63116248497E+03  0.00000000000E+00 0.  1.
        -24    2    1    2    0    0 -0.51899615954E+03 -0.56327559674E+02  0.25335293765E+04  0.25880062144E+04  0.80468976929E+02 0.  0.
        254    2    1    2    0    0  0.51899615954E+03  0.56327559674E+02 -0.16450542199E+03  0.10433427101E+04  0.88824105359E+03 0.  0.
         23    2    4    4    0    0  0.75623457635E+02  0.31432130253E+03  0.21518411362E+03  0.39859137194E+03  0.89744584604E+02 0.  0.
         23    2    4    4    0    0  0.44337270190E+03 -0.25799374285E+03 -0.37968953561E+03  0.64475133817E+03  0.91651625604E+02 0.  0.
          3    1    3    3  502    0 -0.44320834291E+03 -0.55461957536E+02  0.20109146392E+04  0.20599241127E+04  0.00000000000E+00 0. -1.
         -4    1    3    3    0  502 -0.75787816625E+02 -0.86560213841E+00  0.52261473731E+03  0.52808210164E+03  0.00000000000E+00 0.  1.
         11    1    5    5    0    0 -0.11354351946E+02  0.70173910532E+02  0.77304745546E+02  0.10502058232E+03  0.00000000000E+00 0. -1.
        -11    1    5    5    0    0  0.86977809581E+02  0.24414739199E+03  0.13787936807E+03  0.29357078962E+03  0.00000000000E+00 0.  1.
          2    1    6    6  503    0  0.41085056743E+03 -0.20601508677E+03 -0.32956802883E+03  0.56555768084E+03  0.00000000000E+00 0.  1.
         -2    1    6    6    0  503  0.32522134475E+02 -0.51978656083E+02 -0.50121506783E+02  0.79193657330E+02  0.00000000000E+00 0. -1.
<mgrwt>
<rscale>  0 0.27521665E+04</rscale>
<asrwt>0</asrwt>
<pdfrwt beam="1">  1        1 0.46156714E+00 0.27521665E+04</pdfrwt>
<pdfrwt beam="2">  1       -2 0.97101922E-01 0.27521665E+04</pdfrwt>
<totfact> 0.40439259E-01</totfact>
</mgrwt>
</event>
<event>
12    4  0.4207946E-008  0.1561460E+04  0.7818608E-02  0.8844581E-01
         -2   -1    0    0    0  501 -0.00000000000E+00  0.00000000000E+00  0.32417467169E+04  0.32417467169E+04  0.00000000000E+00 0.  1.
          1   -1    0    0  501    0  0.00000000000E+00 -0.00000000000E+00 -0.18802799572E+03  0.18802799572E+03  0.00000000000E+00 0. -1.
        -24    2    1    2    0    0 -0.40037240407E+03 -0.29426494935E+03  0.66696524272E+03  0.83578593977E+03  0.82495937845E+02 0.  0.
        254    2    1    2    0    0  0.40037240407E+03  0.29426494935E+03  0.23867534784E+04  0.25939887728E+04  0.88616909468E+03 0.  0.
         23    2    4    4    0    0  0.51951372308E+02 -0.30198910527E+03  0.72231002787E+03  0.78968163641E+03  0.89268951676E+02 0.  0.
         23    2    4    4    0    0  0.34842103176E+03  0.59625405462E+03  0.16644434505E+04  0.18043071364E+04  0.90753123154E+02 0.  0.
          1    1    3    3  502    0 -0.31881945216E+03 -0.27202583993E+03  0.55047667910E+03  0.69185871021E+03  0.00000000000E+00 0. -1.
         -2    1    3    3    0  502 -0.81552951911E+02 -0.22239109420E+02  0.11648856362E+03  0.14392722956E+03  0.00000000000E+00 0.  1.
         11    1    5    5    0    0  0.67525766191E+02 -0.13505929094E+03  0.32006654263E+03  0.35389734794E+03  0.00000000000E+00 0. -1.
        -11    1    5    5    0    0 -0.15574393883E+02 -0.16692981433E+03  0.40224348523E+03  0.43578428846E+03  0.00000000000E+00 0.  1.
          2    1    6    6  503    0  0.17510761668E+03  0.36096474960E+03  0.10458404202E+04  0.11201519595E+04  0.00000000000E+00 0. -1.
         -2    1    6    6    0  503  0.17331341508E+03  0.23528930502E+03  0.61860303030E+03  0.68415517684E+03  0.00000000000E+00 0.  1.
<mgrwt>
<rscale>  0 0.15614598E+04</rscale>
<asrwt>0</asrwt>
<pdfrwt beam="1">  1        1 0.28927386E-01 0.15614598E+04</pdfrwt>
<pdfrwt beam="2">  1       -2 0.49873022E+00 0.15614598E+04</pdfrwt>
<totfact> 0.22788667E-01</totfact>
</mgrwt>
</event>
<event>
12    4  0.4207946E-008  0.1528372E+04  0.7818608E-02  0.8865802E-01
         -2   -1    0    0    0  501 -0.00000000000E+00  0.00000000000E+00  0.11834169418E+04  0.11834169418E+04  0.00000000000E+00 0.  1.
          1   -1    0    0  501    0  0.00000000000E+00 -0.00000000000E+00 -0.49346949978E+03  0.49346949978E+03  0.00000000000E+00 0. -1.
        -24    2    1    2    0    0 -0.98502550834E+02  0.20291316326E+03  0.69268134177E+03  0.73241599205E+03  0.75823741861E+02 0.  0.
        254    2    1    2    0    0  0.98502550834E+02 -0.20291316326E+03 -0.27338997166E+01  0.94447044955E+03  0.91713709527E+03 0.  0.
         23    2    4    4    0    0  0.59212782354E+02  0.29152854001E+03 -0.23396063199E+03  0.38938712384E+03  0.91595369164E+02 0.  0.
         23    2    4    4    0    0  0.39289768481E+02 -0.49444170328E+03  0.23122673228E+03  0.55508332572E+03  0.92926922477E+02 0.  0.
          3    1    3    3  502    0  0.58099019583E+01  0.10343051137E+02  0.97508489990E+02  0.98227487434E+02  0.00000000000E+00 0. -1.
         -4    1    3    3    0  502 -0.10431245279E+03  0.19257011213E+03  0.59517285178E+03  0.63418850462E+03  0.00000000000E+00 0.  1.
         11    1    5    5    0    0  0.13824332837E+02  0.15874489500E+01  0.24362345605E+00  0.13917310262E+02  0.00000000000E+00 0.  1.
        -11    1    5    5    0    0  0.45388449517E+02  0.28994109106E+03 -0.23420425545E+03  0.37546981358E+03  0.00000000000E+00 0. -1.
          1    1    6    6  503    0 -0.12635900171E+02 -0.26543457996E+03  0.87505730252E+02  0.27977211269E+03  0.00000000000E+00 0. -1.
         -1    1    6    6    0  503  0.51925668651E+02 -0.22900712332E+03  0.14372100202E+03  0.27531121302E+03  0.00000000000E+00 0.  1.
<mgrwt>
<rscale>  0 0.15283719E+04</rscale>
<asrwt>0</asrwt>
<pdfrwt beam="1">  1        1 0.75918385E-01 0.15283719E+04</pdfrwt>
<pdfrwt beam="2">  1       -2 0.18206414E+00 0.15283719E+04</pdfrwt>
<totfact> 0.66789091E+00</totfact>
</mgrwt>
</event>
<event>
12    4  0.4207946E-008  0.1603403E+04  0.7818608E-02  0.8818460E-01
         -2   -1    0    0    0  501 -0.00000000000E+00  0.00000000000E+00  0.29128467472E+03  0.29128467472E+03  0.00000000000E+00 0.  1.
          1   -1    0    0  501    0  0.00000000000E+00 -0.00000000000E+00 -0.22065185671E+04  0.22065185671E+04  0.00000000000E+00 0. -1.
        -24    2    1    2    0    0  0.49395086712E+02  0.30949784385E+03 -0.13471613816E+04  0.13848658847E+04  0.69144346134E+02 0.  0.
        254    2    1    2    0    0 -0.49395086712E+02 -0.30949784385E+03 -0.56807251079E+03  0.11129373571E+04  0.90426455942E+03 0.  0.
         23    2    4    4    0    0  0.32015483983E+03 -0.43691956898E+03 -0.25863412912E+03  0.60700310332E+03  0.90351112160E+02 0.  0.
         23    2    4    4    0    0 -0.36954992654E+03  0.12742172513E+03 -0.30943838167E+03  0.50593425380E+03  0.86104081635E+02 0.  0.
          3    1    3    3  502    0  0.47400535397E+02  0.31160213679E+03 -0.13444324738E+04  0.13808842743E+04  0.00000000000E+00 0. -1.
         -4    1    3    3    0  502  0.19945513152E+01 -0.21042929375E+01 -0.27289078464E+01  0.39816104468E+01  0.00000000000E+00 0.  1.
         11    1    5    5    0    0  0.13516536779E+03 -0.11666094360E+03 -0.99201744206E+02  0.20425581624E+03  0.00000000000E+00 0.  1.
        -11    1    5    5    0    0  0.18498947204E+03 -0.32025862538E+03 -0.15943238492E+03  0.40274728709E+03  0.00000000000E+00 0. -1.
          2    1    6    6  503    0 -0.15905623557E+03  0.86940244078E+02 -0.18041247223E+03  0.25574626537E+03  0.00000000000E+00 0.  1.
         -2    1    6    6    0  503 -0.21049369097E+03  0.40481481054E+02 -0.12902590943E+03  0.25018798843E+03  0.00000000000E+00 0. -1.
<mgrwt>
<rscale>  0 0.16034027E+04</rscale>
<asrwt>0</asrwt>
<pdfrwt beam="1">  1        1 0.33946439E+00 0.16034027E+04</pdfrwt>
<pdfrwt beam="2">  1       -2 0.44813028E-01 0.16034027E+04</pdfrwt>
<totfact> 0.85848194E+00</totfact>
</mgrwt>
</event>
<event>
12    4  0.4207946E-008  0.1986451E+04  0.7818608E-02  0.8612982E-01
          1   -1    0    0  501    0  0.00000000000E+00  0.00000000000E+00  0.73787209512E+03  0.73787209512E+03  0.00000000000E+00 0. -1.
         -2   -1    0    0    0  501 -0.00000000000E+00 -0.00000000000E+00 -0.13369484901E+04  0.13369484901E+04  0.00000000000E+00 0.  1.
        -24    2    1    2    0    0 -0.43146468753E+02 -0.60112983029E+03  0.30083692605E+03  0.67843848761E+03  0.80976754462E+02 0.  0.
        254    2    1    2    0    0  0.43146468753E+02  0.60112983029E+03 -0.89991332103E+03  0.13963820976E+04  0.88137409000E+03 0.  0.
         23    2    4    4    0    0 -0.64073872061E+02  0.41222157677E+03  0.39397621387E+02  0.42788378034E+03  0.86604084606E+02 0.  0.
         23    2    4    4    0    0  0.10722034081E+03  0.18890825352E+03 -0.93931094242E+03  0.96849831727E+03  0.92203114226E+02 0.  0.
          1    1    3    3  502    0 -0.23966246246E+02 -0.19643172834E+03  0.58555540751E+02  0.20636994988E+03  0.00000000000E+00 0. -1.
         -2    1    3    3    0  502 -0.19180222507E+02 -0.40469810195E+03  0.24228138530E+03  0.47206853774E+03  0.00000000000E+00 0.  1.
         11    1    5    5    0    0 -0.68800597236E+02  0.40580336218E+03  0.26151466726E+02  0.41242428414E+03  0.00000000000E+00 0.  1.
        -11    1    5    5    0    0  0.47267251743E+01  0.64182145894E+01  0.13246154661E+02  0.15459496198E+02  0.00000000000E+00 0. -1.
          3    1    6    6  503    0  0.46393240091E+02  0.11570431762E+02 -0.16286327668E+03  0.16973701573E+03  0.00000000000E+00 0. -1.
         -3    1    6    6    0  503  0.60827100723E+02  0.17733782176E+03 -0.77644766574E+03  0.79876130154E+03  0.00000000000E+00 0.  1.
<mgrwt>
<rscale>  0 0.19864511E+04</rscale>
<asrwt>0</asrwt>
<pdfrwt beam="1">  1        1 0.11351878E+00 0.19864511E+04</pdfrwt>
<pdfrwt beam="2">  1       -2 0.20568438E+00 0.19864511E+04</pdfrwt>
<totfact> 0.24943974E+00</totfact>
</mgrwt>
</event>
<event>
12    4  0.4207946E-008  0.1492418E+04  0.7818608E-02  0.8889510E-01
          1   -1    0    0  501    0  0.00000000000E+00  0.00000000000E+00  0.51458946090E+03  0.51458946090E+03  0.00000000000E+00 0. -1.
         -2   -1    0    0    0  501 -0.00000000000E+00 -0.00000000000E+00 -0.10820821482E+04  0.10820821482E+04  0.00000000000E+00 0.  1.
        -24    2    1    2    0    0 -0.25809547275E+03  0.34913597330E+03 -0.40452964960E+03  0.59857725281E+03  0.78366378441E+02 0.  0.
        254    2    1    2    0    0  0.25809547275E+03 -0.34913597330E+03 -0.16296303774E+03  0.99809435633E+03  0.88381343708E+03 0.  0.
         23    2    4    4    0    0 -0.17840730831E+03  0.69129821800E+02  0.19490141581E+03  0.28847802445E+03  0.92870387011E+02 0.  0.
         23    2    4    4    0    0  0.43650278106E+03 -0.41826579510E+03 -0.35786445355E+03  0.70961633188E+03  0.10003708377E+03 0.  0.
          1    1    3    3  502    0 -0.89525896832E+02  0.99877319184E+02 -0.17299650618E+03  0.21890216135E+03  0.00000000000E+00 0. -1.
         -2    1    3    3    0  502 -0.16856957592E+03  0.24925865411E+03 -0.23153314342E+03  0.37967509146E+03  0.00000000000E+00 0.  1.
         11    1    5    5    0    0 -0.10840778579E+03  0.88258833398E+02  0.12067868146E+03  0.18467596988E+03  0.00000000000E+00 0. -1.
        -11    1    5    5    0    0 -0.69999522519E+02 -0.19129011598E+02  0.74222734352E+02  0.10380205457E+03  0.00000000000E+00 0.  1.
          3    1    6    6  503    0  0.23682597171E+03 -0.25439058454E+03 -0.15219825474E+03  0.37942775219E+03  0.00000000000E+00 0. -1.
         -3    1    6    6    0  503  0.19967680935E+03 -0.16387521055E+03 -0.20566619881E+03  0.33018857969E+03  0.00000000000E+00 0.  1.
<mgrwt>
<rscale>  0 0.14924183E+04</rscale>
<asrwt>0</asrwt>
<pdfrwt beam="1">  1        1 0.79167610E-01 0.14924183E+04</pdfrwt>
<pdfrwt beam="2">  1       -2 0.16647417E+00 0.14924183E+04</pdfrwt>
<totfact> 0.81374473E+00</totfact>
</mgrwt>
</event>
<event>
12    4  0.4207946E-008  0.1447469E+04  0.7818608E-02  0.8920157E-01
          1   -1    0    0  501    0  0.00000000000E+00  0.00000000000E+00  0.89384433947E+03  0.89384433947E+03  0.00000000000E+00 0. -1.
         -2   -1    0    0    0  501 -0.00000000000E+00 -0.00000000000E+00 -0.58599874494E+03  0.58599874494E+03  0.00000000000E+00 0.  1.
        -24    2    1    2    0    0  0.40447181833E+03 -0.64411872389E+02  0.25627803401E+03  0.48972182455E+03  0.80016833150E+02 0.  0.
        254    2    1    2    0    0 -0.40447181833E+03  0.64411872389E+02  0.51567560515E+02  0.99012125987E+03  0.89996364083E+03 0.  0.
         23    2    4    4    0    0 -0.94768217583E+02  0.26934011207E+03 -0.33161163483E+03  0.44870185832E+03  0.99206704808E+02 0.  0.
         23    2    4    4    0    0 -0.30970360075E+03 -0.20492823968E+03  0.38317919534E+03  0.54141940154E+03  0.91633885042E+02 0.  0.
          3    1    3    3  502    0  0.32206975055E+03 -0.29074538059E+02  0.22812396117E+03  0.39574587129E+03  0.00000000000E+00 0. -1.
         -4    1    3    3    0  502  0.82402067784E+02 -0.35337334330E+02  0.28154072842E+02  0.93975953255E+02  0.00000000000E+00 0.  1.
         11    1    5    5    0    0 -0.36576365927E+02  0.16655681209E+02 -0.25805377154E+02  0.47761488158E+02  0.00000000000E+00 0. -1.
        -11    1    5    5    0    0 -0.58191851656E+02  0.25268443086E+03 -0.30580625767E+03  0.40094037017E+03  0.00000000000E+00 0.  1.
          2    1    6    6  503    0 -0.33523410088E+02 -0.57927956814E+02  0.93909958887E+02  0.11531932875E+03  0.00000000000E+00 0. -1.
         -2    1    6    6    0  503 -0.27618019066E+03 -0.14700028286E+03  0.28926923645E+03  0.42610007279E+03  0.00000000000E+00 0.  1.
<mgrwt>
<rscale>  0 0.14474690E+04</rscale>
<asrwt>0</asrwt>
<pdfrwt beam="1">  1        1 0.13751451E+00 0.14474690E+04</pdfrwt>
<pdfrwt beam="2">  1       -2 0.90153653E-01 0.14474690E+04</pdfrwt>
<totfact> 0.16499411E+01</totfact>
</mgrwt>
</event>
<event>
12    4  0.4207946E-008  0.1883802E+04  0.7818608E-02  0.8662962E-01
          1   -1    0    0  501    0  0.00000000000E+00  0.00000000000E+00  0.13960986142E+04  0.13960986142E+04  0.00000000000E+00 0. -1.
         -2   -1    0    0    0  501 -0.00000000000E+00 -0.00000000000E+00 -0.63546885046E+03  0.63546885046E+03  0.00000000000E+00 0.  1.
        -24    2    1    2    0    0  0.82962398735E+02 -0.11420731569E+03 -0.47248080846E+03  0.50079048392E+03  0.87332261250E+02 0.  0.
        254    2    1    2    0    0 -0.82962398735E+02  0.11420731569E+03  0.12331105722E+04  0.15307769808E+04  0.89598572029E+03 0.  0.
         23    2    4    4    0    0  0.85604375846E+02 -0.26570814936E+03  0.10051794405E+04  0.10473239777E+04  0.92589830277E+02 0.  0.
         23    2    4    4    0    0 -0.16856677458E+03  0.37991546505E+03  0.22793113170E+03  0.48345300314E+03  0.94993091160E+02 0.  0.
          1    1    3    3  502    0  0.17191579415E+02  0.10092723707E+02 -0.26486246996E+02  0.33150184834E+02  0.00000000000E+00 0. -1.
         -2    1    3    3    0  502  0.65770819320E+02 -0.12430003940E+03 -0.44599456146E+03  0.46764029908E+03  0.00000000000E+00 0.  1.
         11    1    5    5    0    0 -0.52805775112E+01 -0.58083652264E+02  0.11765373130E+03  0.13131639520E+03  0.00000000000E+00 0. -1.
        -11    1    5    5    0    0  0.90884953357E+02 -0.20762449709E+03  0.88752570925E+03  0.91600758245E+03  0.00000000000E+00 0.  1.
          1    1    6    6  503    0 -0.44714186362E+02  0.12414899466E+03  0.12338916672E+03  0.18065773662E+03  0.00000000000E+00 0. -1.
         -1    1    6    6    0  503 -0.12385258822E+03  0.25576647039E+03  0.10454196499E+03  0.30279526652E+03  0.00000000000E+00 0.  1.
<mgrwt>
<rscale>  0 0.18838017E+04</rscale>
<asrwt>0</asrwt>
<pdfrwt beam="1">  1        1 0.21478440E+00 0.18838017E+04</pdfrwt>
<pdfrwt beam="2">  1       -2 0.97764439E-01 0.18838017E+04</pdfrwt>
<totfact> 0.55385612E+00</totfact>
</mgrwt>
</event>
<event>
12    4  0.4207946E-008  0.1279020E+04  0.7818608E-02  0.9046370E-01
          1   -1    0    0  501    0  0.00000000000E+00  0.00000000000E+00  0.57612070326E+03  0.57612070326E+03  0.00000000000E+00 0. -1.
         -2   -1    0    0    0  501 -0.00000000000E+00 -0.00000000000E+00 -0.70987381149E+03  0.70987381149E+03  0.00000000000E+00 0.  1.
        -24    2    1    2    0    0 -0.13440320107E+03  0.51766386631E+02 -0.32208081950E+03  0.36169352649E+03  0.79637764737E+02 0.  0.
        254    2    1    2    0    0  0.13440320107E+03 -0.51766386631E+02  0.18832771128E+03  0.92430098825E+03  0.89337618661E+03 0.  0.
         23    2    4    4    0    0  0.54851288485E+02 -0.34507696191E+03 -0.20826696101E+03  0.41675570568E+03  0.90683061722E+02 0.  0.
         23    2    4    4    0    0  0.79551912586E+02  0.29331057528E+03  0.39659467229E+03  0.50754528257E+03  0.89192373052E+02 0.  0.
          1    1    3    3  502    0 -0.81101874396E+02 -0.11263197244E+02 -0.15259462755E+03  0.17317474989E+03  0.00000000000E+00 0. -1.
         -2    1    3    3    0  502 -0.53301326675E+02  0.63029583875E+02 -0.16948619195E+03  0.18851877660E+03  0.00000000000E+00 0.  1.
         11    1    5    5    0    0 -0.23553814300E+02 -0.12644157535E+03 -0.69554023302E+02  0.14621906956E+03  0.00000000000E+00 0.  1.
        -11    1    5    5    0    0  0.78405102785E+02 -0.21863538655E+03 -0.13871293770E+03  0.27053663612E+03  0.00000000000E+00 0. -1.
          2    1    6    6  503    0  0.77218067751E+02  0.28101607544E+03  0.39968799103E+03  0.49465458132E+03  0.00000000000E+00 0. -1.
         -2    1    6    6    0  503  0.23338448344E+01  0.12294499839E+02 -0.30933187465E+01  0.12890701256E+02  0.00000000000E+00 0.  1.
<mgrwt>
<rscale>  0 0.12790199E+04</rscale>
<asrwt>0</asrwt>
<pdfrwt beam="1">  1        1 0.88633955E-01 0.12790199E+04</pdfrwt>
<pdfrwt beam="2">  1       -2 0.10921136E+00 0.12790199E+04</pdfrwt>
<totfact> 0.20901893E+01</totfact>
</mgrwt>
</event>
<event>
12    4  0.4207946E-008  0.1888266E+04  0.7818608E-02  0.8660719E-01
         -2   -1    0    0    0  501 -0.00000000000E+00  0.00000000000E+00  0.62324843456E+03  0.62324843456E+03  0.00000000000E+00 0.  1.
          1   -1    0    0  501    0  0.00000000000E+00 -0.00000000000E+00 -0.14302281096E+04  0.14302281096E+04  0.00000000000E+00 0. -1.
        -24    2    1    2    0    0 -0.70884579135E+03  0.60468163621E+02 -0.35912992886E+03  0.80090987311E+03  0.79771951961E+02 0.  0.
        254    2    1    2    0    0  0.70884579135E+03 -0.60468163621E+02 -0.44784974618E+03  0.12525666710E+04  0.92856616109E+03 0.  0.
         23    2    4    4    0    0  0.71865166778E+03  0.36328739008E+01  0.65607641609E+02  0.72703913630E+03  0.88363599446E+02 0.  0.
         23    2    4    4    0    0 -0.98058764216E+01 -0.64101037522E+02 -0.51345738779E+03  0.52552753474E+03  0.91299520654E+02 0.  0.
          1    1    3    3  502    0 -0.10061866152E+03 -0.14148770832E+02 -0.33573982849E+02  0.10701175209E+03  0.00000000000E+00 0. -1.
         -2    1    3    3    0  502 -0.60822712984E+03  0.74616934453E+02 -0.32555594601E+03  0.69389812102E+03  0.00000000000E+00 0.  1.
         11    1    5    5    0    0  0.13293860796E+03  0.31902880359E+02  0.27162447316E+02  0.13938531417E+03  0.00000000000E+00 0. -1.
        -11    1    5    5    0    0  0.58571305982E+03 -0.28270006458E+02  0.38445194292E+02  0.58765382213E+03  0.00000000000E+00 0.  1.
          2    1    6    6  503    0  0.18767815376E+02 -0.76784860938E+02 -0.32364971368E+03  0.33316254731E+03  0.00000000000E+00 0. -1.
         -2    1    6    6    0  503 -0.28573691798E+02  0.12683823417E+02 -0.18980767411E+03  0.19236498743E+03  0.00000000000E+00 0.  1.
<mgrwt>
<rscale>  0 0.18882663E+04</rscale>
<asrwt>0</asrwt>
<pdfrwt beam="1">  1        1 0.22003509E+00 0.18882663E+04</pdfrwt>
<pdfrwt beam="2">  1       -2 0.95884376E-01 0.18882663E+04</pdfrwt>
<totfact> 0.54842578E+00</totfact>
</mgrwt>
</event>
<event>
12    4  0.4207946E-008  0.2148455E+04  0.7818608E-02  0.8540194E-01
         -2   -1    0    0    0  501 -0.00000000000E+00  0.00000000000E+00  0.16985479437E+04  0.16985479437E+04  0.00000000000E+00 0.  1.
          1   -1    0    0  501    0  0.00000000000E+00 -0.00000000000E+00 -0.67938278914E+03  0.67938278914E+03  0.00000000000E+00 0. -1.
        -24    2    1    2    0    0 -0.63509978242E+03 -0.56162031529E+03  0.15167132020E+03  0.86494914011E+03  0.79772886538E+02 0.  0.
        254    2    1    2    0    0  0.63509978242E+03  0.56162031529E+03  0.86749383437E+03  0.15129815927E+04  0.90432219652E+03 0.  0.
         23    2    4    4    0    0  0.84239140453E+03  0.45776199443E+03  0.55077012832E+03  0.11097259136E+04  0.94734085989E+02 0.  0.
         23    2    4    4    0    0 -0.20729162211E+03  0.10385832086E+03  0.31672370605E+03  0.40325567916E+03  0.92438462736E+02 0.  0.
          3    1    3    3  502    0 -0.46026952285E+03 -0.37147422429E+03  0.79802393118E+02  0.59683293720E+03  0.00000000000E+00 0. -1.
         -4    1    3    3    0  502 -0.17483025958E+03 -0.19014609100E+03  0.71868927082E+02  0.26811620291E+03  0.00000000000E+00 0.  1.
         11    1    5    5    0    0  0.36524268301E+03  0.20470063197E+03  0.18708840215E+03  0.45859201524E+03  0.00000000000E+00 0. -1.
        -11    1    5    5    0    0  0.47714872152E+03  0.25306136246E+03  0.36368172617E+03  0.65113389834E+03  0.00000000000E+00 0.  1.
          4    1    6    6  503    0 -0.60672592927E+01  0.33262075213E+02  0.65628994519E+02  0.73826432965E+02  0.00000000000E+00 0. -1.
         -4    1    6    6    0  503 -0.20122436281E+03  0.70596245644E+02  0.25109471153E+03  0.32942924619E+03  0.00000000000E+00 0.  1.
<mgrwt>
<rscale>  0 0.21484546E+04</rscale>
<asrwt>0</asrwt>
<pdfrwt beam="1">  1        1 0.10452043E+00 0.21484546E+04</pdfrwt>
<pdfrwt beam="2">  1       -2 0.26131507E+00 0.21484546E+04</pdfrwt>
<totfact> 0.12526356E+00</totfact>
</mgrwt>
</event>
<event>
12    4  0.4207946E-008  0.1310629E+04  0.7818608E-02  0.9021178E-01
          1   -1    0    0  501    0  0.00000000000E+00  0.00000000000E+00  0.41235213936E+03  0.41235213936E+03  0.00000000000E+00 0. -1.
         -2   -1    0    0    0  501 -0.00000000000E+00 -0.00000000000E+00 -0.10414330342E+04  0.10414330342E+04  0.00000000000E+00 0.  1.
        -24    2    1    2    0    0  0.95077206437E+02  0.24277742318E+03 -0.40829733736E+03  0.48937759809E+03  0.69304872979E+02 0.  0.
        254    2    1    2    0    0 -0.95077206437E+02 -0.24277742318E+03 -0.22078355746E+03  0.96440757546E+03  0.90186253940E+03 0.  0.
         23    2    4    4    0    0 -0.12210572119E+03  0.19103918711E+03  0.22712427928E+03  0.33372956665E+03  0.91565316888E+02 0.  0.
         23    2    4    4    0    0  0.27028514751E+02 -0.43381661029E+03 -0.44790783674E+03  0.63067800881E+03  0.90586580756E+02 0.  0.
          1    1    3    3  502    0  0.15921182407E+02  0.13342395275E+03 -0.19005582197E+03  0.23275878218E+03  0.00000000000E+00 0. -1.
         -2    1    3    3    0  502  0.79156024030E+02  0.10935347043E+03 -0.21824151539E+03  0.25661881590E+03  0.00000000000E+00 0.  1.
         11    1    5    5    0    0 -0.62607784184E+02  0.15858704267E+03  0.19406664189E+03  0.25832430439E+03  0.00000000000E+00 0. -1.
        -11    1    5    5    0    0 -0.59497937004E+02  0.32452144434E+02  0.33057637397E+02  0.75405262259E+02  0.00000000000E+00 0.  1.
          3    1    6    6  503    0  0.40606916857E+02 -0.14822916805E+03 -0.11566473584E+03  0.19235160273E+03  0.00000000000E+00 0. -1.
         -3    1    6    6    0  503 -0.13578402106E+02 -0.28558744224E+03 -0.33224310091E+03  0.43832640608E+03  0.00000000000E+00 0.  1.
<mgrwt>
<rscale>  0 0.13106291E+04</rscale>
<asrwt>0</asrwt>
<pdfrwt beam="1">  1        1 0.63438792E-01 0.13106291E+04</pdfrwt>
<pdfrwt beam="2">  1       -2 0.16022046E+00 0.13106291E+04</pdfrwt>
<totfact> 0.12388535E+01</totfact>
</mgrwt>
</event>
<event>
12    4  0.4207946E-008  0.1113020E+04  0.7818608E-02  0.9192594E-01
         -4   -1    0    0    0  501 -0.00000000000E+00  0.00000000000E+00  0.17759626687E+03  0.17759626687E+03  0.00000000000E+00 0.  1.
          1   -1    0    0  501    0  0.00000000000E+00 -0.00000000000E+00 -0.17438625896E+04  0.17438625896E+04  0.00000000000E+00 0. -1.
        -24    2    1    2    0    0 -0.14388008978E+03  0.10609084142E+03 -0.10418078571E+03  0.22234765543E+03  0.81413124844E+02 0.  0.
        254    2    1    2    0    0  0.14388008978E+03 -0.10609084142E+03 -0.14620855370E+04  0.16991112010E+04  0.84695218817E+03 0.  0.
         23    2    4    4    0    0  0.27652650425E+02  0.46598794121E+02 -0.14805927743E+04  0.14848393087E+04  0.98268472559E+02 0.  0.
         23    2    4    4    0    0  0.11622743935E+03 -0.15268963555E+03  0.18507237310E+02  0.21427189230E+03  0.93525309595E+02 0.  0.
          3    1    3    3  502    0 -0.49278102335E+02 -0.19082050630E+01 -0.45983815987E+02  0.67427620076E+02  0.00000000000E+00 0. -1.
         -4    1    3    3    0  502 -0.94601987441E+02  0.10799904649E+03 -0.58196969722E+02  0.15492003536E+03  0.00000000000E+00 0.  1.
         11    1    5    5    0    0  0.24589603375E+02 -0.53389886495E+01 -0.11415921942E+04  0.11418694721E+04  0.00000000000E+00 0.  1.
        -11    1    5    5    0    0  0.30630470500E+01  0.51937782771E+02 -0.33900058010E+03  0.34296983664E+03  0.00000000000E+00 0. -1.
          2    1    6    6  503    0  0.39556476543E+02 -0.94245265562E+02 -0.29764471533E+02  0.10645566534E+03  0.00000000000E+00 0. -1.
         -2    1    6    6    0  503  0.76670962809E+02 -0.58444369983E+02  0.48271708843E+02  0.10781622696E+03  0.00000000000E+00 0.  1.
<mgrwt>
<rscale>  0 0.11130202E+04</rscale>
<asrwt>0</asrwt>
<pdfrwt beam="1">  1        1 0.26828656E+00 0.11130202E+04</pdfrwt>
<pdfrwt beam="2">  1       -4 0.27322502E-01 0.11130202E+04</pdfrwt>
<totfact> 0.28291159E+01</totfact>
</mgrwt>
</event>
<event>
12    4  0.4207946E-008  0.2821637E+04  0.7818608E-02  0.8296582E-01
         -2   -1    0    0    0  501 -0.00000000000E+00  0.00000000000E+00  0.16580600677E+04  0.16580600677E+04  0.00000000000E+00 0.  1.
          1   -1    0    0  501    0  0.00000000000E+00 -0.00000000000E+00 -0.12004441842E+04  0.12004441842E+04  0.00000000000E+00 0. -1.
        -24    2    1    2    0    0 -0.64937332732E+03  0.81838286082E+03  0.93199795967E+03  0.14022758883E+04  0.79506256627E+02 0.  0.
        254    2    1    2    0    0  0.64937332732E+03 -0.81838286082E+03 -0.47438207619E+03  0.14562283636E+04  0.89673098956E+03 0.  0.
         23    2    4    4    0    0  0.53685016497E+03 -0.99352292340E+03 -0.30592443958E+03  0.11735470874E+04  0.91252970871E+02 0.  0.
         23    2    4    4    0    0  0.11252316234E+03  0.17514006258E+03 -0.16845763661E+03  0.28268127619E+03  0.90527481952E+02 0.  0.
          1    1    3    3  502    0 -0.59651024413E+03  0.74100503817E+03  0.81719497693E+03  0.12540815636E+04  0.00000000000E+00 0. -1.
         -2    1    3    3    0  502 -0.52863083185E+02  0.77377822650E+02  0.11480298274E+03  0.14819432462E+03  0.00000000000E+00 0.  1.
         11    1    5    5    0    0  0.13528703868E+03 -0.22383797122E+03 -0.33591682521E+02  0.26369380222E+03  0.00000000000E+00 0. -1.
        -11    1    5    5    0    0  0.40156312629E+03 -0.76968495218E+03 -0.27233275706E+03  0.90985328519E+03  0.00000000000E+00 0.  1.
          1    1    6    6  503    0  0.76589263226E+02  0.38696613405E+02 -0.59697215972E+02  0.10453277345E+03  0.00000000000E+00 0. -1.
         -1    1    6    6    0  503  0.35933899119E+02  0.13644344918E+03 -0.10876042064E+03  0.17814850273E+03  0.00000000000E+00 0.  1.
<mgrwt>
<rscale>  0 0.28216368E+04</rscale>
<asrwt>0</asrwt>
<pdfrwt beam="1">  1        1 0.18468372E+00 0.28216368E+04</pdfrwt>
<pdfrwt beam="2">  1       -2 0.25508617E+00 0.28216368E+04</pdfrwt>
<totfact> 0.48424340E-01</totfact>
</mgrwt>
</event>
<event>
12    4  0.4207946E-008  0.2002211E+04  0.7818608E-02  0.8605588E-01
         -2   -1    0    0    0  501 -0.00000000000E+00  0.00000000000E+00  0.11016658769E+04  0.11016658769E+04  0.00000000000E+00 0.  1.
          1   -1    0    0  501    0  0.00000000000E+00 -0.00000000000E+00 -0.90972433029E+03  0.90972433029E+03  0.00000000000E+00 0. -1.
        -24    2    1    2    0    0 -0.78644801604E+03 -0.15760439251E+03  0.90609860284E+02  0.81155490187E+03  0.84092719665E+02 0.  0.
        254    2    1    2    0    0  0.78644801604E+03  0.15760439251E+03  0.10133168634E+03  0.11998353053E+04  0.88656473131E+03 0.  0.
         23    2    4    4    0    0  0.54388164085E+03  0.35705001387E+03  0.38955663190E+03  0.76360144990E+03  0.89670804493E+02 0.  0.
         23    2    4    4    0    0  0.24256637519E+03 -0.19944562136E+03 -0.28822494556E+03  0.43623385543E+03  0.92786610728E+02 0.  0.
          3    1    3    3  502    0 -0.69519080089E+03 -0.15534874661E+03  0.58291475022E+02  0.71471769166E+03  0.00000000000E+00 0. -1.
         -4    1    3    3    0  502 -0.91257215151E+02 -0.22556459022E+01  0.32318385261E+02  0.96837210211E+02  0.00000000000E+00 0.  1.
         11    1    5    5    0    0  0.38867852909E+03  0.30109157781E+03  0.28534212435E+03  0.56846043409E+03  0.00000000000E+00 0.  1.
        -11    1    5    5    0    0  0.15520311176E+03  0.55958436060E+02  0.10421450755E+03  0.19514101581E+03  0.00000000000E+00 0. -1.
          3    1    6    6  503    0  0.69908011052E+02 -0.18715145601E+02 -0.99515003299E+02  0.12304723713E+03  0.00000000000E+00 0. -1.
         -3    1    6    6    0  503  0.17265836414E+03 -0.18073047576E+03 -0.18870994226E+03  0.31318661830E+03  0.00000000000E+00 0.  1.
<mgrwt>
<rscale>  0 0.20022110E+04</rscale>
<asrwt>0</asrwt>
<pdfrwt beam="1">  1        1 0.13995759E+00 0.20022110E+04</pdfrwt>
<pdfrwt beam="2">  1       -2 0.16948706E+00 0.20022110E+04</pdfrwt>
<totfact> 0.31205911E+00</totfact>
</mgrwt>
</event>
<event>
12    4  0.4207946E-008  0.1873111E+04  0.7818608E-02  0.8668358E-01
         -2   -1    0    0    0  501 -0.00000000000E+00  0.00000000000E+00  0.47268831232E+03  0.47268831232E+03  0.00000000000E+00 0.  1.
          1   -1    0    0  501    0  0.00000000000E+00 -0.00000000000E+00 -0.18556333850E+04  0.18556333850E+04  0.00000000000E+00 0. -1.
        -24    2    1    2    0    0  0.63096447361E+03 -0.29671785825E+03 -0.32172323431E+03  0.77225184863E+03  0.81911072840E+02 0.  0.
        254    2    1    2    0    0 -0.63096447361E+03  0.29671785825E+03 -0.10612218384E+04  0.15560698487E+04  0.89944645724E+03 0.  0.
         23    2    4    4    0    0 -0.30676004556E+02  0.48969366396E+03 -0.42276422175E+03  0.65410275608E+03  0.91541938724E+02 0.  0.
         23    2    4    4    0    0 -0.60028846905E+03 -0.19297580571E+03 -0.63845761666E+03  0.90196709264E+03  0.91272122093E+02 0.  0.
          1    1    3    3  502    0  0.13765045698E+03 -0.30722330011E+02 -0.52575178798E+02  0.15051797000E+03  0.00000000000E+00 0. -1.
         -2    1    3    3    0  502  0.49331401663E+03 -0.26599552824E+03 -0.26914805551E+03  0.62173387863E+03  0.00000000000E+00 0.  1.
         11    1    5    5    0    0 -0.50895291010E+02  0.45997242609E+03 -0.38527562174E+03  0.60216465200E+03  0.00000000000E+00 0. -1.
        -11    1    5    5    0    0  0.20219286454E+02  0.29721237874E+02 -0.37488600005E+02  0.51938104083E+02  0.00000000000E+00 0.  1.
          4    1    6    6  503    0 -0.34436029627E+03 -0.15569044541E+03 -0.36027926607E+03  0.52213473165E+03  0.00000000000E+00 0. -1.
         -4    1    6    6    0  503 -0.25592817279E+03 -0.37285360297E+02 -0.27817835059E+03  0.37983236099E+03  0.00000000000E+00 0.  1.
<mgrwt>
<rscale>  0 0.18731110E+04</rscale>
<asrwt>0</asrwt>
<pdfrwt beam="1">  1        1 0.28548206E+00 0.18731110E+04</pdfrwt>
<pdfrwt beam="2">  1       -2 0.72721278E-01 0.18731110E+04</pdfrwt>
<totfact> 0.52563928E+00</totfact>
</mgrwt>
</event>
<event>
12    4  0.4207946E-008  0.1768357E+04  0.7818608E-02  0.8723310E-01
          1   -1    0    0  501    0  0.00000000000E+00  0.00000000000E+00  0.14830240011E+04  0.14830240011E+04  0.00000000000E+00 0. -1.
         -2   -1    0    0    0  501 -0.00000000000E+00 -0.00000000000E+00 -0.52714680191E+03  0.52714680191E+03  0.00000000000E+00 0.  1.
        -24    2    1    2    0    0 -0.52252793558E+03 -0.14756014889E+02  0.79174174415E+03  0.95244086302E+03  0.83877438393E+02 0.  0.
        254    2    1    2    0    0  0.52252793558E+03  0.14756014889E+02  0.16413545502E+03  0.10577299400E+04  0.90476460745E+03 0.  0.
         23    2    4    4    0    0  0.65066562054E+03  0.30807266826E+02 -0.17703802207E+03  0.68146416446E+03  0.93467153330E+02 0.  0.
         23    2    4    4    0    0 -0.12813768495E+03 -0.16051251937E+02  0.34117347709E+03  0.37626577551E+03  0.92193727329E+02 0.  0.
          1    1    3    3  502    0 -0.48893955030E+03  0.58472533450E+01  0.74715937488E+03  0.89294076270E+03  0.00000000000E+00 0. -1.
         -2    1    3    3    0  502 -0.33588385281E+02 -0.20603268234E+02  0.44582369269E+02  0.59500100314E+02  0.00000000000E+00 0.  1.
         11    1    5    5    0    0  0.50517723662E+03  0.22496209428E+02 -0.17693409937E+03  0.53573855130E+03  0.00000000000E+00 0. -1.
        -11    1    5    5    0    0  0.14548838392E+03  0.83110573976E+01 -0.10392270225E+00  0.14572561316E+03  0.00000000000E+00 0.  1.
          4    1    6    6  503    0 -0.90121595991E+02 -0.18891889332E+02  0.11707309026E+03  0.14894601038E+03  0.00000000000E+00 0. -1.
         -4    1    6    6    0  503 -0.38016088963E+02  0.28406373951E+01  0.22410038683E+03  0.22731976513E+03  0.00000000000E+00 0.  1.
<mgrwt>
<rscale>  0 0.17683567E+04</rscale>
<asrwt>0</asrwt>
<pdfrwt beam="1">  1        1 0.22815754E+00 0.17683567E+04</pdfrwt>
<pdfrwt beam="2">  1       -2 0.81099508E-01 0.17683567E+04</pdfrwt>
<totfact> 0.74806351E+00</totfact>
</mgrwt>
</event>
<event>
12    4  0.4207946E-008  0.2177886E+04  0.7818608E-02  0.8527689E-01
         -2   -1    0    0    0  501 -0.00000000000E+00  0.00000000000E+00  0.12361002926E+04  0.12361002926E+04  0.00000000000E+00 0.  1.
          1   -1    0    0  501    0  0.00000000000E+00 -0.00000000000E+00 -0.95930500097E+03  0.95930500097E+03  0.00000000000E+00 0. -1.
        -24    2    1    2    0    0  0.47392363485E+03  0.84116670568E+02 -0.65344927600E+03  0.81546945076E+03  0.79468502474E+02 0.  0.
        254    2    1    2    0    0 -0.47392363485E+03 -0.84116670568E+02  0.93024456760E+03  0.13799358428E+04  0.89843683623E+03 0.  0.
         23    2    4    4    0    0 -0.62268010384E+02 -0.77296344809E+01 -0.16674984536E+03  0.20217989952E+03  0.95572739176E+02 0.  0.
         23    2    4    4    0    0 -0.41165562447E+03 -0.76387036087E+02  0.10969944130E+04  0.11777559433E+04  0.91744140838E+02 0.  0.
          3    1    3    3  502    0  0.39863383122E+03  0.86461212854E+02 -0.50640457415E+03  0.65025384693E+03  0.00000000000E+00 0. -1.
         -4    1    3    3    0  502  0.75289803628E+02 -0.23445422866E+01 -0.14704470185E+03  0.16521560383E+03  0.00000000000E+00 0.  1.
         11    1    5    5    0    0  0.13391516760E+01 -0.32044998125E+02 -0.14110708390E+02  0.35039796279E+02  0.00000000000E+00 0.  1.
        -11    1    5    5    0    0 -0.63607162060E+02  0.24315363644E+02 -0.15263913697E+03  0.16714010324E+03  0.00000000000E+00 0. -1.
          3    1    6    6  503    0 -0.34681696423E+03 -0.30262478557E+02  0.86153749403E+03  0.92921723935E+03  0.00000000000E+00 0. -1.
         -3    1    6    6    0  503 -0.64838660240E+02 -0.46124557530E+02  0.23545691893E+03  0.24853870391E+03  0.00000000000E+00 0.  1.
<mgrwt>
<rscale>  0 0.21778863E+04</rscale>
<asrwt>0</asrwt>
<pdfrwt beam="1">  1        1 0.14758539E+00 0.21778863E+04</pdfrwt>
<pdfrwt beam="2">  1       -2 0.19016928E+00 0.21778863E+04</pdfrwt>
<totfact> 0.20168012E+00</totfact>
</mgrwt>
</event>
<event>
12    4  0.4207946E-008  0.2305736E+04  0.7818608E-02  0.8475663E-01
         -2   -1    0    0    0  501 -0.00000000000E+00  0.00000000000E+00  0.31871244458E+03  0.31871244458E+03  0.00000000000E+00 0.  1.
          1   -1    0    0  501    0  0.00000000000E+00 -0.00000000000E+00 -0.41702330263E+04  0.41702330263E+04  0.00000000000E+00 0. -1.
        -24    2    1    2    0    0  0.28300696708E+03 -0.91804112510E+03 -0.18712430961E+04  0.21049951267E+04  0.81001899299E+02 0.  0.
        254    2    1    2    0    0 -0.28300696708E+03  0.91804112510E+03 -0.19802774856E+04  0.23839503442E+04  0.91587546806E+03 0.  0.
         23    2    4    4    0    0 -0.24997310295E+03 -0.26224062539E+02 -0.93324494112E+03  0.97076276296E+03  0.90884367120E+02 0.  0.
         23    2    4    4    0    0 -0.33033864131E+02  0.94426518764E+03 -0.10470325445E+04  0.14131875813E+04  0.89966715313E+02 0.  0.
          1    1    3    3  502    0  0.26227596735E+03 -0.89656965702E+03 -0.18181581821E+04  0.20440951563E+04  0.00000000000E+00 0. -1.
         -2    1    3    3    0  502  0.20730999724E+02 -0.21471468082E+02 -0.53084913990E+02  0.60899970316E+02  0.00000000000E+00 0.  1.
         11    1    5    5    0    0 -0.17025699886E+03  0.40237890611E+01 -0.74328111393E+03  0.76254209776E+03  0.00000000000E+00 0.  1.
        -11    1    5    5    0    0 -0.79716104082E+02 -0.30247851600E+02 -0.18996382719E+03  0.20822066520E+03  0.00000000000E+00 0. -1.
          2    1    6    6  503    0 -0.30994264534E+01  0.16996412847E+02 -0.41979033806E+02  0.45395195487E+02  0.00000000000E+00 0. -1.
         -2    1    6    6    0  503 -0.29934437677E+02  0.92726877479E+03 -0.10050535107E+04  0.13677923858E+04  0.00000000000E+00 0.  1.
<mgrwt>
<rscale>  0 0.23057365E+04</rscale>
<asrwt>0</asrwt>
<pdfrwt beam="1">  1        1 0.64157425E+00 0.23057365E+04</pdfrwt>
<pdfrwt beam="2">  1       -2 0.49032688E-01 0.23057365E+04</pdfrwt>
<totfact> 0.21191721E-01</totfact>
</mgrwt>
</event>
<event>
12    4  0.4207946E-008  0.1392532E+04  0.7818608E-02  0.8959242E-01
          1   -1    0    0  501    0  0.00000000000E+00  0.00000000000E+00  0.16424009047E+04  0.16424009047E+04  0.00000000000E+00 0. -1.
         -2   -1    0    0    0  501 -0.00000000000E+00 -0.00000000000E+00 -0.29516919641E+03  0.29516919641E+03  0.00000000000E+00 0.  1.
        -24    2    1    2    0    0  0.44695645669E+02 -0.61410315789E+02 -0.15131219329E+03  0.18717834223E+03  0.79821202286E+02 0.  0.
        254    2    1    2    0    0 -0.44695645669E+02  0.61410315789E+02  0.14985439016E+04  0.17503917589E+04  0.90137037722E+03 0.  0.
         23    2    4    4    0    0  0.14907702082E+02  0.46523346879E+03  0.93882998472E+03  0.10516983582E+04  0.89461032753E+02 0.  0.
         23    2    4    4    0    0 -0.59603347751E+02 -0.40382315301E+03  0.55971391689E+03  0.69869340069E+03  0.90923602198E+02 0.  0.
          1    1    3    3  502    0 -0.52344052958E+01 -0.32277255978E+02 -0.95225116576E+01  0.34057282342E+02  0.00000000000E+00 0. -1.
         -2    1    3    3    0  502  0.49930050965E+02 -0.29133059811E+02 -0.14178968164E+03  0.15312105989E+03  0.00000000000E+00 0.  1.
         11    1    5    5    0    0 -0.14678976512E+02  0.41782107293E+03  0.82454888681E+03  0.92448406588E+03  0.00000000000E+00 0.  1.
        -11    1    5    5    0    0  0.29586678594E+02  0.47412395865E+02  0.11428109792E+03  0.12721429233E+03  0.00000000000E+00 0. -1.
          2    1    6    6  503    0 -0.74394139877E+02 -0.38653836718E+03  0.51192431760E+03  0.64576536319E+03  0.00000000000E+00 0. -1.
         -2    1    6    6    0  503  0.14790792126E+02 -0.17284785830E+02  0.47789599290E+02  0.52928037496E+02  0.00000000000E+00 0.  1.
<mgrwt>
<rscale>  0 0.13925317E+04</rscale>
<asrwt>0</asrwt>
<pdfrwt beam="1">  1        1 0.25267706E+00 0.13925317E+04</pdfrwt>
<pdfrwt beam="2">  1       -2 0.45410647E-01 0.13925317E+04</pdfrwt>
<totfact> 0.20549619E+01</totfact>
</mgrwt>
</event>
<event>
12    4  0.4207946E-008  0.1287634E+04  0.7818608E-02  0.9039429E-01
          1   -1    0    0  501    0  0.00000000000E+00  0.00000000000E+00  0.26533588909E+03  0.26533588909E+03  0.00000000000E+00 0. -1.
         -2   -1    0    0    0  501 -0.00000000000E+00 -0.00000000000E+00 -0.15621731871E+04  0.15621731871E+04  0.00000000000E+00 0.  1.
        -24    2    1    2    0    0 -0.17827897055E+03  0.10699504097E+03  0.12977474186E+02  0.22355798185E+03  0.81107498298E+02 0.  0.
        254    2    1    2    0    0  0.17827897055E+03 -0.10699504097E+03 -0.13098147722E+04  0.16039510943E+04  0.90211587139E+03 0.  0.
         23    2    4    4    0    0  0.11815810432E+03  0.37558379587E+03 -0.40034414998E+03  0.56866002270E+03  0.89856873154E+02 0.  0.
         23    2    4    4    0    0  0.60120866229E+02 -0.48257883684E+03 -0.90947062220E+03  0.10352910716E+04  0.90520373501E+02 0.  0.
          1    1    3    3  502    0 -0.11704579490E+03  0.41703851194E+02 -0.24276506261E+02  0.12660283592E+03  0.00000000000E+00 0. -1.
         -2    1    3    3    0  502 -0.61233175657E+02  0.65291189773E+02  0.37253980447E+02  0.96955145929E+02  0.00000000000E+00 0.  1.
         11    1    5    5    0    0  0.10772668092E+03  0.19967415499E+03 -0.20798795829E+03  0.30778855850E+03  0.00000000000E+00 0.  1.
        -11    1    5    5    0    0  0.10431423407E+02  0.17590964088E+03 -0.19235619169E+03  0.26087146419E+03  0.00000000000E+00 0. -1.
          4    1    6    6  503    0  0.69304056926E+02 -0.31485831878E+03 -0.53079673919E+03  0.62103461381E+03  0.00000000000E+00 0. -1.
         -4    1    6    6    0  503 -0.91831906966E+01 -0.16772051805E+03 -0.37867388301E+03  0.41425645781E+03  0.00000000000E+00 0.  1.
<mgrwt>
<rscale>  0 0.12876344E+04</rscale>
<asrwt>0</asrwt>
<pdfrwt beam="1">  1        1 0.40820905E-01 0.12876344E+04</pdfrwt>
<pdfrwt beam="2">  1       -2 0.24033434E+00 0.12876344E+04</pdfrwt>
<totfact> 0.65177819E+00</totfact>
</mgrwt>
</event>
<event>
12    4  0.4207946E-008  0.1522100E+04  0.7818608E-02  0.8869889E-01
          1   -1    0    0  501    0  0.00000000000E+00  0.00000000000E+00  0.15863484642E+04  0.15863484642E+04  0.00000000000E+00 0. -1.
         -2   -1    0    0    0  501 -0.00000000000E+00 -0.00000000000E+00 -0.36511322860E+03  0.36511322860E+03  0.00000000000E+00 0.  1.
        -24    2    1    2    0    0  0.13890702010E+03  0.40885574125E+03  0.99539692102E+02  0.45037298580E+03  0.80433193676E+02 0.  0.
        254    2    1    2    0    0 -0.13890702010E+03 -0.40885574125E+03  0.11216955435E+04  0.15010887070E+04  0.89922646571E+03 0.  0.
         23    2    4    4    0    0 -0.73780885899E+02  0.27011578729E+03  0.22413447052E+03  0.37007369330E+03  0.91170828253E+02 0.  0.
         23    2    4    4    0    0 -0.65126134200E+02 -0.67897152855E+03  0.89756107301E+03  0.11310150137E+04  0.91298037230E+02 0.  0.
          3    1    3    3  502    0  0.34588021468E+01  0.62164552742E+00  0.10584787661E+02  0.11152913758E+02  0.00000000000E+00 0. -1.
         -4    1    3    3    0  502  0.13544821795E+03  0.40823409573E+03  0.88954904440E+02  0.43922007204E+03  0.00000000000E+00 0.  1.
         11    1    5    5    0    0  0.11074289927E+02  0.10776995429E+03  0.10916992162E+03  0.15380206348E+03  0.00000000000E+00 0. -1.
        -11    1    5    5    0    0 -0.84855175826E+02  0.16234583300E+03  0.11496454891E+03  0.21627162981E+03  0.00000000000E+00 0.  1.
          4    1    6    6  503    0 -0.61230762472E+02 -0.21838838709E+03  0.32149922542E+03  0.39345196128E+03  0.00000000000E+00 0. -1.
         -4    1    6    6    0  503 -0.38953717284E+01 -0.46058314145E+03  0.57606184758E+03  0.73756305246E+03  0.00000000000E+00 0.  1.
<mgrwt>
<rscale>  0 0.15220996E+04</rscale>
<asrwt>0</asrwt>
<pdfrwt beam="1">  1        1 0.24405361E+00 0.15220996E+04</pdfrwt>
<pdfrwt beam="2">  1       -2 0.56171267E-01 0.15220996E+04</pdfrwt>
<totfact> 0.14376287E+01</totfact>
</mgrwt>
</event>
<event>
12    4  0.4207946E-008  0.1115555E+04  0.7818608E-02  0.9190162E-01
          1   -1    0    0  501    0  0.00000000000E+00  0.00000000000E+00  0.34319569712E+03  0.34319569712E+03  0.00000000000E+00 0. -1.
         -2   -1    0    0    0  501 -0.00000000000E+00 -0.00000000000E+00 -0.90652566204E+03  0.90652566204E+03  0.00000000000E+00 0.  1.
        -24    2    1    2    0    0 -0.11603393824E+03  0.33512212740E+02 -0.23806063261E+03  0.27868970204E+03  0.80050871309E+02 0.  0.
        254    2    1    2    0    0  0.11603393824E+03 -0.33512212740E+02 -0.32526933230E+03  0.97103165712E+03  0.90692634617E+03 0.  0.
         23    2    4    4    0    0  0.17312853015E+02 -0.45753124083E+03 -0.20812308000E+03  0.51141641973E+03  0.92719829186E+02 0.  0.
         23    2    4    4    0    0  0.98721085221E+02  0.42401902809E+03 -0.11714625230E+03  0.45961523739E+03  0.89358453246E+02 0.  0.
          3    1    3    3  502    0 -0.34804822584E+02 -0.19524831231E+02 -0.32792871626E+02  0.51652368185E+02  0.00000000000E+00 0. -1.
         -4    1    3    3    0  502 -0.81229115652E+02  0.53037043971E+02 -0.20526776099E+03  0.22703733385E+03  0.00000000000E+00 0.  1.
         11    1    5    5    0    0  0.16835363147E+02 -0.11981436858E+03 -0.13781967239E+02  0.12177378614E+03  0.00000000000E+00 0. -1.
        -11    1    5    5    0    0  0.47748986754E+00 -0.33771687225E+03 -0.19434111276E+03  0.38964263358E+03  0.00000000000E+00 0.  1.
          3    1    6    6  503    0  0.95325829759E+02  0.40337485932E+03 -0.13079800336E+03  0.43463364876E+03  0.00000000000E+00 0. -1.
         -3    1    6    6    0  503  0.33952554617E+01  0.20644168771E+02  0.13651751056E+02  0.24981588636E+02  0.00000000000E+00 0.  1.
<mgrwt>
<rscale>  0 0.11155549E+04</rscale>
<asrwt>0</asrwt>
<pdfrwt beam="1">  1        1 0.52799339E-01 0.11155549E+04</pdfrwt>
<pdfrwt beam="2">  1       -2 0.13946548E+00 0.11155549E+04</pdfrwt>
<totfact> 0.23150693E+01</totfact>
</mgrwt>
</event>
<event>
12    4  0.4207946E-008  0.1472437E+04  0.7818608E-02  0.8902992E-01
         -2   -1    0    0    0  501 -0.00000000000E+00  0.00000000000E+00  0.99371444360E+03  0.99371444360E+03  0.00000000000E+00 0.  1.
          1   -1    0    0  501    0  0.00000000000E+00 -0.00000000000E+00 -0.54544623445E+03  0.54544623445E+03  0.00000000000E+00 0. -1.
        -24    2    1    2    0    0  0.10326461142E+03 -0.29607841392E+03  0.48687116180E+03  0.58453150035E+03  0.79420019809E+02 0.  0.
        254    2    1    2    0    0 -0.10326461142E+03  0.29607841392E+03 -0.38602952649E+02  0.95462917771E+03  0.90083332077E+03 0.  0.
         23    2    4    4    0    0 -0.14216452200E+02 -0.12639229821E+03  0.33908233739E+03  0.37360060213E+03  0.91779397602E+02 0.  0.
         23    2    4    4    0    0 -0.89048159222E+02  0.42247071213E+03 -0.37768529004E+03  0.58102857558E+03  0.92395617120E+02 0.  0.
          3    1    3    3  502    0 -0.54803746328E+00 -0.13213376244E+02  0.15958708131E+01  0.13320677929E+02  0.00000000000E+00 0. -1.
         -4    1    3    3    0  502  0.10381264889E+03 -0.28286503767E+03  0.48527529099E+03  0.57121082242E+03  0.00000000000E+00 0.  1.
         11    1    5    5    0    0  0.93748443602E+01 -0.12558550960E+02  0.56947010170E+00  0.15682130123E+02  0.00000000000E+00 0.  1.
        -11    1    5    5    0    0 -0.23591296560E+02 -0.11383374725E+03  0.33851286729E+03  0.35791847201E+03  0.00000000000E+00 0. -1.
          4    1    6    6  503    0 -0.32861579656E+02  0.12514021554E+03 -0.61075182304E+02  0.14307387901E+03  0.00000000000E+00 0.  1.
         -4    1    6    6    0  503 -0.56186579567E+02  0.29733049659E+03 -0.31661010773E+03  0.43795469656E+03  0.00000000000E+00 0. -1.
<mgrwt>
<rscale>  0 0.14724372E+04</rscale>
<asrwt>0</asrwt>
<pdfrwt beam="1">  1        1 0.83914805E-01 0.14724372E+04</pdfrwt>
<pdfrwt beam="2">  1       -2 0.15287915E+00 0.14724372E+04</pdfrwt>
<totfact> 0.94741879E+00</totfact>
</mgrwt>
</event>
<event>
12    4  0.4207946E-008  0.1138878E+04  0.7818608E-02  0.9168105E-01
         -2   -1    0    0    0  501 -0.00000000000E+00  0.00000000000E+00  0.38470796179E+03  0.38470796179E+03  0.00000000000E+00 0.  1.
          1   -1    0    0  501    0  0.00000000000E+00 -0.00000000000E+00 -0.84287580401E+03  0.84287580401E+03  0.00000000000E+00 0. -1.
        -24    2    1    2    0    0 -0.47595413167E+02 -0.60335933659E+01  0.11731105335E+03  0.15134323884E+03  0.82711335984E+02 0.  0.
        254    2    1    2    0    0  0.47595413167E+02  0.60335933659E+01 -0.57547889557E+03  0.10762405270E+04  0.90819380367E+03 0.  0.
         23    2    4    4    0    0 -0.78027779000E+02 -0.53546647709E+02  0.22367522852E+03  0.25974959230E+03  0.92106813370E+02 0.  0.
         23    2    4    4    0    0  0.12562319217E+03  0.59580241075E+02 -0.79915412409E+03  0.81649093465E+03  0.93161906296E+02 0.  0.
          1    1    3    3  502    0 -0.25648209758E+02  0.39782118059E+01 -0.52077589028E+01  0.26472204021E+02  0.00000000000E+00 0. -1.
         -2    1    3    3    0  502 -0.21947203410E+02 -0.10011805172E+02  0.12251881225E+03  0.12487103482E+03  0.00000000000E+00 0.  1.
         11    1    5    5    0    0 -0.89460046693E+02 -0.46214416673E+02  0.22459832910E+03  0.24613671343E+03  0.00000000000E+00 0. -1.
        -11    1    5    5    0    0  0.11432267693E+02 -0.73322310365E+01 -0.92310057549E+00  0.13612878874E+02  0.00000000000E+00 0.  1.
          3    1    6    6  503    0  0.10266628534E+03  0.47911102555E+02 -0.76686998864E+03  0.77519379472E+03  0.00000000000E+00 0. -1.
         -3    1    6    6    0  503  0.22956906831E+02  0.11669138520E+02 -0.32284135447E+02  0.41297139933E+02  0.00000000000E+00 0.  1.
<mgrwt>
<rscale>  0 0.11388785E+04</rscale>
<asrwt>0</asrwt>
<pdfrwt beam="1">  1        1 0.12967320E+00 0.11388785E+04</pdfrwt>
<pdfrwt beam="2">  1       -2 0.59185840E-01 0.11388785E+04</pdfrwt>
<totfact> 0.47158336E+01</totfact>
</mgrwt>
</event>
<event>
12    4  0.4207946E-008  0.1942669E+04  0.7818608E-02  0.8633904E-01
         -2   -1    0    0    0  501 -0.00000000000E+00  0.00000000000E+00  0.13568929103E+04  0.13568929103E+04  0.00000000000E+00 0.  1.
          1   -1    0    0  501    0  0.00000000000E+00 -0.00000000000E+00 -0.69533158659E+03  0.69533158659E+03  0.00000000000E+00 0. -1.
        -24    2    1    2    0    0  0.63183225405E+03 -0.41265044983E+03  0.42738274195E+03  0.87092425916E+03  0.79753784048E+02 0.  0.
        254    2    1    2    0    0 -0.63183225405E+03  0.41265044983E+03  0.23417858176E+03  0.11813002377E+04  0.87814477879E+03 0.  0.
         23    2    4    4    0    0  0.15106641476E+03  0.76014336028E+02 -0.14862624261E+03  0.24264818970E+03  0.90493883900E+02 0.  0.
         23    2    4    4    0    0 -0.78289866881E+03  0.33663611380E+03  0.38280482437E+03  0.93865204803E+03  0.90961172905E+02 0.  0.
          3    1    3    3  502    0  0.44148933050E+02 -0.37690954593E+02  0.57727769067E+02  0.81867158672E+02  0.00000000000E+00 0. -1.
         -2    1    3    3    0  502  0.58768332100E+03 -0.37495949524E+03  0.36965497289E+03  0.78905710048E+03  0.00000000000E+00 0.  1.
         11    1    5    5    0    0  0.15617315727E+03  0.87364437916E+02 -0.13475849299E+03  0.22401440020E+03  0.00000000000E+00 0.  1.
        -11    1    5    5    0    0 -0.51067425048E+01 -0.11350101888E+02 -0.13867749613E+02  0.18633789502E+02  0.00000000000E+00 0. -1.
          2    1    6    6  503    0 -0.29791342143E+03  0.17468526664E+03  0.14056868781E+03  0.37286311837E+03  0.00000000000E+00 0. -1.
         -2    1    6    6    0  503 -0.48498524738E+03  0.16195084716E+03  0.24223613656E+03  0.56578892966E+03  0.00000000000E+00 0.  1.
<mgrwt>
<rscale>  0 0.19426688E+04</rscale>
<asrwt>0</asrwt>
<pdfrwt beam="1">  1        1 0.10697409E+00 0.19426688E+04</pdfrwt>
<pdfrwt beam="2">  1       -2 0.20875276E+00 0.19426688E+04</pdfrwt>
<totfact> 0.26197886E+00</totfact>
</mgrwt>
</event>
<event>
12    4  0.4207946E-008  0.1274588E+04  0.7818608E-02  0.9049964E-01
          1   -1    0    0  501    0  0.00000000000E+00  0.00000000000E+00  0.15423034710E+04  0.15423034710E+04  0.00000000000E+00 0. -1.
         -2   -1    0    0    0  501 -0.00000000000E+00 -0.00000000000E+00 -0.26333563464E+03  0.26333563464E+03  0.00000000000E+00 0.  1.
        -24    2    1    2    0    0  0.10037488784E+03  0.80955190728E+02  0.71942217924E+03  0.73417848433E+03  0.69432801000E+02 0.  0.
        254    2    1    2    0    0 -0.10037488784E+03 -0.80955190728E+02  0.55954565707E+03  0.10714606213E+04  0.90460359250E+03 0.  0.
         23    2    4    4    0    0  0.19760567311E+01  0.28399559386E+03 -0.92035760090E+02  0.31238180046E+03  0.91947843858E+02 0.  0.
         23    2    4    4    0    0 -0.10235094457E+03 -0.36495078459E+03  0.65158141716E+03  0.75907882080E+03  0.89316974734E+02 0.  0.
          3    1    3    3  502    0  0.46990118112E+02  0.24470250407E+02  0.46874148564E+03  0.47172602718E+03  0.00000000000E+00 0. -1.
         -2    1    3    3    0  502  0.53384769726E+02  0.56484940322E+02  0.25068069360E+03  0.26245245715E+03  0.00000000000E+00 0.  1.
         11    1    5    5    0    0 -0.35631612077E+02  0.62673597492E+02 -0.37912553190E+02  0.81455222614E+02  0.00000000000E+00 0.  1.
        -11    1    5    5    0    0  0.37607668808E+02  0.22132199637E+03 -0.54123206899E+02  0.23092657785E+03  0.00000000000E+00 0. -1.
          1    1    6    6  503    0 -0.11784452695E+03 -0.30324884039E+03  0.55806104285E+03  0.64597160873E+03  0.00000000000E+00 0. -1.
         -1    1    6    6    0  503  0.15493582381E+02 -0.61701944206E+02  0.93520374307E+02  0.11310721208E+03  0.00000000000E+00 0.  1.
<mgrwt>
<rscale>  0 0.12745877E+04</rscale>
<asrwt>0</asrwt>
<pdfrwt beam="1">  1        1 0.23727745E+00 0.12745877E+04</pdfrwt>
<pdfrwt beam="2">  1       -2 0.40513175E-01 0.12745877E+04</pdfrwt>
<totfact> 0.30466932E+01</totfact>
</mgrwt>
</event>
<event>
12    4  0.4207946E-008  0.2184363E+04  0.7818608E-02  0.8524965E-01
         -2   -1    0    0    0  501 -0.00000000000E+00  0.00000000000E+00  0.57484226703E+03  0.57484226703E+03  0.00000000000E+00 0.  1.
          1   -1    0    0  501    0  0.00000000000E+00 -0.00000000000E+00 -0.20751089536E+04  0.20751089536E+04  0.00000000000E+00 0. -1.
        -24    2    1    2    0    0  0.12360072239E+03 -0.61867351698E+03  0.16552540513E+03  0.65712400321E+03  0.79870123730E+02 0.  0.
        254    2    1    2    0    0 -0.12360072239E+03  0.61867351698E+03 -0.16657920917E+04  0.19928272174E+04  0.89356755005E+03 0.  0.
         23    2    4    4    0    0  0.22667466120E+03  0.31434939501E+03 -0.13878668783E+04  0.14442759625E+04  0.97783637497E+02 0.  0.
         23    2    4    4    0    0 -0.35027538358E+03  0.30432412197E+03 -0.27792521335E+03  0.54855125488E+03  0.91433251390E+02 0.  0.
          3    1    3    3  502    0  0.10788843619E+02 -0.11487561408E+03  0.13995570946E+01  0.11538962093E+03  0.00000000000E+00 0. -1.
         -4    1    3    3    0  502  0.11281187877E+03 -0.50379790289E+03  0.16412584803E+03  0.54173438228E+03  0.00000000000E+00 0.  1.
         11    1    5    5    0    0  0.22876441539E+03  0.27493854819E+03 -0.12922717620E+04  0.13408544552E+04  0.00000000000E+00 0. -1.
        -11    1    5    5    0    0 -0.20897541908E+01  0.39410846821E+02 -0.95595116301E+02  0.10342150734E+03  0.00000000000E+00 0.  1.
          2    1    6    6  503    0 -0.34343288296E+03  0.26761141019E+03 -0.26019160340E+03  0.50720970263E+03  0.00000000000E+00 0. -1.
         -2    1    6    6    0  503 -0.68425006268E+01  0.36712711775E+02 -0.17733609948E+02  0.41341552251E+02  0.00000000000E+00 0.  1.
<mgrwt>
<rscale>  0 0.21843629E+04</rscale>
<asrwt>0</asrwt>
<pdfrwt beam="1">  1        1 0.31924754E+00 0.21843629E+04</pdfrwt>
<pdfrwt beam="2">  1       -2 0.88437271E-01 0.21843629E+04</pdfrwt>
<totfact> 0.23382131E+00</totfact>
</mgrwt>
</event>
<event>
12    4  0.4207946E-008  0.1261237E+04  0.7818608E-02  0.9060883E-01
          1   -1    0    0  501    0  0.00000000000E+00  0.00000000000E+00  0.23841526867E+04  0.23841526867E+04  0.00000000000E+00 0. -1.
         -2   -1    0    0    0  501 -0.00000000000E+00 -0.00000000000E+00 -0.16680117232E+03  0.16680117232E+03  0.00000000000E+00 0.  1.
        -24    2    1    2    0    0  0.38579098002E+02  0.26741261371E+03  0.10678793267E+04  0.11040167209E+04  0.74086509878E+02 0.  0.
        254    2    1    2    0    0 -0.38579098002E+02 -0.26741261371E+03  0.11494721877E+04  0.14469371381E+04  0.83626725305E+03 0.  0.
         23    2    4    4    0    0 -0.35772046983E+03 -0.12538657628E+03  0.96785803476E+03  0.10432526103E+04  0.89112880627E+02 0.  0.
         23    2    4    4    0    0  0.31914137183E+03 -0.14202603743E+03  0.18161415294E+03  0.40368452775E+03  0.89190172516E+02 0.  0.
          3    1    3    3  502    0 -0.52375461577E+01  0.15568601840E+02  0.22629654309E+02  0.27962734258E+02  0.00000000000E+00 0. -1.
         -4    1    3    3    0  502  0.43816644159E+02  0.25184401187E+03  0.10452496724E+04  0.10760539867E+04  0.00000000000E+00 0.  1.
         11    1    5    5    0    0 -0.83233906974E+01 -0.18984662343E+02  0.27371326212E+02  0.34334905499E+02  0.00000000000E+00 0. -1.
        -11    1    5    5    0    0 -0.34939707914E+03 -0.10640191393E+03  0.94048670855E+03  0.10089177048E+04  0.00000000000E+00 0.  1.
          2    1    6    6  503    0  0.27601669378E+03 -0.12250503788E+03  0.11760590744E+03  0.32407383266E+03  0.00000000000E+00 0.  1.
         -2    1    6    6    0  503  0.43124678051E+02 -0.19520999547E+02  0.64008245497E+02  0.79610695085E+02  0.00000000000E+00 0. -1.
<mgrwt>
<rscale>  0 0.12612366E+04</rscale>
<asrwt>0</asrwt>
<pdfrwt beam="1">  1        1 0.36679270E+00 0.12612366E+04</pdfrwt>
<pdfrwt beam="2">  1       -2 0.25661721E-01 0.12612366E+04</pdfrwt>
<totfact> 0.19360653E+01</totfact>
</mgrwt>
</event>
<event>
12    4  0.4207946E-008  0.1225578E+04  0.7818608E-02  0.9090758E-01
          1   -1    0    0  501    0  0.00000000000E+00  0.00000000000E+00  0.34310368560E+04  0.34310368560E+04  0.00000000000E+00 0. -1.
         -2   -1    0    0    0  501 -0.00000000000E+00 -0.00000000000E+00 -0.10944516103E+03  0.10944516103E+03  0.00000000000E+00 0.  1.
        -24    2    1    2    0    0 -0.51578358231E+02  0.27180248496E+03  0.68326660011E+03  0.74141265296E+03  0.79388647059E+02 0.  0.
        254    2    1    2    0    0  0.51578358231E+02 -0.27180248496E+03  0.26383250949E+04  0.27990693641E+04  0.89302468097E+03 0.  0.
         23    2    4    4    0    0  0.44180764660E+03 -0.71136501264E+02  0.16826413472E+04  0.17436501820E+04  0.93699816152E+02 0.  0.
         23    2    4    4    0    0 -0.39022928837E+03 -0.20066598370E+03  0.95568374770E+03  0.10554191821E+04  0.89624158458E+02 0.  0.
          3    1    3    3  502    0  0.75868761142E+01  0.15593209428E+02  0.10162687508E+03  0.10309573516E+03  0.00000000000E+00 0. -1.
         -4    1    3    3    0  502 -0.59165234345E+02  0.25620927553E+03  0.58163972503E+03  0.63831691780E+03  0.00000000000E+00 0.  1.
         11    1    5    5    0    0  0.59584814284E+02 -0.33287971601E+02  0.17466067981E+03  0.18752277786E+03  0.00000000000E+00 0. -1.
        -11    1    5    5    0    0  0.38222283232E+03 -0.37848529663E+02  0.15079806674E+04  0.15561274041E+04  0.00000000000E+00 0.  1.
          2    1    6    6  503    0 -0.99127286292E+02 -0.85578021180E+02  0.22197295761E+03  0.25772429165E+03  0.00000000000E+00 0. -1.
         -2    1    6    6    0  503 -0.29110200208E+03 -0.11508796252E+03  0.73371079009E+03  0.79769489043E+03  0.00000000000E+00 0.  1.
<mgrwt>
<rscale>  0 0.12255780E+04</rscale>
<asrwt>0</asrwt>
<pdfrwt beam="1">  1        1 0.52785174E+00 0.12255780E+04</pdfrwt>
<pdfrwt beam="2">  1       -2 0.16837720E-01 0.12255780E+04</pdfrwt>
<totfact> 0.72192271E+00</totfact>
</mgrwt>
</event>
<event>
12    4  0.4207946E-008  0.1485768E+04  0.7818608E-02  0.8893973E-01
          1   -1    0    0  501    0  0.00000000000E+00  0.00000000000E+00  0.12600273210E+04  0.12600273210E+04  0.00000000000E+00 0. -1.
         -2   -1    0    0    0  501 -0.00000000000E+00 -0.00000000000E+00 -0.43798766990E+03  0.43798766990E+03  0.00000000000E+00 0.  1.
        -24    2    1    2    0    0  0.35884247395E+03  0.21673828565E+03  0.46430572817E+03  0.63108327944E+03  0.83324010955E+02 0.  0.
        254    2    1    2    0    0 -0.35884247395E+03 -0.21673828565E+03  0.35773392289E+03  0.10669317114E+04  0.91357884809E+03 0.  0.
         23    2    4    4    0    0 -0.57588836283E+03  0.11699998121E+03  0.24739351910E+03  0.64419224191E+03  0.91889548951E+02 0.  0.
         23    2    4    4    0    0  0.21704588888E+03 -0.33373826687E+03  0.11034040379E+03  0.42273946951E+03  0.89685593733E+02 0.  0.
          3    1    3    3  502    0  0.25726372132E+03  0.19586721974E+03  0.36272189498E+03  0.48591744481E+03  0.00000000000E+00 0. -1.
         -4    1    3    3    0  502  0.10157875262E+03  0.20871065912E+02  0.10158383320E+03  0.14516583463E+03  0.00000000000E+00 0.  1.
         11    1    5    5    0    0 -0.50700547492E+03  0.86252182203E+02  0.24251318850E+03  0.56860059544E+03  0.00000000000E+00 0. -1.
        -11    1    5    5    0    0 -0.68882887904E+02  0.30747799010E+02  0.48803305967E+01  0.75591646474E+02  0.00000000000E+00 0.  1.
          1    1    6    6  503    0  0.22539752129E+03 -0.31630943818E+03  0.10124929515E+03  0.40138151808E+03  0.00000000000E+00 0. -1.
         -1    1    6    6    0  503 -0.83516324057E+01 -0.17428828684E+02  0.90911086454E+01  0.21357951436E+02  0.00000000000E+00 0.  1.
<mgrwt>
<rscale>  0 0.14857677E+04</rscale>
<asrwt>0</asrwt>
<pdfrwt beam="1">  1        1 0.19385036E+00 0.14857677E+04</pdfrwt>
<pdfrwt beam="2">  1       -2 0.67382719E-01 0.14857677E+04</pdfrwt>
<totfact> 0.16581375E+01</totfact>
</mgrwt>
</event>
<event>
12    4  0.4207946E-008  0.1694120E+04  0.7818608E-02  0.8764725E-01
         -2   -1    0    0    0  501 -0.00000000000E+00  0.00000000000E+00  0.22955803971E+03  0.22955803971E+03  0.00000000000E+00 0.  1.
          1   -1    0    0  501    0  0.00000000000E+00 -0.00000000000E+00 -0.31256183205E+04  0.31256183205E+04  0.00000000000E+00 0. -1.
        -24    2    1    2    0    0  0.11823767852E+02 -0.36265845413E+03 -0.93565850679E+02  0.38315162630E+03  0.79935251808E+02 0.  0.
        254    2    1    2    0    0 -0.11823767852E+02  0.36265845413E+03 -0.28024944301E+04  0.29720247339E+04  0.92048630207E+03 0.  0.
         23    2    4    4    0    0  0.19706345115E+03  0.13142593899E+03 -0.14020791496E+03  0.29000228761E+03  0.91303264893E+02 0.  0.
         23    2    4    4    0    0 -0.20888721900E+03  0.23123251514E+03 -0.26622865152E+04  0.26820224463E+04  0.91501734201E+02 0.  0.
          1    1    3    3  502    0 -0.22212131465E+02 -0.32406762056E+02 -0.55199701084E+01  0.39674262201E+02  0.00000000000E+00 0. -1.
         -2    1    3    3    0  502  0.34035899317E+02 -0.33025169208E+03 -0.88045880570E+02  0.34347736410E+03  0.00000000000E+00 0.  1.
         11    1    5    5    0    0  0.62526979543E+02  0.75720506073E+01 -0.69889952380E+02  0.94082753812E+02  0.00000000000E+00 0.  1.
        -11    1    5    5    0    0  0.13453647161E+03  0.12385388838E+03 -0.70317962579E+02  0.19591953379E+03  0.00000000000E+00 0. -1.
          4    1    6    6  503    0 -0.13793927188E+03  0.15899445768E+03 -0.14068520787E+04  0.14225115998E+04  0.00000000000E+00 0.  1.
         -4    1    6    6    0  503 -0.70947947122E+02  0.72238057463E+02 -0.12554344365E+04  0.12595108465E+04  0.00000000000E+00 0. -1.
<mgrwt>
<rscale>  0 0.16941202E+04</rscale>
<asrwt>0</asrwt>
<pdfrwt beam="1">  1        1 0.48086436E+00 0.16941202E+04</pdfrwt>
<pdfrwt beam="2">  1       -2 0.35316621E-01 0.16941202E+04</pdfrwt>
<totfact> 0.30565385E+00</totfact>
</mgrwt>
</event>
<event>
12    4  0.4207946E-008  0.1174147E+04  0.7818608E-02  0.9135792E-01
          1   -1    0    0  501    0  0.00000000000E+00  0.00000000000E+00  0.25320928952E+03  0.25320928952E+03  0.00000000000E+00 0. -1.
         -2   -1    0    0    0  501 -0.00000000000E+00 -0.00000000000E+00 -0.13611470380E+04  0.13611470380E+04  0.00000000000E+00 0.  1.
        -24    2    1    2    0    0  0.74436500216E+01 -0.14269795901E+03 -0.81919933112E+01  0.16373876809E+03  0.79530874439E+02 0.  0.
        254    2    1    2    0    0 -0.74436500216E+01  0.14269795901E+03 -0.10997457551E+04  0.14506175594E+04  0.93511093580E+03 0.  0.
         23    2    4    4    0    0 -0.43297241150E+03  0.16869596698E+03 -0.37332029269E+03  0.60281035153E+03  0.89937981906E+02 0.  0.
         23    2    4    4    0    0  0.42552876148E+03 -0.25998007968E+02 -0.72642546244E+03  0.84780720785E+03  0.96604792561E+02 0.  0.
          1    1    3    3  502    0  0.29071183158E+01 -0.12371047863E+03 -0.36803608181E+02  0.12910166318E+03  0.00000000000E+00 0. -1.
         -2    1    3    3    0  502  0.45365317058E+01 -0.18987480378E+02  0.28611614869E+02  0.34637104909E+02  0.00000000000E+00 0.  1.
         11    1    5    5    0    0 -0.86734746255E+02  0.15284824694E+02 -0.11298819523E+03  0.14325806900E+03  0.00000000000E+00 0. -1.
        -11    1    5    5    0    0 -0.34623766524E+03  0.15341114228E+03 -0.26033209746E+03  0.45955228253E+03  0.00000000000E+00 0.  1.
          1    1    6    6  503    0  0.81879498711E+02  0.17935449978E+01 -0.22366762665E+03  0.23819042030E+03  0.00000000000E+00 0. -1.
         -1    1    6    6    0  503  0.34364926277E+03 -0.27791552966E+02 -0.50275783579E+03  0.60961678755E+03  0.00000000000E+00 0.  1.
<mgrwt>
<rscale>  0 0.11741466E+04</rscale>
<asrwt>0</asrwt>
<pdfrwt beam="1">  1        1 0.38955276E-01 0.11741466E+04</pdfrwt>
<pdfrwt beam="2">  1       -2 0.20940723E+00 0.11741466E+04</pdfrwt>
<totfact> 0.10926488E+01</totfact>
</mgrwt>
</event>
<event>
12    4  0.4207946E-008  0.1621251E+04  0.7818608E-02  0.8807598E-01
          1   -1    0    0  501    0  0.00000000000E+00  0.00000000000E+00  0.12740116456E+04  0.12740116456E+04  0.00000000000E+00 0. -1.
         -2   -1    0    0    0  501 -0.00000000000E+00 -0.00000000000E+00 -0.51578315173E+03  0.51578315173E+03  0.00000000000E+00 0.  1.
        -24    2    1    2    0    0  0.21352561456E+03 -0.51059014303E+03  0.33695255756E+03  0.65291767726E+03  0.80430000574E+02 0.  0.
        254    2    1    2    0    0 -0.21352561456E+03  0.51059014303E+03  0.42127593631E+03  0.11368771201E+04  0.89928899104E+03 0.  0.
         23    2    4    4    0    0 -0.88455603192E+02 -0.19954949314E+03  0.32699071007E+03  0.40396238749E+03  0.92834756869E+02 0.  0.
         23    2    4    4    0    0 -0.12507001136E+03  0.71013963618E+03  0.94285226238E+02  0.73291473259E+03  0.91287955108E+02 0.  0.
          3    1    3    3  502    0  0.54042848231E+01 -0.63587964030E+02  0.20507661987E+02  0.67031333450E+02  0.00000000000E+00 0. -1.
         -4    1    3    3    0  502  0.20812132973E+03 -0.44700217901E+03  0.31644489558E+03  0.58588634381E+03  0.00000000000E+00 0.  1.
         11    1    5    5    0    0 -0.64498389871E+02 -0.79975566209E+02  0.86452531098E+02  0.13427648200E+03  0.00000000000E+00 0. -1.
        -11    1    5    5    0    0 -0.23957213321E+02 -0.11957392693E+03  0.24053817898E+03  0.26968590549E+03  0.00000000000E+00 0.  1.
          3    1    6    6  503    0  0.50123525330E+01  0.79374908870E+02  0.32508051213E+02  0.85920156132E+02  0.00000000000E+00 0. -1.
         -3    1    6    6    0  503 -0.13008236390E+03  0.63076472731E+03  0.61777175024E+02  0.64699457646E+03  0.00000000000E+00 0.  1.
<mgrwt>
<rscale>  0 0.16212511E+04</rscale>
<asrwt>0</asrwt>
<pdfrwt beam="1">  1        1 0.19600179E+00 0.16212511E+04</pdfrwt>
<pdfrwt beam="2">  1       -2 0.79351255E-01 0.16212511E+04</pdfrwt>
<totfact> 0.11169739E+01</totfact>
</mgrwt>
</event>
<event>
12    4  0.4207946E-008  0.1278151E+04  0.7818608E-02  0.9047073E-01
          1   -1    0    0  501    0  0.00000000000E+00  0.00000000000E+00  0.68965294137E+03  0.68965294137E+03  0.00000000000E+00 0. -1.
         -2   -1    0    0    0  501 -0.00000000000E+00 -0.00000000000E+00 -0.59220742441E+03  0.59220742441E+03  0.00000000000E+00 0.  1.
        -24    2    1    2    0    0  0.14202456819E+03 -0.28686259898E+03  0.16045229704E+02  0.33045648948E+03  0.80516541012E+02 0.  0.
        254    2    1    2    0    0 -0.14202456819E+03  0.28686259898E+03  0.81400287253E+02  0.95140387630E+03  0.89223438647E+03 0.  0.
         23    2    4    4    0    0  0.23955399271E+03  0.18655280443E+03  0.34518884540E+03  0.46854498761E+03  0.90504155462E+02 0.  0.
         23    2    4    4    0    0 -0.38157856090E+03  0.10030979456E+03 -0.26378855815E+03  0.48285888869E+03  0.88904723994E+02 0.  0.
          1    1    3    3  502    0  0.25394103918E+01 -0.72747255210E+02 -0.10479367853E+02  0.73542021296E+02  0.00000000000E+00 0. -1.
         -2    1    3    3    0  502  0.13948515780E+03 -0.21411534377E+03  0.26524597557E+02  0.25691446818E+03  0.00000000000E+00 0.  1.
         11    1    5    5    0    0  0.98272233252E+02  0.43954008863E+02  0.17457008276E+03  0.20509534494E+03  0.00000000000E+00 0. -1.
        -11    1    5    5    0    0  0.14128175946E+03  0.14259879556E+03  0.17061876265E+03  0.26344964266E+03  0.00000000000E+00 0.  1.
          3    1    6    6  503    0 -0.24880086155E+03  0.10791807629E+03 -0.16907980196E+03  0.31958748306E+03  0.00000000000E+00 0. -1.
         -3    1    6    6    0  503 -0.13277769936E+03 -0.76082817314E+01 -0.94708756192E+02  0.16327140563E+03  0.00000000000E+00 0.  1.
<mgrwt>
<rscale>  0 0.12781512E+04</rscale>
<asrwt>0</asrwt>
<pdfrwt beam="1">  1        1 0.10610045E+00 0.12781512E+04</pdfrwt>
<pdfrwt beam="2">  1       -2 0.91108834E-01 0.12781512E+04</pdfrwt>
<totfact> 0.24674057E+01</totfact>
</mgrwt>
</event>
<event>
12    4  0.4207946E-008  0.1253402E+04  0.7818608E-02  0.9067356E-01
          1   -1    0    0  501    0  0.00000000000E+00  0.00000000000E+00  0.16445547413E+04  0.16445547413E+04  0.00000000000E+00 0. -1.
         -2   -1    0    0    0  501 -0.00000000000E+00 -0.00000000000E+00 -0.23882105860E+03  0.23882105860E+03  0.00000000000E+00 0.  1.
        -24    2    1    2    0    0 -0.20234876737E+03 -0.62817274431E+02  0.34315662380E+02  0.22950003542E+03  0.81250648913E+02 0.  0.
        254    2    1    2    0    0  0.20234876737E+03  0.62817274431E+02  0.13714180203E+04  0.16538757645E+04  0.89979254514E+03 0.  0.
         23    2    4    4    0    0 -0.19608830101E+03 -0.23816493832E+03  0.91933134810E+03  0.97398110924E+03  0.91081907697E+02 0.  0.
         23    2    4    4    0    0  0.39843706838E+03  0.30098221276E+03  0.45208667223E+03  0.67989465526E+03  0.92368789070E+02 0.  0.
          1    1    3    3  502    0 -0.82000701280E+02  0.11420885887E+02  0.29905353618E+02  0.88027733243E+02  0.00000000000E+00 0. -1.
         -2    1    3    3    0  502 -0.12034806609E+03 -0.74238160318E+02  0.44103087615E+01  0.14147230217E+03  0.00000000000E+00 0.  1.
         11    1    5    5    0    0 -0.11120625579E+03 -0.69920065921E+02  0.43004188969E+03  0.44965728487E+03  0.00000000000E+00 0. -1.
        -11    1    5    5    0    0 -0.84882045218E+02 -0.16824487240E+03  0.48928945842E+03  0.52432382437E+03  0.00000000000E+00 0.  1.
          3    1    6    6  503    0  0.42739744795E+02  0.59203796417E+02  0.35747192331E+02  0.81299674384E+02  0.00000000000E+00 0. -1.
         -3    1    6    6    0  503  0.35569732358E+03  0.24177841634E+03  0.41633947990E+03  0.59859498088E+03  0.00000000000E+00 0.  1.
<mgrwt>
<rscale>  0 0.12534023E+04</rscale>
<asrwt>0</asrwt>
<pdfrwt beam="1">  1        1 0.25300841E+00 0.12534023E+04</pdfrwt>
<pdfrwt beam="2">  1       -2 0.36741702E-01 0.12534023E+04</pdfrwt>
<totfact> 0.31403793E+01</totfact>
</mgrwt>
</event>
<event>
12    4  0.4207946E-008  0.2067207E+04  0.7818608E-02  0.8575828E-01
         -2   -1    0    0    0  501 -0.00000000000E+00  0.00000000000E+00  0.13062806077E+04  0.13062806077E+04  0.00000000000E+00 0.  1.
          1   -1    0    0  501    0  0.00000000000E+00 -0.00000000000E+00 -0.81784612007E+03  0.81784612007E+03  0.00000000000E+00 0. -1.
        -24    2    1    2    0    0  0.70091171535E+03 -0.30657178156E+03 -0.12273210514E+03  0.77887386970E+03  0.79484874673E+02 0.  0.
        254    2    1    2    0    0 -0.70091171535E+03  0.30657178156E+03  0.61116659275E+03  0.13452528581E+04  0.92245171042E+03 0.  0.
         23    2    4    4    0    0 -0.45877985757E+03 -0.17054031953E+03  0.62801219008E+03  0.80199294835E+03  0.96075074862E+02 0.  0.
         23    2    4    4    0    0 -0.24213185779E+03  0.47711210108E+03 -0.16845597337E+02  0.54325990971E+03  0.92648593049E+02 0.  0.
          3    1    3    3  502    0  0.68418810453E+03 -0.28399361094E+03 -0.12200754348E+03  0.75076732354E+03  0.00000000000E+00 0. -1.
         -4    1    3    3    0  502  0.16723610826E+02 -0.22578170611E+02 -0.72456165895E+00  0.28106546156E+02  0.00000000000E+00 0.  1.
         11    1    5    5    0    0 -0.24970943140E+03 -0.64178316900E+02  0.39240176289E+03  0.46952401430E+03  0.00000000000E+00 0.  1.
        -11    1    5    5    0    0 -0.20907042616E+03 -0.10636200263E+03  0.23561042720E+03  0.33246893404E+03  0.00000000000E+00 0. -1.
          3    1    6    6  503    0 -0.11852204979E+03  0.31282341074E+03  0.16719213677E+02  0.33494103167E+03  0.00000000000E+00 0. -1.
         -3    1    6    6    0  503 -0.12360980800E+03  0.16428869035E+03 -0.33564811014E+02  0.20831887804E+03  0.00000000000E+00 0.  1.
<mgrwt>
<rscale>  0 0.20672073E+04</rscale>
<asrwt>0</asrwt>
<pdfrwt beam="1">  1        1 0.12582248E+00 0.20672073E+04</pdfrwt>
<pdfrwt beam="2">  1       -2 0.20096625E+00 0.20672073E+04</pdfrwt>
<totfact> 0.22590476E+00</totfact>
</mgrwt>
</event>
<event>
12    4  0.4207946E-008  0.2179822E+04  0.7818608E-02  0.8526874E-01
          1   -1    0    0  501    0  0.00000000000E+00  0.00000000000E+00  0.23891531306E+04  0.23891531306E+04  0.00000000000E+00 0. -1.
         -2   -1    0    0    0  501 -0.00000000000E+00 -0.00000000000E+00 -0.49720796072E+03  0.49720796072E+03  0.00000000000E+00 0.  1.
        -24    2    1    2    0    0 -0.21557937989E+03 -0.48588594670E+03  0.18312934776E+04  0.19084856863E+04  0.78244434708E+02 0.  0.
        254    2    1    2    0    0  0.21557937989E+03  0.48588594670E+03  0.60651692314E+02  0.97787540503E+03  0.81853653415E+03 0.  0.
         23    2    4    4    0    0  0.12845379294E+03  0.70006488985E+03  0.10524503907E+03  0.72582539661E+03  0.95680516268E+02 0.  0.
         23    2    4    4    0    0  0.87125586948E+02 -0.21417894315E+03 -0.44593346761E+02  0.25205000842E+03  0.89872980261E+02 0.  0.
          1    1    3    3  502    0 -0.19831029581E+03 -0.47434702971E+03  0.17170921658E+04  0.17924111090E+04  0.00000000000E+00 0. -1.
         -2    1    3    3    0  502 -0.17269084078E+02 -0.11538916989E+02  0.11420131184E+03  0.11607457730E+03  0.00000000000E+00 0.  1.
         11    1    5    5    0    0  0.14110086454E+01  0.87956574921E+02  0.42003727089E+02  0.97481603939E+02  0.00000000000E+00 0. -1.
        -11    1    5    5    0    0  0.12704278430E+03  0.61210831492E+03  0.63241311986E+02  0.62834379267E+03  0.00000000000E+00 0.  1.
          3    1    6    6  503    0  0.76099865531E+02 -0.12593730418E+03 -0.64919363854E+02  0.16082884667E+03  0.00000000000E+00 0. -1.
         -3    1    6    6    0  503  0.11025721417E+02 -0.88241638964E+02  0.20326017094E+02  0.91221161748E+02  0.00000000000E+00 0.  1.
<mgrwt>
<rscale>  0 0.21798220E+04</rscale>
<asrwt>0</asrwt>
<pdfrwt beam="1">  1        1 0.36756201E+00 0.21798220E+04</pdfrwt>
<pdfrwt beam="2">  1       -2 0.76493534E-01 0.21798220E+04</pdfrwt>
<totfact> 0.19823154E+00</totfact>
</mgrwt>
</event>
<event>
12    4  0.4207946E-008  0.2264961E+04  0.7818608E-02  0.8491866E-01
         -2   -1    0    0    0  501 -0.00000000000E+00  0.00000000000E+00  0.12871030805E+04  0.12871030805E+04  0.00000000000E+00 0.  1.
          1   -1    0    0  501    0  0.00000000000E+00 -0.00000000000E+00 -0.99643340931E+03  0.99643340931E+03  0.00000000000E+00 0. -1.
        -24    2    1    2    0    0  0.86755885346E+03  0.38706911116E+03  0.66981351657E+02  0.95563730499E+03  0.79216767148E+02 0.  0.
        254    2    1    2    0    0 -0.86755885346E+03 -0.38706911116E+03  0.22368831955E+03  0.13278991848E+04  0.90044373492E+03 0.  0.
         23    2    4    4    0    0 -0.40864796677E+02  0.21813058971E+03 -0.84134697421E+02  0.25437047357E+03  0.91513959271E+02 0.  0.
         23    2    4    4    0    0 -0.82669405678E+03 -0.60519970086E+03  0.30782301697E+03  0.10735287113E+04  0.89549666005E+02 0.  0.
          1    1    3    3  502    0  0.21928381085E+03  0.71989663325E+02  0.40777289387E+02  0.23437296913E+03  0.00000000000E+00 0. -1.
         -2    1    3    3    0  502  0.64827504260E+03  0.31507944783E+03  0.26204062270E+02  0.72126433586E+03  0.00000000000E+00 0.  1.
         11    1    5    5    0    0 -0.30761003667E+02  0.19136132931E+03 -0.10359570642E+03  0.21976684939E+03  0.00000000000E+00 0. -1.
        -11    1    5    5    0    0 -0.10103793009E+02  0.26769260400E+02  0.19461008998E+02  0.34603624185E+02  0.00000000000E+00 0.  1.
          4    1    6    6  503    0 -0.77684299019E+03 -0.58799834442E+03  0.30420133279E+03  0.10206691606E+04  0.00000000000E+00 0. -1.
         -4    1    6    6    0  503 -0.49851066597E+02 -0.17201356441E+02  0.36216841811E+01  0.52859550703E+02  0.00000000000E+00 0.  1.
<mgrwt>
<rscale>  0 0.22649614E+04</rscale>
<asrwt>0</asrwt>
<pdfrwt beam="1">  1        1 0.15329745E+00 0.22649614E+04</pdfrwt>
<pdfrwt beam="2">  1       -2 0.19801586E+00 0.22649614E+04</pdfrwt>
<totfact> 0.16590449E+00</totfact>
</mgrwt>
</event>
<event>
12    4  0.4207946E-008  0.1987579E+04  0.7818608E-02  0.8612450E-01
         -2   -1    0    0    0  501 -0.00000000000E+00  0.00000000000E+00  0.14014101665E+04  0.14014101665E+04  0.00000000000E+00 0.  1.
          1   -1    0    0  501    0  0.00000000000E+00 -0.00000000000E+00 -0.70473118916E+03  0.70473118916E+03  0.00000000000E+00 0. -1.
        -24    2    1    2    0    0  0.82872522154E+02 -0.10597144344E+03  0.10967177630E+04  0.11075736552E+04  0.76365884362E+02 0.  0.
        254    2    1    2    0    0 -0.82872522154E+02  0.10597144344E+03 -0.40003878563E+03  0.99856770048E+03  0.90499095061E+03 0.  0.
         23    2    4    4    0    0 -0.28567041404E+02 -0.91856161917E+02  0.26262494407E+03  0.29791691198E+03  0.10261089054E+03 0.  0.
         23    2    4    4    0    0 -0.54305480750E+02  0.19782760535E+03 -0.66266372970E+03  0.70065078850E+03  0.98506152531E+02 0.  0.
          3    1    3    3  502    0 -0.82922158891E+01 -0.32680827316E+02  0.36635944904E+03  0.36790765583E+03  0.00000000000E+00 0. -1.
         -4    1    3    3    0  502  0.91164738043E+02 -0.73290616121E+02  0.73035831395E+03  0.73966599938E+03  0.00000000000E+00 0.  1.
         11    1    5    5    0    0 -0.10440469920E+02 -0.47998179526E+01  0.16677585680E+03  0.16717125374E+03  0.00000000000E+00 0. -1.
        -11    1    5    5    0    0 -0.18126571484E+02 -0.87056343964E+02  0.95849087268E+02  0.13074565824E+03  0.00000000000E+00 0.  1.
          4    1    6    6  503    0 -0.39415550563E+02  0.10148375074E+03 -0.49386977107E+03  0.50572708853E+03  0.00000000000E+00 0. -1.
         -4    1    6    6    0  503 -0.14889930186E+02  0.96343854610E+02 -0.16879395863E+03  0.19492369998E+03  0.00000000000E+00 0.  1.
<mgrwt>
<rscale>  0 0.19875789E+04</rscale>
<asrwt>0</asrwt>
<pdfrwt beam="1">  1        1 0.10842018E+00 0.19875789E+04</pdfrwt>
<pdfrwt beam="2">  1       -2 0.21560156E+00 0.19875789E+04</pdfrwt>
<totfact> 0.23109858E+00</totfact>
</mgrwt>
</event>
<event>
12    4  0.4207946E-008  0.1520437E+04  0.7818608E-02  0.8870975E-01
         -2   -1    0    0    0  501 -0.00000000000E+00  0.00000000000E+00  0.37630755005E+03  0.37630755005E+03  0.00000000000E+00 0.  1.
          1   -1    0    0  501    0  0.00000000000E+00 -0.00000000000E+00 -0.15357980275E+04  0.15357980275E+04  0.00000000000E+00 0. -1.
        -24    2    1    2    0    0  0.96019986210E+02 -0.34666227236E+03  0.62645635161E+02  0.37391516279E+03  0.80582284238E+02 0.  0.
        254    2    1    2    0    0 -0.96019986210E+02  0.34666227236E+03 -0.12221361127E+04  0.15381904148E+04  0.86198521188E+03 0.  0.
         23    2    4    4    0    0 -0.12964912694E+03 -0.83186376097E+02  0.54796032229E+02  0.18743448872E+03  0.91652676618E+02 0.  0.
         23    2    4    4    0    0  0.33629140728E+02  0.42984864846E+03 -0.12769321449E+04  0.13507559261E+04  0.89917125737E+02 0.  0.
          1    1    3    3  502    0  0.40186971698E+02 -0.25092426943E+03  0.19101768633E+02  0.25483888881E+03  0.00000000000E+00 0. -1.
         -2    1    3    3    0  502  0.55833014512E+02 -0.95738002929E+02  0.43543866528E+02  0.11907627399E+03  0.00000000000E+00 0.  1.
         11    1    5    5    0    0 -0.39760184621E+02 -0.60211366231E+02  0.60949968320E+02  0.94451995970E+02  0.00000000000E+00 0. -1.
        -11    1    5    5    0    0 -0.89888942318E+02 -0.22975009865E+02 -0.61539360910E+01  0.92982492754E+02  0.00000000000E+00 0.  1.
          1    1    6    6  503    0  0.49139522467E+02  0.24190361359E+03 -0.82264700305E+03  0.85888307852E+03  0.00000000000E+00 0. -1.
         -1    1    6    6    0  503 -0.15510381739E+02  0.18794503487E+03 -0.45428514184E+03  0.49187284756E+03  0.00000000000E+00 0.  1.
<mgrwt>
<rscale>  0 0.15204373E+04</rscale>
<asrwt>0</asrwt>
<pdfrwt beam="1">  1        1 0.23627662E+00 0.15204373E+04</pdfrwt>
<pdfrwt beam="2">  1       -2 0.57893468E-01 0.15204373E+04</pdfrwt>
<totfact> 0.14623084E+01</totfact>
</mgrwt>
</event>
<event>
12    4  0.4207946E-008  0.1598703E+04  0.7818608E-02  0.8821345E-01
          1   -1    0    0  501    0  0.00000000000E+00  0.00000000000E+00  0.26503046383E+04  0.26503046383E+04  0.00000000000E+00 0. -1.
         -2   -1    0    0    0  501 -0.00000000000E+00 -0.00000000000E+00 -0.24109045160E+03  0.24109045160E+03  0.00000000000E+00 0.  1.
        -24    2    1    2    0    0  0.50883617511E+03  0.10343899821E+03  0.96966667695E+03  0.11027872971E+04  0.79198982057E+02 0.  0.
        254    2    1    2    0    0 -0.50883617511E+03 -0.10343899821E+03  0.14395475098E+04  0.17886077928E+04  0.92585469934E+03 0.  0.
         23    2    4    4    0    0 -0.81512845931E+02 -0.81865103507E+02  0.13297027150E+04  0.13379562568E+04  0.93120328919E+02 0.  0.
         23    2    4    4    0    0 -0.42732332918E+03 -0.21573894702E+02  0.10984479480E+03  0.45065153605E+03  0.89164272058E+02 0.  0.
          3    1    3    3  502    0  0.45823928624E+03  0.11595165682E+03  0.85909443959E+03  0.98054642231E+03  0.00000000000E+00 0. -1.
         -4    1    3    3    0  502  0.50596888866E+02 -0.12512658613E+02  0.11057223736E+03  0.12224087477E+03  0.00000000000E+00 0.  1.
         11    1    5    5    0    0 -0.90144062100E+01  0.19172951511E+02  0.11781112147E+03  0.11970096879E+03  0.00000000000E+00 0. -1.
        -11    1    5    5    0    0 -0.72498439721E+02 -0.10103805502E+03  0.12118915935E+04  0.12182552880E+04  0.00000000000E+00 0.  1.
          3    1    6    6  503    0 -0.18724487218E+03 -0.53125802269E+02  0.40926048992E+02  0.19889176582E+03  0.00000000000E+00 0. -1.
         -3    1    6    6    0  503 -0.24007845699E+03  0.31551907567E+02  0.68918745803E+02  0.25175977023E+03  0.00000000000E+00 0.  1.
<mgrwt>
<rscale>  0 0.15987034E+04</rscale>
<asrwt>0</asrwt>
<pdfrwt beam="1">  1        1 0.40773916E+00 0.15987034E+04</pdfrwt>
<pdfrwt beam="2">  1       -2 0.37090841E-01 0.15987034E+04</pdfrwt>
<totfact> 0.61588982E+00</totfact>
</mgrwt>
</event>
<event>
12    4  0.4207946E-008  0.1085024E+04  0.7818608E-02  0.9219913E-01
         -2   -1    0    0    0  501 -0.00000000000E+00  0.00000000000E+00  0.73459448984E+03  0.73459448984E+03  0.00000000000E+00 0.  1.
          1   -1    0    0  501    0  0.00000000000E+00 -0.00000000000E+00 -0.40065544903E+03  0.40065544903E+03  0.00000000000E+00 0. -1.
        -24    2    1    2    0    0 -0.14311327975E+02  0.20605170056E+02 -0.90407860557E+02  0.13944825032E+03  0.10316417075E+03 0.  0.
        254    2    1    2    0    0  0.14311327975E+02 -0.20605170056E+02  0.42434690137E+03  0.99580168855E+03  0.90051170069E+03 0.  0.
         23    2    4    4    0    0 -0.42364392768E+03  0.15655891753E+02  0.10971137140E+03  0.44714353551E+03  0.90451489354E+02 0.  0.
         23    2    4    4    0    0  0.43795525566E+03 -0.36261061810E+02  0.31463552997E+03  0.54865815304E+03  0.94395877110E+02 0.  0.
          1    1    3    3  502    0 -0.10556909416E+02 -0.27063101818E+02 -0.86759290079E+02  0.91493356215E+02  0.00000000000E+00 0. -1.
         -2    1    3    3    0  502 -0.37544185596E+01  0.47668271874E+02 -0.36485704773E+01  0.47954894106E+02  0.00000000000E+00 0.  1.
         11    1    5    5    0    0 -0.35078332692E+03  0.44050365875E+02  0.74108347805E+02  0.36122212611E+03  0.00000000000E+00 0.  1.
        -11    1    5    5    0    0 -0.72860600765E+02 -0.28394474122E+02  0.35603023593E+02  0.85921409401E+02  0.00000000000E+00 0. -1.
          4    1    6    6  503    0  0.28198354962E+03 -0.50085876654E+02  0.24659143326E+03  0.37792942761E+03  0.00000000000E+00 0.  1.
         -4    1    6    6    0  503  0.15597170603E+03  0.13824814844E+02  0.68044096711E+02  0.17072872543E+03  0.00000000000E+00 0. -1.
<mgrwt>
<rscale>  0 0.10850240E+04</rscale>
<asrwt>0</asrwt>
<pdfrwt beam="1">  1        1 0.61639300E-01 0.10850240E+04</pdfrwt>
<pdfrwt beam="2">  1       -2 0.11301454E+00 0.10850240E+04</pdfrwt>
<totfact> 0.32090393E+01</totfact>
</mgrwt>
</event>
<event>
12    4  0.4207946E-008  0.1327363E+04  0.7818608E-02  0.9008143E-01
          1   -1    0    0  501    0  0.00000000000E+00  0.00000000000E+00  0.79260759578E+03  0.79260759578E+03  0.00000000000E+00 0. -1.
         -2   -1    0    0    0  501 -0.00000000000E+00 -0.00000000000E+00 -0.55572694794E+03  0.55572694794E+03  0.00000000000E+00 0.  1.
        -24    2    1    2    0    0  0.37010905951E+01 -0.16824598305E+03  0.37672977614E+03  0.42358247849E+03  0.95793439062E+02 0.  0.
        254    2    1    2    0    0 -0.37010905951E+01  0.16824598305E+03 -0.13984912830E+03  0.92475206524E+03  0.89849217837E+03 0.  0.
         23    2    4    4    0    0 -0.50550337001E+02 -0.23119449249E+03  0.25062172824E+03  0.35736265383E+03  0.94289902752E+02 0.  0.
         23    2    4    4    0    0  0.46849246406E+02  0.39944047554E+03 -0.39047085654E+03  0.56738941141E+03  0.87839108503E+02 0.  0.
          3    1    3    3  502    0  0.46533303700E+02 -0.79257311777E+02  0.21874665123E+03  0.23727024096E+03  0.00000000000E+00 0. -1.
         -4    1    3    3    0  502 -0.42832213105E+02 -0.88988671275E+02  0.15798312491E+03  0.18631223753E+03  0.00000000000E+00 0.  1.
         11    1    5    5    0    0 -0.37395413444E+02 -0.46140217155E+02  0.22941639221E+02  0.63668323332E+02  0.00000000000E+00 0. -1.
        -11    1    5    5    0    0 -0.13154923557E+02 -0.18505427533E+03  0.22768008902E+03  0.29369433050E+03  0.00000000000E+00 0.  1.
          1    1    6    6  503    0 -0.21474714867E+02  0.75969370382E+02 -0.53817350864E+02  0.95544836956E+02  0.00000000000E+00 0. -1.
         -1    1    6    6    0  503  0.68323961273E+02  0.32347110516E+03 -0.33665350568E+03  0.47184457445E+03  0.00000000000E+00 0.  1.
<mgrwt>
<rscale>  0 0.13273634E+04</rscale>
<asrwt>0</asrwt>
<pdfrwt beam="1">  1        1 0.12193963E+00 0.13273634E+04</pdfrwt>
<pdfrwt beam="2">  1       -2 0.85496453E-01 0.13273634E+04</pdfrwt>
<totfact> 0.22923806E+01</totfact>
</mgrwt>
</event>
<event>
12    4  0.4207946E-008  0.1494951E+04  0.7818608E-02  0.8887817E-01
          1   -1    0    0  501    0  0.00000000000E+00  0.00000000000E+00  0.28563158413E+03  0.28563158413E+03  0.00000000000E+00 0. -1.
         -2   -1    0    0    0  501 -0.00000000000E+00 -0.00000000000E+00 -0.19560852691E+04  0.19560852691E+04  0.00000000000E+00 0.  1.
        -24    2    1    2    0    0 -0.19349801617E+03  0.36410235731E+03 -0.19387360308E+03  0.46223873950E+03  0.77882407881E+02 0.  0.
        254    2    1    2    0    0  0.19349801617E+03 -0.36410235731E+03 -0.14765800819E+04  0.17794781138E+04  0.90346090685E+03 0.  0.
         23    2    4    4    0    0 -0.11598446354E+03  0.23746805498E+03 -0.24447607065E+03  0.37075698074E+03  0.88592983484E+02 0.  0.
         23    2    4    4    0    0  0.30948247971E+03 -0.60157041229E+03 -0.12321040113E+04  0.14087211330E+04  0.93533790065E+02 0.  0.
          3    1    3    3  502    0 -0.15807554624E+03  0.34302761301E+03 -0.16656321331E+03  0.41279428973E+03  0.00000000000E+00 0. -1.
         -4    1    3    3    0  502 -0.35422469931E+02  0.21074744308E+02 -0.27310389770E+02  0.49444449769E+02  0.00000000000E+00 0.  1.
         11    1    5    5    0    0 -0.72415404497E+02  0.22011546202E+03 -0.19928574036E+03  0.30562986395E+03  0.00000000000E+00 0.  1.
        -11    1    5    5    0    0 -0.43569059047E+02  0.17352592964E+02 -0.45190330293E+02  0.65127116785E+02  0.00000000000E+00 0. -1.
          4    1    6    6  503    0  0.14175603494E+03 -0.37429812890E+03 -0.74070366470E+03  0.84192385739E+03  0.00000000000E+00 0.  1.
         -4    1    6    6    0  503  0.16772644477E+03 -0.22727228339E+03 -0.49140034656E+03  0.56679727564E+03  0.00000000000E+00 0. -1.
<mgrwt>
<rscale>  0 0.14949511E+04</rscale>
<asrwt>0</asrwt>
<pdfrwt beam="1">  1        1 0.43943321E-01 0.14949511E+04</pdfrwt>
<pdfrwt beam="2">  1       -2 0.30093619E+00 0.14949511E+04</pdfrwt>
<totfact> 0.24872096E+00</totfact>
</mgrwt>
</event>
<event>
12    4  0.4207946E-008  0.1416173E+04  0.7818608E-02  0.8942194E-01
          1   -1    0    0  501    0  0.00000000000E+00  0.00000000000E+00  0.10889227794E+04  0.10889227794E+04  0.00000000000E+00 0. -1.
         -2   -1    0    0    0  501 -0.00000000000E+00 -0.00000000000E+00 -0.46044255332E+03  0.46044255332E+03  0.00000000000E+00 0.  1.
        -24    2    1    2    0    0 -0.65570066498E+02 -0.40541949879E+03  0.25373902415E+03  0.48931465498E+03  0.79880758525E+02 0.  0.
        254    2    1    2    0    0  0.65570066498E+02  0.40541949879E+03  0.37474120189E+03  0.10600506777E+04  0.90255862263E+03 0.  0.
         23    2    4    4    0    0 -0.40070686387E+03  0.15508315981E+03  0.26106400056E+03  0.51085077686E+03  0.90539088896E+02 0.  0.
         23    2    4    4    0    0  0.46627693036E+03  0.25033633897E+03  0.11367720132E+03  0.54919990085E+03  0.92820076443E+02 0.  0.
          3    1    3    3  502    0 -0.30754375920E+01 -0.21930025635E+03  0.10592848563E+03  0.24356293811E+03  0.00000000000E+00 0. -1.
         -4    1    3    3    0  502 -0.62494628906E+02 -0.18611924244E+03  0.14781053852E+03  0.24575171687E+03  0.00000000000E+00 0.  1.
         11    1    5    5    0    0 -0.94124303604E+02  0.18783399199E+02  0.20876444957E+02  0.98224368506E+02  0.00000000000E+00 0. -1.
        -11    1    5    5    0    0 -0.30658256026E+03  0.13629976061E+03  0.24018755561E+03  0.41262640835E+03  0.00000000000E+00 0.  1.
          3    1    6    6  503    0  0.42079785831E+03  0.21624788341E+03  0.12890781429E+03  0.49035824580E+03  0.00000000000E+00 0. -1.
         -3    1    6    6    0  503  0.45479072052E+02  0.34088455565E+02 -0.15230612967E+02  0.58841655049E+02  0.00000000000E+00 0.  1.
<mgrwt>
<rscale>  0 0.14161728E+04</rscale>
<asrwt>0</asrwt>
<pdfrwt beam="1">  1        1 0.16752658E+00 0.14161728E+04</pdfrwt>
<pdfrwt beam="2">  1       -2 0.70837316E-01 0.14161728E+04</pdfrwt>
<totfact> 0.19990597E+01</totfact>
</mgrwt>
</event>
<event>
12    4  0.4207946E-008  0.1641370E+04  0.7818608E-02  0.8795528E-01
         -2   -1    0    0    0  501 -0.00000000000E+00  0.00000000000E+00  0.72877477437E+03  0.72877477437E+03  0.00000000000E+00 0.  1.
          1   -1    0    0  501    0  0.00000000000E+00 -0.00000000000E+00 -0.92418622185E+03  0.92418622185E+03  0.00000000000E+00 0. -1.
        -24    2    1    2    0    0  0.21177521660E+03 -0.31547876386E+03 -0.46258484884E+03  0.60384801127E+03  0.79196499509E+02 0.  0.
        254    2    1    2    0    0 -0.21177521660E+03  0.31547876386E+03  0.26717340136E+03  0.10491129849E+04  0.94068104902E+03 0.  0.
         23    2    4    4    0    0 -0.28317992576E+03  0.67139374547E+02 -0.29337477667E+03  0.42374500342E+03  0.93768344152E+02 0.  0.
         23    2    4    4    0    0  0.71404709161E+02  0.24833938931E+03  0.56054817803E+03  0.62536798153E+03  0.10049760024E+03 0.  0.
          3    1    3    3  502    0  0.15470924474E+03 -0.21282729369E+03 -0.26140500590E+03  0.37089484286E+03  0.00000000000E+00 0. -1.
         -4    1    3    3    0  502  0.57065971860E+02 -0.10265147017E+03 -0.20117984293E+03  0.23295316841E+03  0.00000000000E+00 0.  1.
         11    1    5    5    0    0 -0.52050169923E+02 -0.71590831181E+01 -0.15556545881E+02  0.54794879139E+02  0.00000000000E+00 0.  1.
        -11    1    5    5    0    0 -0.23112975584E+03  0.74298457665E+02 -0.27781823079E+03  0.36895012428E+03  0.00000000000E+00 0. -1.
          4    1    6    6  503    0  0.88320872270E+01  0.37349246257E+02  0.23561597753E+02  0.45034662754E+02  0.00000000000E+00 0.  1.
         -4    1    6    6    0  503  0.62572621934E+02  0.21099014305E+03  0.53698658028E+03  0.58033331877E+03  0.00000000000E+00 0. -1.
<mgrwt>
<rscale>  0 0.16413697E+04</rscale>
<asrwt>0</asrwt>
<pdfrwt beam="1">  1        1 0.14218250E+00 0.16413697E+04</pdfrwt>
<pdfrwt beam="2">  1       -2 0.11211920E+00 0.16413697E+04</pdfrwt>
<totfact> 0.91407050E+00</totfact>
</mgrwt>
</event>
<event>
12    4  0.4207946E-008  0.2553691E+04  0.7818608E-02  0.8384104E-01
         -2   -1    0    0    0  501 -0.00000000000E+00  0.00000000000E+00  0.57424587682E+03  0.57424587682E+03  0.00000000000E+00 0.  1.
          1   -1    0    0  501    0  0.00000000000E+00 -0.00000000000E+00 -0.28390870568E+04  0.28390870568E+04  0.00000000000E+00 0. -1.
        -24    2    1    2    0    0  0.79584383858E+03  0.63606940851E+03 -0.15975605563E+04  0.18964483199E+04  0.79779640903E+02 0.  0.
        254    2    1    2    0    0 -0.79584383858E+03 -0.63606940851E+03 -0.66728062376E+03  0.15168846138E+04  0.90428081529E+03 0.  0.
         23    2    4    4    0    0 -0.65120647355E+03 -0.55833297400E+02 -0.62715495765E+03  0.91014630126E+03  0.88632502514E+02 0.  0.
         23    2    4    4    0    0 -0.14463736503E+03 -0.58023611111E+03 -0.40125666105E+02  0.60673831254E+03  0.94484913211E+02 0.  0.
          3    1    3    3  502    0  0.48385030765E+03  0.38863050026E+03 -0.10442852724E+04  0.12147742655E+04  0.00000000000E+00 0. -1.
         -4    1    3    3    0  502  0.31199353093E+03  0.24743890825E+03 -0.55327528384E+03  0.68167405434E+03  0.00000000000E+00 0.  1.
         11    1    5    5    0    0 -0.42896001311E+03 -0.17541120175E+02 -0.35798648090E+03  0.55898900191E+03  0.00000000000E+00 0.  1.
        -11    1    5    5    0    0 -0.22224646044E+03 -0.38292177225E+02 -0.26916847675E+03  0.35115729936E+03  0.00000000000E+00 0. -1.
          1    1    6    6  503    0 -0.12186132396E+02 -0.77039140477E+02  0.26000317772E+02  0.82216467404E+02  0.00000000000E+00 0. -1.
         -1    1    6    6    0  503 -0.13245123264E+03 -0.50319697063E+03 -0.66125983877E+02  0.52452184514E+03  0.00000000000E+00 0.  1.
<mgrwt>
<rscale>  0 0.25536907E+04</rscale>
<asrwt>0</asrwt>
<pdfrwt beam="1">  1        1 0.43678263E+00 0.25536907E+04</pdfrwt>
<pdfrwt beam="2">  1       -2 0.88345518E-01 0.25536907E+04</pdfrwt>
<totfact> 0.67008119E-01</totfact>
</mgrwt>
</event>
<event>
12    4  0.4207946E-008  0.1627370E+04  0.7818608E-02  0.8803908E-01
          1   -1    0    0  501    0  0.00000000000E+00  0.00000000000E+00  0.14923843541E+04  0.14923843541E+04  0.00000000000E+00 0. -1.
         -2   -1    0    0    0  501 -0.00000000000E+00 -0.00000000000E+00 -0.44364148758E+03  0.44364148758E+03  0.00000000000E+00 0.  1.
        -24    2    1    2    0    0 -0.26628577864E+03  0.22746739854E+02  0.96141431653E+03  0.10012415108E+04  0.82106910812E+02 0.  0.
        254    2    1    2    0    0  0.26628577864E+03 -0.22746739854E+02  0.87328550020E+02  0.93478433093E+03  0.89149870422E+03 0.  0.
         23    2    4    4    0    0  0.12157637241E+03  0.41431267704E+02 -0.39176584759E+03  0.42219184277E+03  0.90929139954E+02 0.  0.
         23    2    4    4    0    0  0.14470940623E+03 -0.64178007559E+02  0.47909439761E+03  0.51259248817E+03  0.90332653028E+02 0.  0.
          3    1    3    3  502    0 -0.27194862127E+03  0.25152236618E+02  0.94631112481E+03  0.98493321224E+03  0.00000000000E+00 0. -1.
         -4    1    3    3    0  502  0.56628426360E+01 -0.24054967641E+01  0.15103191715E+02  0.16308298544E+02  0.00000000000E+00 0.  1.
         11    1    5    5    0    0  0.10592394806E+03  0.39867196776E+02 -0.39031723532E+03  0.40639490688E+03  0.00000000000E+00 0. -1.
        -11    1    5    5    0    0  0.15652424347E+02  0.15640709280E+01 -0.14486122638E+01  0.15796935883E+02  0.00000000000E+00 0.  1.
          3    1    6    6  503    0  0.12401227328E+03 -0.34161058357E+02  0.44296285307E+03  0.46126143458E+03  0.00000000000E+00 0. -1.
         -3    1    6    6    0  503  0.20697132949E+02 -0.30016949202E+02  0.36131544535E+02  0.51331053585E+02  0.00000000000E+00 0.  1.
<mgrwt>
<rscale>  0 0.16273704E+04</rscale>
<asrwt>0</asrwt>
<pdfrwt beam="1">  1        1 0.22959759E+00 0.16273704E+04</pdfrwt>
<pdfrwt beam="2">  1       -2 0.68252537E-01 0.16273704E+04</pdfrwt>
<totfact> 0.10926810E+01</totfact>
</mgrwt>
</event>
<event>
12    4  0.4207946E-008  0.1420065E+04  0.7818608E-02  0.8939421E-01
         -2   -1    0    0    0  501 -0.00000000000E+00  0.00000000000E+00  0.54838418712E+03  0.54838418712E+03  0.00000000000E+00 0.  1.
          1   -1    0    0  501    0  0.00000000000E+00 -0.00000000000E+00 -0.91933044402E+03  0.91933044402E+03  0.00000000000E+00 0. -1.
        -24    2    1    2    0    0  0.22488027053E+03 -0.16090291250E+03 -0.45161836844E+03  0.53548612652E+03  0.79532117140E+02 0.  0.
        254    2    1    2    0    0 -0.22488027053E+03  0.16090291250E+03  0.80672111543E+02  0.93222850463E+03  0.88661215418E+03 0.  0.
         23    2    4    4    0    0  0.18287101912E+03  0.16542695822E+03 -0.27741297342E+03  0.38201237651E+03  0.90374829695E+02 0.  0.
         23    2    4    4    0    0 -0.40775128965E+03 -0.45240457268E+01  0.35808508496E+03  0.55021612812E+03  0.90726392926E+02 0.  0.
          1    1    3    3  502    0  0.19789111494E+03 -0.10138471066E+03 -0.35190280394E+03  0.41626354194E+03  0.00000000000E+00 0. -1.
         -2    1    3    3    0  502  0.26989155587E+02 -0.59518201841E+02 -0.99715564507E+02  0.11922258458E+03  0.00000000000E+00 0.  1.
         11    1    5    5    0    0  0.17503987257E+03  0.13937782428E+03 -0.27525531051E+03  0.35472612091E+03  0.00000000000E+00 0. -1.
        -11    1    5    5    0    0  0.78311465492E+01  0.26049133940E+02 -0.21576629084E+01  0.27286255597E+02  0.00000000000E+00 0.  1.
          4    1    6    6  503    0 -0.36897143557E+03  0.22890578080E+02  0.32612516720E+03  0.49297213259E+03  0.00000000000E+00 0. -1.
         -4    1    6    6    0  503 -0.38779854081E+02 -0.27414623807E+02  0.31959917761E+02  0.57243995531E+02  0.00000000000E+00 0.  1.
<mgrwt>
<rscale>  0 0.14200652E+04</rscale>
<asrwt>0</asrwt>
<pdfrwt beam="1">  1        1 0.14143545E+00 0.14200652E+04</pdfrwt>
<pdfrwt beam="2">  1       -2 0.84366800E-01 0.14200652E+04</pdfrwt>
<totfact> 0.18350868E+01</totfact>
</mgrwt>
</event>
<event>
12    4  0.4207946E-008  0.2334576E+04  0.7818608E-02  0.8464412E-01
          1   -1    0    0  501    0  0.00000000000E+00  0.00000000000E+00  0.96041100479E+03  0.96041100479E+03  0.00000000000E+00 0. -1.
         -2   -1    0    0    0  501 -0.00000000000E+00 -0.00000000000E+00 -0.14187274630E+04  0.14187274630E+04  0.00000000000E+00 0.  1.
        -24    2    1    2    0    0  0.48255222802E+03 -0.13240555129E+03  0.67672471589E+03  0.84533846245E+03  0.79075231364E+02 0.  0.
        254    2    1    2    0    0 -0.48255222802E+03  0.13240555129E+03 -0.11350411741E+04  0.15338000053E+04  0.90212865307E+03 0.  0.
         23    2    4    4    0    0 -0.44882828331E+03  0.26341272626E+03 -0.16903916506E+03  0.55418420851E+03  0.87822578991E+02 0.  0.
         23    2    4    4    0    0 -0.33723944710E+02 -0.13100717497E+03 -0.96600200906E+03  0.97961579684E+03  0.90482283240E+02 0.  0.
          3    1    3    3  502    0  0.45279301530E+03 -0.11640381679E+03  0.65651451937E+03  0.80596692079E+03  0.00000000000E+00 0. -1.
         -4    1    3    3    0  502  0.29759212726E+02 -0.16001734499E+02  0.20210196518E+02  0.39371541656E+02  0.00000000000E+00 0.  1.
         11    1    5    5    0    0 -0.23838532046E+02  0.36673549003E+02 -0.29247972322E+02  0.52618140327E+02  0.00000000000E+00 0. -1.
        -11    1    5    5    0    0 -0.42498975127E+03  0.22673917726E+03 -0.13979119274E+03  0.50156606818E+03  0.00000000000E+00 0.  1.
          4    1    6    6  503    0 -0.62680179352E+02 -0.85702195717E+02 -0.55016320070E+03  0.56031528503E+03  0.00000000000E+00 0. -1.
         -4    1    6    6    0  503  0.28956234642E+02 -0.45304979251E+02 -0.41583880836E+03  0.41930051181E+03  0.00000000000E+00 0.  1.
<mgrwt>
<rscale>  0 0.23345762E+04</rscale>
<asrwt>0</asrwt>
<pdfrwt beam="1">  1        1 0.14775554E+00 0.23345762E+04</pdfrwt>
<pdfrwt beam="2">  1       -2 0.21826576E+00 0.23345762E+04</pdfrwt>
<totfact> 0.13023062E+00</totfact>
</mgrwt>
</event>
<event>
12    4  0.4207946E-008  0.2436573E+04  0.7818608E-02  0.8425937E-01
          1   -1    0    0  501    0  0.00000000000E+00  0.00000000000E+00  0.19302711091E+04  0.19302711091E+04  0.00000000000E+00 0. -1.
         -2   -1    0    0    0  501 -0.00000000000E+00 -0.00000000000E+00 -0.76891891756E+03  0.76891891756E+03  0.00000000000E+00 0.  1.
        -24    2    1    2    0    0  0.74821865997E+03 -0.63349381747E+03  0.10292917933E+03  0.98856784672E+03  0.74339704804E+02 0.  0.
        254    2    1    2    0    0 -0.74821865997E+03  0.63349381747E+03  0.10584230122E+04  0.17106221799E+04  0.91914274724E+03 0.  0.
         23    2    4    4    0    0 -0.67387851649E+03 -0.29723815655E+01  0.40722830412E+03  0.79248364754E+03  0.89857386528E+02 0.  0.
         23    2    4    4    0    0 -0.74340143480E+02  0.63646619904E+03  0.65119470806E+03  0.91813853237E+03  0.91148984465E+02 0.  0.
          1    1    3    3  502    0  0.74731994472E+03 -0.62931266696E+03  0.97784067112E+02  0.98187741412E+03  0.00000000000E+00 0. -1.
         -2    1    3    3    0  502  0.89871524964E+00 -0.41811505092E+01  0.51451122158E+01  0.66904326014E+01  0.00000000000E+00 0.  1.
         11    1    5    5    0    0 -0.44097045565E+03  0.94778168787E+01  0.21730155050E+03  0.49169577547E+03  0.00000000000E+00 0. -1.
        -11    1    5    5    0    0 -0.23290806084E+03 -0.12450198444E+02  0.18992675362E+03  0.30078787207E+03  0.00000000000E+00 0.  1.
          4    1    6    6  503    0  0.47737485201E+01  0.24861821946E+01 -0.62447975045E+00  0.54184639703E+01  0.00000000000E+00 0. -1.
         -4    1    6    6    0  503 -0.79113892000E+02  0.63398001684E+03  0.65181918781E+03  0.91272006840E+03  0.00000000000E+00 0.  1.
<mgrwt>
<rscale>  0 0.24365730E+04</rscale>
<asrwt>0</asrwt>
<pdfrwt beam="1">  1        1 0.29696478E+00 0.24365730E+04</pdfrwt>
<pdfrwt beam="2">  1       -2 0.11829522E+00 0.24365730E+04</pdfrwt>
<totfact> 0.14350067E+00</totfact>
</mgrwt>
</event>
<event>
12    4  0.4207946E-008  0.2011581E+04  0.7818608E-02  0.8601225E-01
          1   -1    0    0  501    0  0.00000000000E+00  0.00000000000E+00  0.11097698076E+04  0.11097698076E+04  0.00000000000E+00 0. -1.
         -2   -1    0    0    0  501 -0.00000000000E+00 -0.00000000000E+00 -0.91155341003E+03  0.91155341003E+03  0.00000000000E+00 0.  1.
        -24    2    1    2    0    0 -0.30524030199E+03  0.58045901980E+03  0.53885601986E+03  0.85260723424E+03  0.80429908089E+02 0.  0.
        254    2    1    2    0    0  0.30524030199E+03 -0.58045901980E+03 -0.34063962233E+03  0.11687159833E+04  0.90540454041E+03 0.  0.
         23    2    4    4    0    0 -0.91324607785E+02 -0.24275712846E+03  0.25257054111E+03  0.37409803323E+03  0.94266923289E+02 0.  0.
         23    2    4    4    0    0  0.39656490978E+03 -0.33770189134E+03 -0.59321016344E+03  0.79461795011E+03  0.90626119554E+02 0.  0.
          1    1    3    3  502    0 -0.15713533771E+03  0.34854377149E+03  0.27131868705E+03  0.46881564067E+03  0.00000000000E+00 0. -1.
         -2    1    3    3    0  502 -0.14810496429E+03  0.23191524831E+03  0.26753733281E+03  0.38379159357E+03  0.00000000000E+00 0.  1.
         11    1    5    5    0    0 -0.83621333349E+02 -0.25077790413E+03  0.23751597739E+03  0.35538137840E+03  0.00000000000E+00 0. -1.
        -11    1    5    5    0    0 -0.77032744355E+01  0.80207756772E+01  0.15054563719E+02  0.18716654836E+02  0.00000000000E+00 0.  1.
          3    1    6    6  503    0  0.36641966047E+03 -0.29607985509E+03 -0.56622713246E+03  0.73657301994E+03  0.00000000000E+00 0. -1.
         -3    1    6    6    0  503  0.30145249308E+02 -0.41622036256E+02 -0.26983030983E+02  0.58044930175E+02  0.00000000000E+00 0.  1.
<mgrwt>
<rscale>  0 0.20115809E+04</rscale>
<asrwt>0</asrwt>
<pdfrwt beam="1">  1        1 0.17073382E+00 0.20115809E+04</pdfrwt>
<pdfrwt beam="2">  1       -2 0.14023899E+00 0.20115809E+04</pdfrwt>
<totfact> 0.36224821E+00</totfact>
</mgrwt>
</event>
<event>
12    4  0.4207946E-008  0.1435971E+04  0.7818608E-02  0.8928185E-01
          1   -1    0    0  501    0  0.00000000000E+00  0.00000000000E+00  0.98482855609E+03  0.98482855609E+03  0.00000000000E+00 0. -1.
         -2   -1    0    0    0  501 -0.00000000000E+00 -0.00000000000E+00 -0.52344467494E+03  0.52344467494E+03  0.00000000000E+00 0.  1.
        -24    2    1    2    0    0  0.15062728587E+03  0.14621935728E+02  0.56317416391E+03  0.58851845230E+03  0.79287133618E+02 0.  0.
        254    2    1    2    0    0 -0.15062728587E+03 -0.14621935728E+02 -0.10179028275E+03  0.91975477873E+03  0.90149054963E+03 0.  0.
         23    2    4    4    0    0  0.29496576737E+03  0.24081267584E+03 -0.29079288119E+02  0.39301453030E+03  0.92840008968E+02 0.  0.
         23    2    4    4    0    0 -0.44559305324E+03 -0.25543461157E+03 -0.72710994628E+02  0.52674024842E+03  0.91478908404E+02 0.  0.
          1    1    3    3  502    0  0.15962061253E+03  0.13597570561E+02  0.54708923763E+03  0.57006163509E+03  0.00000000000E+00 0. -1.
         -2    1    3    3    0  502 -0.89933266596E+01  0.10243651671E+01  0.16084926280E+02  0.18456817218E+02  0.00000000000E+00 0.  1.
         11    1    5    5    0    0  0.40556812596E+01  0.35737328088E+02 -0.99481151990E+00  0.35980478309E+02  0.00000000000E+00 0.  1.
        -11    1    5    5    0    0  0.29091008611E+03  0.20507534775E+03 -0.28084476599E+02  0.35703405200E+03  0.00000000000E+00 0. -1.
          3    1    6    6  503    0 -0.20642788329E+03 -0.17101161335E+03 -0.35986682416E+02  0.27046715921E+03  0.00000000000E+00 0. -1.
         -3    1    6    6    0  503 -0.23916516995E+03 -0.84422998219E+02 -0.36724312213E+02  0.25627308921E+03  0.00000000000E+00 0.  1.
<mgrwt>
<rscale>  0 0.14359711E+04</rscale>
<asrwt>0</asrwt>
<pdfrwt beam="1">  1        1 0.15151209E+00 0.14359711E+04</pdfrwt>
<pdfrwt beam="2">  1       -2 0.80529950E-01 0.14359711E+04</pdfrwt>
<totfact> 0.18054023E+01</totfact>
</mgrwt>
</event>
<event>
12    4  0.4207946E-008  0.2151187E+04  0.7818608E-02  0.8539025E-01
         -2   -1    0    0    0  501 -0.00000000000E+00  0.00000000000E+00  0.10187492876E+04  0.10187492876E+04  0.00000000000E+00 0.  1.
          1   -1    0    0  501    0  0.00000000000E+00 -0.00000000000E+00 -0.11356090686E+04  0.11356090686E+04  0.00000000000E+00 0. -1.
        -24    2    1    2    0    0  0.53088809846E+03  0.45929497455E+03 -0.58346649913E+03  0.91637121170E+03  0.80678344617E+02 0.  0.
        254    2    1    2    0    0 -0.53088809846E+03 -0.45929497455E+03  0.46660671819E+03  0.12379871445E+04  0.90669525963E+03 0.  0.
         23    2    4    4    0    0  0.18991357831E+03 -0.35098093090E+03  0.12117291455E+03  0.42674992171E+03  0.90431407069E+02 0.  0.
         23    2    4    4    0    0 -0.72080167677E+03 -0.10831404366E+03  0.34543380364E+03  0.81123722281E+03  0.86569796677E+02 0.  0.
          1    1    3    3  502    0  0.34964768947E+03  0.33813449249E+03 -0.43562640181E+03  0.65296156374E+03  0.00000000000E+00 0. -1.
         -2    1    3    3    0  502  0.18124040899E+03  0.12116048206E+03 -0.14784009732E+03  0.26340964796E+03  0.00000000000E+00 0.  1.
         11    1    5    5    0    0 -0.95465339036E+01 -0.27943603025E+02  0.84362147200E+01  0.30710763234E+02  0.00000000000E+00 0.  1.
        -11    1    5    5    0    0  0.19946011221E+03 -0.32303732787E+03  0.11273669983E+03  0.39603915848E+03  0.00000000000E+00 0. -1.
          4    1    6    6  503    0 -0.58345684029E+03 -0.12056295334E+03  0.27070069366E+03  0.65439756704E+03  0.00000000000E+00 0. -1.
         -4    1    6    6    0  503 -0.13734483648E+03  0.12248909689E+02  0.74733109982E+02  0.15683965578E+03  0.00000000000E+00 0.  1.
<mgrwt>
<rscale>  0 0.21511866E+04</rscale>
<asrwt>0</asrwt>
<pdfrwt beam="1">  1        1 0.17470909E+00 0.21511866E+04</pdfrwt>
<pdfrwt beam="2">  1       -2 0.15673066E+00 0.21511866E+04</pdfrwt>
<totfact> 0.25508257E+00</totfact>
</mgrwt>
</event>
<event>
12    4  0.4207946E-008  0.3348014E+04  0.7818608E-02  0.8150784E-01
          1   -1    0    0  501    0  0.00000000000E+00  0.00000000000E+00  0.17830130358E+04  0.17830130358E+04  0.00000000000E+00 0. -1.
         -2   -1    0    0    0  501 -0.00000000000E+00 -0.00000000000E+00 -0.15716655203E+04  0.15716655203E+04  0.00000000000E+00 0.  1.
        -24    2    1    2    0    0 -0.27626742399E+03 -0.11263939441E+04 -0.94745313545E+03  0.14997355345E+04  0.80325729166E+02 0.  0.
        254    2    1    2    0    0  0.27626742399E+03  0.11263939441E+04  0.11588006509E+04  0.18549430217E+04  0.86770251714E+03 0.  0.
         23    2    4    4    0    0  0.45658597102E+03  0.96713474857E+03  0.57629228408E+03  0.12182286433E+04  0.90265496907E+02 0.  0.
         23    2    4    4    0    0 -0.18031854703E+03  0.15925919549E+03  0.58250836683E+03  0.63671437831E+03  0.90614195207E+02 0.  0.
          1    1    3    3  502    0 -0.63517316354E+02 -0.23442245083E+03 -0.15813765679E+03  0.28982038131E+03  0.00000000000E+00 0. -1.
         -2    1    3    3    0  502 -0.21275010763E+03 -0.89197149323E+03 -0.78931547866E+03  0.12099151532E+04  0.00000000000E+00 0.  1.
         11    1    5    5    0    0  0.10656323050E+03  0.18394947423E+03  0.79819952482E+02  0.22707786325E+03  0.00000000000E+00 0. -1.
        -11    1    5    5    0    0  0.35002274053E+03  0.78318527434E+03  0.49647233160E+03  0.99115078009E+03  0.00000000000E+00 0.  1.
          1    1    6    6  503    0 -0.23366329672E+02  0.57594973792E+02  0.22272339074E+03  0.23123337811E+03  0.00000000000E+00 0. -1.
         -1    1    6    6    0  503 -0.15695221736E+03  0.10166422170E+03  0.35978497609E+03  0.40548100020E+03  0.00000000000E+00 0.  1.
<mgrwt>
<rscale>  0 0.33480144E+04</rscale>
<asrwt>0</asrwt>
<pdfrwt beam="1">  1        1 0.27430970E+00 0.33480144E+04</pdfrwt>
<pdfrwt beam="2">  1       -2 0.24179470E+00 0.33480144E+04</pdfrwt>
<totfact> 0.21938208E-01</totfact>
</mgrwt>
</event>
<event>
12    4  0.4207946E-008  0.2980272E+04  0.7818608E-02  0.8249387E-01
          1   -1    0    0  501    0  0.00000000000E+00  0.00000000000E+00  0.38452666072E+04  0.38452666072E+04  0.00000000000E+00 0. -1.
         -2   -1    0    0    0  501 -0.00000000000E+00 -0.00000000000E+00 -0.57746464358E+03  0.57746464358E+03  0.00000000000E+00 0.  1.
        -24    2    1    2    0    0 -0.50966732137E+03  0.77003599779E+03  0.42196874780E+01  0.92687397346E+03  0.79758012474E+02 0.  0.
        254    2    1    2    0    0  0.50966732137E+03 -0.77003599779E+03  0.32635822761E+04  0.34958572773E+04  0.84695490666E+03 0.  0.
         23    2    4    4    0    0  0.87863227864E+02 -0.77708849016E+03  0.16960948502E+04  0.18700112493E+04  0.92832447139E+02 0.  0.
         23    2    4    4    0    0  0.42180409350E+03  0.70524923627E+01  0.15674874259E+04  0.16258460280E+04  0.91597191339E+02 0.  0.
          3    1    3    3  502    0 -0.43604320875E+02  0.10814934798E+03 -0.11798055731E+02  0.11720414833E+03  0.00000000000E+00 0. -1.
         -4    1    3    3    0  502 -0.46606300049E+03  0.66188664981E+03  0.16017743209E+02  0.80966982513E+03  0.00000000000E+00 0.  1.
         11    1    5    5    0    0  0.25794455391E+02 -0.91573792036E+02  0.27506698297E+03  0.29105490623E+03  0.00000000000E+00 0.  1.
        -11    1    5    5    0    0  0.62068772473E+02 -0.68551469812E+03  0.14210278672E+04  0.15789563431E+04  0.00000000000E+00 0. -1.
          4    1    6    6  503    0  0.26246962779E+03 -0.14723492758E+01  0.80035148774E+03  0.84229150373E+03  0.00000000000E+00 0.  1.
         -4    1    6    6    0  503  0.15933446571E+03  0.85248416385E+01  0.76713593816E+03  0.78355452427E+03  0.00000000000E+00 0. -1.
<mgrwt>
<rscale>  0 0.29802721E+04</rscale>
<asrwt>0</asrwt>
<pdfrwt beam="1">  1        1 0.59157946E+00 0.29802721E+04</pdfrwt>
<pdfrwt beam="2">  1       -2 0.88840717E-01 0.29802721E+04</pdfrwt>
<totfact> 0.10657855E-01</totfact>
</mgrwt>
</event>
<event>
12    4  0.4207946E-008  0.2549571E+04  0.7818608E-02  0.8385536E-01
          1   -1    0    0  501    0  0.00000000000E+00  0.00000000000E+00  0.19906303087E+04  0.19906303087E+04  0.00000000000E+00 0. -1.
         -2   -1    0    0    0  501 -0.00000000000E+00 -0.00000000000E+00 -0.81636331672E+03  0.81636331672E+03  0.00000000000E+00 0.  1.
        -24    2    1    2    0    0 -0.88830157609E+03 -0.47860307846E+02  0.12414619124E+04  0.15294942509E+04  0.82186886916E+02 0.  0.
        254    2    1    2    0    0  0.88830157609E+03  0.47860307846E+02 -0.67194920497E+02  0.12774993745E+04  0.91439553546E+03 0.  0.
         23    2    4    4    0    0  0.31994923098E+03  0.21227812422E+00 -0.46777328737E+03  0.57455779121E+03  0.94537038247E+02 0.  0.
         23    2    4    4    0    0  0.56835234511E+03  0.47648029722E+02  0.40057836687E+03  0.70294158326E+03  0.91482886544E+02 0.  0.
          3    1    3    3  502    0 -0.80792500069E+03 -0.33388778315E+02  0.11610418609E+04  0.14148766095E+04  0.00000000000E+00 0. -1.
         -4    1    3    3    0  502 -0.80376575405E+02 -0.14471529532E+02  0.80420051530E+02  0.11461764144E+03  0.00000000000E+00 0.  1.
         11    1    5    5    0    0  0.20638986427E+03  0.40489581922E+02 -0.26050650269E+03  0.33481311244E+03  0.00000000000E+00 0.  1.
        -11    1    5    5    0    0  0.11355936671E+03 -0.40277303798E+02 -0.20726678468E+03  0.23974467877E+03  0.00000000000E+00 0. -1.
          2    1    6    6  503    0  0.84273608850E+02  0.25062066219E+02  0.30052546661E+02  0.92915573897E+02  0.00000000000E+00 0. -1.
         -2    1    6    6    0  503  0.48407873626E+03  0.22585963503E+02  0.37052582021E+03  0.61002600936E+03  0.00000000000E+00 0.  1.
<mgrwt>
<rscale>  0 0.25495706E+04</rscale>
<asrwt>0</asrwt>
<pdfrwt beam="1">  1        1 0.30625081E+00 0.25495706E+04</pdfrwt>
<pdfrwt beam="2">  1       -2 0.12559436E+00 0.25495706E+04</pdfrwt>
<totfact> 0.11137547E+00</totfact>
</mgrwt>
</event>
<event>
12    4  0.4207946E-008  0.1561263E+04  0.7818608E-02  0.8844706E-01
         -4   -1    0    0    0  501 -0.00000000000E+00  0.00000000000E+00  0.90744446244E+03  0.90744446244E+03  0.00000000000E+00 0.  1.
          3   -1    0    0  501    0  0.00000000000E+00 -0.00000000000E+00 -0.67154005047E+03  0.67154005047E+03  0.00000000000E+00 0. -1.
        -24    2    1    2    0    0 -0.26566619313E+03 -0.38329423336E+03  0.32296774320E+03  0.57285279530E+03  0.79744381812E+02 0.  0.
        254    2    1    2    0    0  0.26566619313E+03  0.38329423336E+03 -0.87063331230E+02  0.10061317176E+04  0.88725870751E+03 0.  0.
         23    2    4    4    0    0  0.20476663891E+03  0.33799983664E+03 -0.46123035902E+03  0.61443958539E+03  0.92893993529E+02 0.  0.
         23    2    4    4    0    0  0.60899554216E+02  0.45294396725E+02  0.37416702779E+03  0.39169213223E+03  0.87529558950E+02 0.  0.
          1    1    3    3  502    0  0.29623987969E+01 -0.72718669592E+01  0.16710439615E+02  0.18463332523E+02  0.00000000000E+00 0. -1.
         -2    1    3    3    0  502 -0.26862859193E+03 -0.37602236640E+03  0.30625730358E+03  0.55438946277E+03  0.00000000000E+00 0.  1.
         11    1    5    5    0    0  0.12724828915E+03  0.14674118650E+03 -0.17408027373E+03  0.26082378075E+03  0.00000000000E+00 0.  1.
        -11    1    5    5    0    0  0.77518349758E+02  0.19125865014E+03 -0.28715008529E+03  0.35361580463E+03  0.00000000000E+00 0. -1.
          4    1    6    6  503    0  0.60140650795E+02 -0.87385310523E+01  0.22402202931E+03  0.23211878299E+03  0.00000000000E+00 0. -1.
         -4    1    6    6    0  503  0.75890342168E+00  0.54032927777E+02  0.15014499848E+03  0.15957334923E+03  0.00000000000E+00 0.  1.
<mgrwt>
<rscale>  0 0.15612627E+04</rscale>
<asrwt>0</asrwt>
<pdfrwt beam="1">  1        3 0.10331385E+00 0.15612627E+04</pdfrwt>
<pdfrwt beam="2">  1       -4 0.13960684E+00 0.15612627E+04</pdfrwt>
<totfact> 0.64220905E-01</totfact>
</mgrwt>
</event>
<event>
12    4  0.4207946E-008  0.1988876E+04  0.7818608E-02  0.8611839E-01
          1   -1    0    0  501    0  0.00000000000E+00  0.00000000000E+00  0.29898814302E+04  0.29898814302E+04  0.00000000000E+00 0. -1.
         -2   -1    0    0    0  501 -0.00000000000E+00 -0.00000000000E+00 -0.33075128922E+03  0.33075128922E+03  0.00000000000E+00 0.  1.
        -24    2    1    2    0    0  0.85918783876E+01  0.74666176167E+03  0.63898588784E+03  0.98599590531E+03  0.79418849842E+02 0.  0.
        254    2    1    2    0    0 -0.85918783876E+01 -0.74666176167E+03  0.20201442531E+04  0.23346368141E+04  0.90109302714E+03 0.  0.
         23    2    4    4    0    0 -0.43388385825E+03 -0.31469940801E+03  0.11304651561E+04  0.12544043207E+04  0.91037413027E+02 0.  0.
         23    2    4    4    0    0  0.42529197987E+03 -0.43196235367E+03  0.88967909697E+03  0.10802324934E+04  0.88930316217E+02 0.  0.
          3    1    3    3  502    0  0.27885862779E+02  0.27865942728E+03  0.20093167965E+03  0.34467700481E+03  0.00000000000E+00 0. -1.
         -2    1    3    3    0  502 -0.19293984392E+02  0.46800233439E+03  0.43805420819E+03  0.64131890050E+03  0.00000000000E+00 0.  1.
         11    1    5    5    0    0 -0.42479647598E+03 -0.30067323551E+03  0.11190907375E+04  0.12341882026E+04  0.00000000000E+00 0. -1.
        -11    1    5    5    0    0 -0.90873822771E+01 -0.14026172500E+02  0.11374418632E+02  0.20216118096E+02  0.00000000000E+00 0.  1.
          4    1    6    6  503    0  0.48137398688E+02 -0.86405377456E+02  0.11220604897E+03  0.14957705650E+03  0.00000000000E+00 0. -1.
         -4    1    6    6    0  503  0.37715458118E+03 -0.34555697621E+03  0.77747304800E+03  0.93065543693E+03  0.00000000000E+00 0.  1.
<mgrwt>
<rscale>  0 0.19888762E+04</rscale>
<asrwt>0</asrwt>
<pdfrwt beam="1">  1        1 0.45998174E+00 0.19888762E+04</pdfrwt>
<pdfrwt beam="2">  1       -2 0.50884816E-01 0.19888762E+04</pdfrwt>
<totfact> 0.18142124E+00</totfact>
</mgrwt>
</event>
<event>
12    4  0.4207946E-008  0.2849336E+04  0.7818608E-02  0.8288113E-01
         -2   -1    0    0    0  501 -0.00000000000E+00  0.00000000000E+00  0.14058978416E+04  0.14058978416E+04  0.00000000000E+00 0.  1.
          1   -1    0    0  501    0  0.00000000000E+00 -0.00000000000E+00 -0.14436886692E+04  0.14436886692E+04  0.00000000000E+00 0. -1.
        -24    2    1    2    0    0 -0.54953064563E+03 -0.95488917938E+03  0.65007336996E+03  0.12818709633E+04  0.82465172857E+02 0.  0.
        254    2    1    2    0    0  0.54953064563E+03  0.95488917938E+03 -0.68786419751E+03  0.15677155475E+04  0.87793941044E+03 0.  0.
         23    2    4    4    0    0  0.29599205013E+03  0.37608617258E+03  0.15435005781E+03  0.51079149271E+03  0.89620900055E+02 0.  0.
         23    2    4    4    0    0  0.25353859550E+03  0.57880300680E+03 -0.84221425532E+03  0.10569240548E+04  0.92026440432E+02 0.  0.
          3    1    3    3  502    0 -0.12296682030E+03 -0.28808794628E+03  0.18269903093E+03  0.36262162041E+03  0.00000000000E+00 0. -1.
         -4    1    3    3    0  502 -0.42656382534E+03 -0.66680123310E+03  0.46737433903E+03  0.91924934285E+03  0.00000000000E+00 0.  1.
         11    1    5    5    0    0  0.29388254137E+03  0.34386613297E+03  0.13094290755E+03  0.47091072462E+03  0.00000000000E+00 0.  1.
        -11    1    5    5    0    0  0.21095087629E+01  0.32220039617E+02  0.23407150258E+02  0.39880768089E+02  0.00000000000E+00 0. -1.
          1    1    6    6  503    0 -0.21000170852E+01  0.10771061210E+01 -0.19442910895E+02  0.19585632831E+02  0.00000000000E+00 0. -1.
         -1    1    6    6    0  503  0.25563861258E+03  0.57772590068E+03 -0.82277134442E+03  0.10373384220E+04  0.00000000000E+00 0.  1.
<mgrwt>
<rscale>  0 0.28493359E+04</rscale>
<asrwt>0</asrwt>
<pdfrwt beam="1">  1        1 0.22210595E+00 0.28493359E+04</pdfrwt>
<pdfrwt beam="2">  1       -2 0.21629198E+00 0.28493359E+04</pdfrwt>
<totfact> 0.56559283E-01</totfact>
</mgrwt>
</event>
<event>
12    4  0.4207946E-008  0.2225263E+04  0.7818608E-02  0.8507986E-01
         -2   -1    0    0    0  501 -0.00000000000E+00  0.00000000000E+00  0.60340241047E+03  0.60340241047E+03  0.00000000000E+00 0.  1.
          1   -1    0    0  501    0  0.00000000000E+00 -0.00000000000E+00 -0.20516134280E+04  0.20516134280E+04  0.00000000000E+00 0. -1.
        -24    2    1    2    0    0  0.99851099319E+02  0.35724203279E+02 -0.17015602965E+04  0.17066794243E+04  0.78744867019E+02 0.  0.
        254    2    1    2    0    0 -0.99851099319E+02 -0.35724203279E+02  0.25334927899E+03  0.94833641412E+03  0.90769468239E+03 0.  0.
         23    2    4    4    0    0 -0.24126632460E+03 -0.18337821069E+03  0.51488967129E+03  0.60396136007E+03  0.88436097304E+02 0.  0.
         23    2    4    4    0    0  0.14141522528E+03  0.14765400741E+03 -0.26154039230E+03  0.34437505405E+03  0.91601469406E+02 0.  0.
          1    1    3    3  502    0  0.71786752862E+02  0.49434302559E+02 -0.15164237987E+04  0.15189266689E+04  0.00000000000E+00 0. -1.
         -2    1    3    3    0  502  0.28064346457E+02 -0.13710099280E+02 -0.18513649777E+03  0.18775275542E+03  0.00000000000E+00 0.  1.
         11    1    5    5    0    0 -0.24418772718E+03 -0.15957900767E+03  0.47530063960E+03  0.55767715015E+03  0.00000000000E+00 0. -1.
        -11    1    5    5    0    0  0.29214025751E+01 -0.23799203020E+02  0.39589031694E+02  0.46284209920E+02  0.00000000000E+00 0.  1.
          2    1    6    6  503    0  0.11947416474E+03  0.11981444011E+03 -0.14588591294E+03  0.22341055412E+03  0.00000000000E+00 0. -1.
         -2    1    6    6    0  503  0.21941060548E+02  0.27839567298E+02 -0.11565447936E+03  0.12096449992E+03  0.00000000000E+00 0.  1.
<mgrwt>
<rscale>  0 0.22252627E+04</rscale>
<asrwt>0</asrwt>
<pdfrwt beam="1">  1        1 0.31563284E+00 0.22252627E+04</pdfrwt>
<pdfrwt beam="2">  1       -2 0.92831140E-01 0.22252627E+04</pdfrwt>
<totfact> 0.21607332E+00</totfact>
</mgrwt>
</event>
<event>
12    4  0.4207946E-008  0.1014340E+04  0.7818608E-02  0.9292955E-01
          1   -1    0    0  501    0  0.00000000000E+00  0.00000000000E+00  0.94638286288E+03  0.94638286288E+03  0.00000000000E+00 0. -1.
         -2   -1    0    0    0  501 -0.00000000000E+00 -0.00000000000E+00 -0.27179424155E+03  0.27179424155E+03  0.00000000000E+00 0.  1.
        -24    2    1    2    0    0  0.81903578209E+02  0.21142581500E+01  0.11545867596E+03  0.15832340520E+03  0.70872622146E+02 0.  0.
        254    2    1    2    0    0 -0.81903578209E+02 -0.21142581500E+01  0.55912994537E+03  0.10598536992E+04  0.89663309205E+03 0.  0.
         23    2    4    4    0    0  0.13619686362E+03 -0.38882079493E+03  0.14681716417E+03  0.44699143494E+03  0.92276036855E+02 0.  0.
         23    2    4    4    0    0 -0.21810044183E+03  0.38670653678E+03  0.41231278120E+03  0.61286226430E+03  0.92133474583E+02 0.  0.
          3    1    3    3  502    0  0.74130711485E+02  0.18039612159E+02  0.11790289652E+03  0.14043462180E+03  0.00000000000E+00 0. -1.
         -4    1    3    3    0  502  0.77728667237E+01 -0.15925354009E+02 -0.24442205643E+01  0.17888783401E+02  0.00000000000E+00 0.  1.
         11    1    5    5    0    0  0.10328270176E+03 -0.25414631178E+03  0.52493035120E+02  0.27930840126E+03  0.00000000000E+00 0. -1.
        -11    1    5    5    0    0  0.32914161862E+02 -0.13467448315E+03  0.94324129051E+02  0.16768303368E+03  0.00000000000E+00 0.  1.
          4    1    6    6  503    0 -0.10617818727E+03  0.16573799206E+03  0.24352015224E+03  0.31312130878E+03  0.00000000000E+00 0. -1.
         -4    1    6    6    0  503 -0.11192225457E+03  0.22096854472E+03  0.16879262896E+03  0.29974095551E+03  0.00000000000E+00 0.  1.
<mgrwt>
<rscale>  0 0.10143400E+04</rscale>
<asrwt>0</asrwt>
<pdfrwt beam="1">  1        1 0.14559736E+00 0.10143400E+04</pdfrwt>
<pdfrwt beam="2">  1       -2 0.41814499E-01 0.10143400E+04</pdfrwt>
<totfact> 0.79379756E+01</totfact>
</mgrwt>
</event>
<event>
12    4  0.4207946E-008  0.1413006E+04  0.7818608E-02  0.8944457E-01
          1   -1    0    0  501    0  0.00000000000E+00  0.00000000000E+00  0.12173879477E+04  0.12173879477E+04  0.00000000000E+00 0. -1.
         -2   -1    0    0    0  501 -0.00000000000E+00 -0.00000000000E+00 -0.41001451091E+03  0.41001451091E+03  0.00000000000E+00 0.  1.
        -24    2    1    2    0    0  0.10935354236E+03 -0.18086366399E+02 -0.21710027921E+03  0.25707774196E+03  0.81676926372E+02 0.  0.
        254    2    1    2    0    0 -0.10935354236E+03  0.18086366399E+02  0.10244737160E+04  0.13703247167E+04  0.90330400223E+03 0.  0.
         23    2    4    4    0    0  0.17999217734E+03 -0.24423143660E+02  0.10430026506E+04  0.10628356806E+04  0.93656184688E+02 0.  0.
         23    2    4    4    0    0 -0.28934571970E+03  0.42509510058E+02 -0.18528934603E+02  0.30748903606E+03  0.93156759955E+02 0.  0.
          1    1    3    3  502    0  0.10346598745E+03  0.10862691796E+02 -0.19173257901E+03  0.21813892474E+03  0.00000000000E+00 0. -1.
         -2    1    3    3    0  502  0.58875549155E+01 -0.28949058195E+02 -0.25367700194E+02  0.38938817218E+02  0.00000000000E+00 0.  1.
         11    1    5    5    0    0  0.17135855835E+03 -0.39751071663E+01  0.99849887724E+03  0.10131039260E+04  0.00000000000E+00 0. -1.
        -11    1    5    5    0    0  0.86336189932E+01 -0.20448036493E+02  0.44503773398E+02  0.49731754645E+02  0.00000000000E+00 0.  1.
          4    1    6    6  503    0 -0.19341548278E+03 -0.16774278880E+02 -0.13338681387E+02  0.19459919278E+03  0.00000000000E+00 0. -1.
         -4    1    6    6    0  503 -0.95930236921E+02  0.59283788938E+02 -0.51902532152E+01  0.11288984328E+03  0.00000000000E+00 0.  1.
<mgrwt>
<rscale>  0 0.14130063E+04</rscale>
<asrwt>0</asrwt>
<pdfrwt beam="1">  1        1 0.18729045E+00 0.14130063E+04</pdfrwt>
<pdfrwt beam="2">  1       -2 0.63079156E-01 0.14130063E+04</pdfrwt>
<totfact> 0.20642259E+01</totfact>
</mgrwt>
</event>
<event>
12    4  0.4207946E-008  0.1188680E+04  0.7818608E-02  0.9122823E-01
         -2   -1    0    0    0  501 -0.00000000000E+00  0.00000000000E+00  0.11426742272E+04  0.11426742272E+04  0.00000000000E+00 0.  1.
          1   -1    0    0  501    0  0.00000000000E+00 -0.00000000000E+00 -0.30913463612E+03  0.30913463612E+03  0.00000000000E+00 0. -1.
        -24    2    1    2    0    0  0.24259750765E+03 -0.62364306995E+02  0.10495526467E+03  0.28263106417E+03  0.78242273397E+02 0.  0.
        254    2    1    2    0    0 -0.24259750765E+03  0.62364306995E+02  0.72858432645E+03  0.11691777992E+04  0.87943092273E+03 0.  0.
         23    2    4    4    0    0  0.14398412030E+03  0.35857740646E+03  0.45379527404E+03  0.60285426957E+03  0.90520363844E+02 0.  0.
         23    2    4    4    0    0 -0.38658162795E+03 -0.29621309947E+03  0.27478905241E+03  0.56632352962E+03  0.89586614579E+02 0.  0.
          1    1    3    3  502    0  0.21403156127E+03 -0.52264190009E+02  0.59868904710E+02  0.22830974690E+03  0.00000000000E+00 0. -1.
         -4    1    3    3    0  502  0.28565946381E+02 -0.10100116986E+02  0.45086359960E+02  0.54321317273E+02  0.00000000000E+00 0.  1.
         11    1    5    5    0    0  0.81353710261E+02  0.96889207285E+02  0.12313487930E+03  0.17654501738E+03  0.00000000000E+00 0. -1.
        -11    1    5    5    0    0  0.62630410035E+02  0.26168819918E+03  0.33066039474E+03  0.42630925219E+03  0.00000000000E+00 0.  1.
          4    1    6    6  503    0 -0.17938259671E+03 -0.88134362424E+02  0.88583089832E+02  0.21861552014E+03  0.00000000000E+00 0. -1.
         -4    1    6    6    0  503 -0.20719903124E+03 -0.20807873704E+03  0.18620596258E+03  0.34770800948E+03  0.00000000000E+00 0.  1.
<mgrwt>
<rscale>  0 0.11886802E+04</rscale>
<asrwt>0</asrwt>
<pdfrwt beam="1">  1        1 0.47559175E-01 0.11886802E+04</pdfrwt>
<pdfrwt beam="2">  1       -2 0.17579603E+00 0.11886802E+04</pdfrwt>
<totfact> 0.14120951E+01</totfact>
</mgrwt>
</event>
<event>
12    4  0.4207946E-008  0.1574489E+04  0.7818608E-02  0.8836375E-01
          1   -1    0    0  501    0  0.00000000000E+00  0.00000000000E+00  0.13688303725E+04  0.13688303725E+04  0.00000000000E+00 0. -1.
         -2   -1    0    0    0  501 -0.00000000000E+00 -0.00000000000E+00 -0.45276172261E+03  0.45276172261E+03  0.00000000000E+00 0.  1.
        -24    2    1    2    0    0 -0.25496555793E+03  0.40934769601E+02  0.83385188009E+03  0.87657660185E+03  0.79965554420E+02 0.  0.
        254    2    1    2    0    0  0.25496555793E+03 -0.40934769601E+02  0.82216769769E+02  0.94501549323E+03  0.90532402714E+03 0.  0.
         23    2    4    4    0    0 -0.30314734547E+03 -0.44379689629E+02  0.18636322713E+03  0.37015304837E+03  0.91728713464E+02 0.  0.
         23    2    4    4    0    0  0.55811290339E+03  0.34449200280E+01 -0.10414645736E+03  0.57486244486E+03  0.90102527814E+02 0.  0.
          1    1    3    3  502    0 -0.16896167719E+03  0.61626903603E+02  0.60716652134E+03  0.63324332467E+03  0.00000000000E+00 0. -1.
         -2    1    3    3    0  502 -0.86003880734E+02 -0.20692134002E+02  0.22668535876E+03  0.24333327718E+03  0.00000000000E+00 0.  1.
         11    1    5    5    0    0 -0.16131704100E+03 -0.36886211315E+00  0.50924773108E+02  0.16916458344E+03  0.00000000000E+00 0.  1.
        -11    1    5    5    0    0 -0.14183030447E+03 -0.44010827515E+02  0.13543845402E+03  0.20098846492E+03  0.00000000000E+00 0. -1.
          3    1    6    6  503    0  0.26819577708E+03 -0.28395393080E+02 -0.15981681316E+02  0.27016788731E+03  0.00000000000E+00 0. -1.
         -3    1    6    6    0  503  0.28991712631E+03  0.31840313108E+02 -0.88164776044E+02  0.30469455755E+03  0.00000000000E+00 0.  1.
<mgrwt>
<rscale>  0 0.15744891E+04</rscale>
<asrwt>0</asrwt>
<pdfrwt beam="1">  1        1 0.21058929E+00 0.15744891E+04</pdfrwt>
<pdfrwt beam="2">  1       -2 0.69655650E-01 0.15744891E+04</pdfrwt>
<totfact> 0.12810054E+01</totfact>
</mgrwt>
</event>
<event>
12    4  0.4207946E-008  0.1319075E+04  0.7818608E-02  0.9014574E-01
          1   -1    0    0  501    0  0.00000000000E+00  0.00000000000E+00  0.17609974730E+04  0.17609974730E+04  0.00000000000E+00 0. -1.
         -2   -1    0    0    0  501 -0.00000000000E+00 -0.00000000000E+00 -0.24701317181E+03  0.24701317181E+03  0.00000000000E+00 0.  1.
        -24    2    1    2    0    0  0.19529893966E+03 -0.44908617259E+01 -0.26220558826E+02  0.21249918954E+03  0.79413753073E+02 0.  0.
        254    2    1    2    0    0 -0.19529893966E+03  0.44908617259E+01  0.15402048601E+04  0.17955114553E+04  0.90192490350E+03 0.  0.
         23    2    4    4    0    0 -0.52022606771E+03 -0.28365830353E+02  0.61721916086E+03  0.81251021138E+03  0.88167846875E+02 0.  0.
         23    2    4    4    0    0  0.32492712805E+03  0.32856692079E+02  0.92298569919E+03  0.98300124393E+03  0.87929766796E+02 0.  0.
          1    1    3    3  502    0  0.22532625700E+02 -0.13602418532E+02  0.20424201525E+02  0.33315056938E+02  0.00000000000E+00 0. -1.
         -2    1    3    3    0  502  0.17276631396E+03  0.91115568062E+01 -0.46644760351E+02  0.17918413260E+03  0.00000000000E+00 0.  1.
         11    1    5    5    0    0 -0.30417872486E+03 -0.24972437129E+02  0.42552263678E+03  0.52365812673E+03  0.00000000000E+00 0. -1.
        -11    1    5    5    0    0 -0.21604734284E+03 -0.33933932241E+01  0.19169652407E+03  0.28885208465E+03  0.00000000000E+00 0.  1.
          2    1    6    6  503    0  0.23116692800E+03  0.32089335677E+01  0.53631791727E+03  0.58402513151E+03  0.00000000000E+00 0. -1.
         -2    1    6    6    0  503  0.93760200050E+02  0.29647758511E+02  0.38666778193E+03  0.39897611242E+03  0.00000000000E+00 0.  1.
<mgrwt>
<rscale>  0 0.13190748E+04</rscale>
<asrwt>0</asrwt>
<pdfrwt beam="1">  1        1 0.27092268E+00 0.13190748E+04</pdfrwt>
<pdfrwt beam="2">  1       -2 0.38002028E-01 0.13190748E+04</pdfrwt>
<totfact> 0.24385366E+01</totfact>
</mgrwt>
</event>
<event>
12    4  0.4207946E-008  0.2160286E+04  0.7818608E-02  0.8535142E-01
          1   -1    0    0  501    0  0.00000000000E+00  0.00000000000E+00  0.38099050071E+04  0.38099050071E+04  0.00000000000E+00 0. -1.
         -2   -1    0    0    0  501 -0.00000000000E+00 -0.00000000000E+00 -0.30623045003E+03  0.30623045003E+03  0.00000000000E+00 0.  1.
        -24    2    1    2    0    0 -0.47119877569E+03  0.51984350777E+03  0.39678398124E+03  0.80957797368E+03  0.75587094944E+02 0.  0.
        254    2    1    2    0    0  0.47119877569E+03 -0.51984350777E+03  0.31068905759E+04  0.33065574835E+04  0.88785572159E+03 0.  0.
         23    2    4    4    0    0 -0.61062867760E+01  0.22066024372E+03  0.81346242534E+03  0.84785601022E+03  0.91708596860E+02 0.  0.
         23    2    4    4    0    0  0.47730506247E+03 -0.74050375150E+03  0.22934281505E+04  0.24587014733E+04  0.96095391764E+02 0.  0.
          3    1    3    3  502    0 -0.17984252110E+03  0.21192129828E+03  0.19869859868E+03  0.34166519018E+03  0.00000000000E+00 0. -1.
         -4    1    3    3    0  502 -0.29135625459E+03  0.30792220949E+03  0.19808538256E+03  0.46791278351E+03  0.00000000000E+00 0.  1.
         11    1    5    5    0    0  0.20139035688E+02  0.13517322209E+03  0.61766779339E+03  0.63260642087E+03  0.00000000000E+00 0.  1.
        -11    1    5    5    0    0 -0.26245322464E+02  0.85487021638E+02  0.19579463194E+03  0.21524958935E+03  0.00000000000E+00 0. -1.
          3    1    6    6  503    0  0.45151261319E+03 -0.65209713559E+03  0.20882116574E+04  0.22337686183E+04  0.00000000000E+00 0. -1.
         -3    1    6    6    0  503  0.25792449275E+02 -0.88406615901E+02  0.20521649315E+03  0.22493285495E+03  0.00000000000E+00 0.  1.
<mgrwt>
<rscale>  0 0.21602860E+04</rscale>
<asrwt>0</asrwt>
<pdfrwt beam="1">  1        1 0.58613920E+00 0.21602860E+04</pdfrwt>
<pdfrwt beam="2">  1       -2 0.47112380E-01 0.21602860E+04</pdfrwt>
<totfact> 0.48234609E-01</totfact>
</mgrwt>
</event>
<event>
12    4  0.4207946E-008  0.3052971E+04  0.7818608E-02  0.8228764E-01
          1   -1    0    0  501    0  0.00000000000E+00  0.00000000000E+00  0.20802688171E+04  0.20802688171E+04  0.00000000000E+00 0. -1.
         -2   -1    0    0    0  501 -0.00000000000E+00 -0.00000000000E+00 -0.11201237741E+04  0.11201237741E+04  0.00000000000E+00 0.  1.
        -24    2    1    2    0    0  0.43259494026E+03 -0.14508251097E+03  0.18182061274E+04  0.18762816999E+04  0.79825925453E+02 0.  0.
        254    2    1    2    0    0 -0.43259494026E+03  0.14508251097E+03 -0.85806108436E+03  0.13241108914E+04  0.89934059777E+03 0.  0.
         23    2    4    4    0    0 -0.10143621458E+03 -0.33898933992E+03 -0.53750635982E+03  0.64948978196E+03  0.87868150204E+02 0.  0.
         23    2    4    4    0    0 -0.33115872568E+03  0.48407185089E+03 -0.32055472454E+03  0.67462110940E+03  0.91469401481E+02 0.  0.
          1    1    3    3  502    0  0.22717612448E+03 -0.42192465186E+02  0.10070180784E+04  0.10331866268E+04  0.00000000000E+00 0. -1.
         -2    1    3    3    0  502  0.20541881578E+03 -0.10289004578E+03  0.81118804897E+03  0.84309507304E+03  0.00000000000E+00 0.  1.
         11    1    5    5    0    0 -0.28952135623E+01 -0.16182179949E+03 -0.23605302731E+03  0.28620920452E+03  0.00000000000E+00 0.  1.
        -11    1    5    5    0    0 -0.98541001016E+02 -0.17716754043E+03 -0.30145333251E+03  0.36328057744E+03  0.00000000000E+00 0. -1.
          1    1    6    6  503    0 -0.70850896776E+02  0.10582630103E+03 -0.28680698008E+02  0.13054362490E+03  0.00000000000E+00 0. -1.
         -1    1    6    6    0  503 -0.26030782890E+03  0.37824554985E+03 -0.29187402653E+03  0.54407748450E+03  0.00000000000E+00 0.  1.
<mgrwt>
<rscale>  0 0.30529714E+04</rscale>
<asrwt>0</asrwt>
<pdfrwt beam="1">  1        1 0.32004135E+00 0.30529714E+04</pdfrwt>
<pdfrwt beam="2">  1       -2 0.17232674E+00 0.30529714E+04</pdfrwt>
<totfact> 0.40175370E-01</totfact>
</mgrwt>
</event>
<event>
12    4  0.4207946E-008  0.1451745E+04  0.7818608E-02  0.8917192E-01
         -2   -1    0    0    0  501 -0.00000000000E+00  0.00000000000E+00  0.88800393546E+03  0.88800393546E+03  0.00000000000E+00 0.  1.
          1   -1    0    0  501    0  0.00000000000E+00 -0.00000000000E+00 -0.59334292826E+03  0.59334292826E+03  0.00000000000E+00 0. -1.
        -24    2    1    2    0    0  0.11098397873E+03  0.12451469820E+03 -0.32056332676E+03  0.36950423570E+03  0.77143892413E+02 0.  0.
        254    2    1    2    0    0 -0.11098397873E+03 -0.12451469820E+03  0.61522433395E+03  0.11118426280E+04  0.91097293856E+03 0.  0.
         23    2    4    4    0    0 -0.16737894415E+03  0.36126222081E+03  0.15654383811E+03  0.43519962657E+03  0.79791218759E+02 0.  0.
         23    2    4    4    0    0  0.56394965413E+02 -0.48577691900E+03  0.45868049585E+03  0.67664300145E+03  0.91095263192E+02 0.  0.
          1    1    3    3  502    0  0.86809455934E+02  0.41077680180E+02 -0.18614090201E+03  0.20945570618E+03  0.00000000000E+00 0. -1.
         -2    1    3    3    0  502  0.24174522798E+02  0.83437018016E+02 -0.13442242475E+03  0.16004852952E+03  0.00000000000E+00 0.  1.
         11    1    5    5    0    0 -0.13692491459E+03  0.33818498704E+03  0.15647096985E+03  0.39698952392E+03  0.00000000000E+00 0.  1.
        -11    1    5    5    0    0 -0.30454029558E+02  0.23077233762E+02  0.72868251308E-01  0.38210102646E+02  0.00000000000E+00 0. -1.
          4    1    6    6  503    0  0.36283457058E+02 -0.23695936215E+03  0.16404944900E+03  0.29047968997E+03  0.00000000000E+00 0. -1.
         -4    1    6    6    0  503  0.20111508355E+02 -0.24881755685E+03  0.29463104684E+03  0.38616331148E+03  0.00000000000E+00 0.  1.
<mgrwt>
<rscale>  0 0.14517450E+04</rscale>
<asrwt>0</asrwt>
<pdfrwt beam="1">  1        1 0.91283527E-01 0.14517450E+04</pdfrwt>
<pdfrwt beam="2">  1       -2 0.13661599E+00 0.14517450E+04</pdfrwt>
<totfact> 0.11312053E+01</totfact>
</mgrwt>
</event>
<event>
12    4  0.4207946E-008  0.2098386E+04  0.7818608E-02  0.8561955E-01
         -2   -1    0    0    0  501 -0.00000000000E+00  0.00000000000E+00  0.94417917190E+03  0.94417917190E+03  0.00000000000E+00 0.  1.
          1   -1    0    0  501    0  0.00000000000E+00 -0.00000000000E+00 -0.11658868409E+04  0.11658868409E+04  0.00000000000E+00 0. -1.
        -24    2    1    2    0    0 -0.52884217985E+03 -0.27512702564E+03 -0.69706670025E+03  0.92085544094E+03  0.81876902050E+02 0.  0.
        254    2    1    2    0    0  0.52884217985E+03  0.27512702564E+03  0.47535903130E+03  0.11892105718E+04  0.91262623459E+03 0.  0.
         23    2    4    4    0    0  0.24144808779E+03 -0.31449563357E+03  0.69544662853E+02  0.41303045703E+03  0.92482515503E+02 0.  0.
         23    2    4    4    0    0  0.28739409206E+03  0.58962265921E+03  0.40581436845E+03  0.77618011478E+03  0.86718075032E+02 0.  0.
          3    1    3    3  502    0 -0.40379289630E+03 -0.18957917562E+03 -0.56495042402E+03  0.71983188907E+03  0.00000000000E+00 0. -1.
         -4    1    3    3    0  502 -0.12504928355E+03 -0.85547850026E+02 -0.13211627623E+03  0.20102355186E+03  0.00000000000E+00 0.  1.
         11    1    5    5    0    0  0.28702321141E+02 -0.97957521008E+02  0.22566177741E+01  0.10210088876E+03  0.00000000000E+00 0. -1.
        -11    1    5    5    0    0  0.21274576665E+03 -0.21653811256E+03  0.67288045079E+02  0.31092956828E+03  0.00000000000E+00 0.  1.
          1    1    6    6  503    0  0.77624684713E+02  0.97360321507E+02  0.53556079204E+02  0.13554658793E+03  0.00000000000E+00 0. -1.
         -1    1    6    6    0  503  0.20976940735E+03  0.49226233771E+03  0.35225828924E+03  0.64063352685E+03  0.00000000000E+00 0.  1.
<mgrwt>
<rscale>  0 0.20983861E+04</rscale>
<asrwt>0</asrwt>
<pdfrwt beam="1">  1        1 0.17936721E+00 0.20983861E+04</pdfrwt>
<pdfrwt beam="2">  1       -2 0.14525833E+00 0.20983861E+04</pdfrwt>
<totfact> 0.29790543E+00</totfact>
</mgrwt>
</event>
<event>
12    4  0.4207946E-008  0.1908330E+04  0.7818608E-02  0.8650721E-01
          1   -1    0    0  501    0  0.00000000000E+00  0.00000000000E+00  0.11104965416E+04  0.11104965416E+04  0.00000000000E+00 0. -1.
         -2   -1    0    0    0  501 -0.00000000000E+00 -0.00000000000E+00 -0.81984159151E+03  0.81984159151E+03  0.00000000000E+00 0.  1.
        -24    2    1    2    0    0  0.72998332699E+02 -0.63100686584E+03 -0.26936344369E+03  0.69453487822E+03  0.79521135249E+02 0.  0.
        254    2    1    2    0    0 -0.72998332699E+02  0.63100686584E+03  0.56001839382E+03  0.12358032549E+04  0.90005036646E+03 0.  0.
         23    2    4    4    0    0  0.35399550799E+03  0.22101851528E+03  0.17834774131E+02  0.42781458117E+03  0.92440429051E+02 0.  0.
         23    2    4    4    0    0 -0.42699384068E+03  0.40998835056E+03  0.54218361969E+03  0.80798867376E+03  0.92024083170E+02 0.  0.
          1    1    3    3  502    0  0.14873070701E+02 -0.31353101433E+03 -0.16927626609E+03  0.35661934810E+03  0.00000000000E+00 0. -1.
         -2    1    3    3    0  502  0.58125261998E+02 -0.31747585151E+03 -0.10008717760E+03  0.33791553012E+03  0.00000000000E+00 0.  1.
         11    1    5    5    0    0  0.21846993824E+03  0.90714302900E+02 -0.14712023858E+02  0.23701190331E+03  0.00000000000E+00 0. -1.
        -11    1    5    5    0    0  0.13552556975E+03  0.13030421238E+03  0.32546797990E+02  0.19080267786E+03  0.00000000000E+00 0.  1.
          1    1    6    6  503    0 -0.10205173161E+03  0.10608569178E+03  0.84668373213E+02  0.16981596906E+03  0.00000000000E+00 0. -1.
         -1    1    6    6    0  503 -0.32494210908E+03  0.30390265878E+03  0.45751524648E+03  0.63817270470E+03  0.00000000000E+00 0.  1.
<mgrwt>
<rscale>  0 0.19083304E+04</rscale>
<asrwt>0</asrwt>
<pdfrwt beam="1">  1        1 0.17084562E+00 0.19083304E+04</pdfrwt>
<pdfrwt beam="2">  1       -2 0.12612948E+00 0.19083304E+04</pdfrwt>
<totfact> 0.47850108E+00</totfact>
</mgrwt>
</event>
<event>
12    4  0.4207946E-008  0.1466903E+04  0.7818608E-02  0.8906765E-01
         -2   -1    0    0    0  501 -0.00000000000E+00  0.00000000000E+00  0.46093813153E+03  0.46093813153E+03  0.00000000000E+00 0.  1.
          1   -1    0    0  501    0  0.00000000000E+00 -0.00000000000E+00 -0.11670794146E+04  0.11670794146E+04  0.00000000000E+00 0. -1.
        -24    2    1    2    0    0 -0.74591559573E+02  0.34476988805E+03 -0.52745390548E+03  0.63964756843E+03  0.80692087138E+02 0.  0.
        254    2    1    2    0    0  0.74591559573E+02 -0.34476988805E+03 -0.17868737763E+03  0.98836997774E+03  0.90582330369E+03 0.  0.
         23    2    4    4    0    0  0.40622182457E+03 -0.67235476580E+02 -0.31553820279E+03  0.52562227256E+03  0.84720929666E+02 0.  0.
         23    2    4    4    0    0 -0.33163026500E+03 -0.27753441147E+03  0.13685082516E+03  0.46274770518E+03  0.91669559249E+02 0.  0.
          1    1    3    3  502    0 -0.97991570159E+01  0.34262824670E+01 -0.38153914269E+02  0.39540916325E+02  0.00000000000E+00 0. -1.
         -2    1    3    3    0  502 -0.64792402557E+02  0.34134360559E+03 -0.48929999121E+03  0.60010665211E+03  0.00000000000E+00 0.  1.
         11    1    5    5    0    0  0.39239866094E+02  0.61144766212E+01 -0.64273012637E+01  0.40230139411E+02  0.00000000000E+00 0. -1.
        -11    1    5    5    0    0  0.36698195848E+03 -0.73349953201E+02 -0.30911090153E+03  0.48539213315E+03  0.00000000000E+00 0.  1.
          1    1    6    6  503    0 -0.20892654011E+02 -0.47274983268E+01  0.27828015600E+02  0.35117669118E+02  0.00000000000E+00 0. -1.
         -1    1    6    6    0  503 -0.31073761099E+03 -0.27280691315E+03  0.10902280956E+03  0.42763003607E+03  0.00000000000E+00 0.  1.
<mgrwt>
<rscale>  0 0.14669034E+04</rscale>
<asrwt>0</asrwt>
<pdfrwt beam="1">  1        1 0.17955068E+00 0.14669034E+04</pdfrwt>
<pdfrwt beam="2">  1       -2 0.70913559E-01 0.14669034E+04</pdfrwt>
<totfact> 0.17365632E+01</totfact>
</mgrwt>
</event>
<event>
12    4  0.4207946E-008  0.1396028E+04  0.7818608E-02  0.8956699E-01
         -2   -1    0    0    0  501 -0.00000000000E+00  0.00000000000E+00  0.75566686473E+03  0.75566686473E+03  0.00000000000E+00 0.  1.
          1   -1    0    0  501    0  0.00000000000E+00 -0.00000000000E+00 -0.64475954760E+03  0.64475954760E+03  0.00000000000E+00 0. -1.
        -24    2    1    2    0    0  0.21842351484E+03 -0.31216460594E+03 -0.86286148449E+02  0.39898570263E+03  0.81170921245E+02 0.  0.
        254    2    1    2    0    0 -0.21842351484E+03  0.31216460594E+03  0.19719346558E+03  0.10014407097E+04  0.90489925358E+03 0.  0.
         23    2    4    4    0    0  0.34008848919E+03  0.21223250077E+03  0.92870979270E+02  0.41917727670E+03  0.79885891438E+02 0.  0.
         23    2    4    4    0    0 -0.55851200403E+03  0.99932105165E+02  0.10432248631E+03  0.58226343299E+03  0.78901457333E+02 0.  0.
          1    1    3    3  502    0  0.13571351426E+03 -0.25112035863E+03 -0.77686807573E+02  0.29582905966E+03  0.00000000000E+00 0. -1.
         -2    1    3    3    0  502  0.82710000575E+02 -0.61044247309E+02 -0.85993408762E+01  0.10315664297E+03  0.00000000000E+00 0.  1.
         11    1    5    5    0    0  0.20134892169E+03  0.89312165838E+02  0.24568368264E+02  0.22163405865E+03  0.00000000000E+00 0. -1.
        -11    1    5    5    0    0  0.13873956749E+03  0.12292033493E+03  0.68302611006E+02  0.19754321805E+03  0.00000000000E+00 0.  1.
          3    1    6    6  503    0 -0.28305175190E+03  0.90059754718E+02  0.61211996096E+02  0.30327538994E+03  0.00000000000E+00 0. -1.
         -3    1    6    6    0  503 -0.27546025212E+03  0.98723504466E+01  0.43110490218E+02  0.27898804306E+03  0.00000000000E+00 0.  1.
<mgrwt>
<rscale>  0 0.13960278E+04</rscale>
<asrwt>0</asrwt>
<pdfrwt beam="1">  1        1 0.99193776E-01 0.13960278E+04</pdfrwt>
<pdfrwt beam="2">  1       -2 0.11625644E+00 0.13960278E+04</pdfrwt>
<totfact> 0.15107919E+01</totfact>
</mgrwt>
</event>
<event>
12    4  0.4207946E-008  0.1349135E+04  0.7818608E-02  0.8991483E-01
          1   -1    0    0  501    0  0.00000000000E+00  0.00000000000E+00  0.95505125967E+03  0.95505125967E+03  0.00000000000E+00 0. -1.
         -2   -1    0    0    0  501 -0.00000000000E+00 -0.00000000000E+00 -0.47645765943E+03  0.47645765943E+03  0.00000000000E+00 0.  1.
        -24    2    1    2    0    0  0.59568744671E+01  0.54851121363E+02  0.57111631089E+03  0.57921824363E+03  0.79219967896E+02 0.  0.
        254    2    1    2    0    0 -0.59568744671E+01 -0.54851121363E+02 -0.92522710651E+02  0.85229067548E+03  0.84545538833E+03 0.  0.
         23    2    4    4    0    0  0.18303458983E+03  0.12389196978E+03 -0.38359603778E+03  0.45159552931E+03  0.89116332094E+02 0.  0.
         23    2    4    4    0    0 -0.18899146430E+03 -0.17874309114E+03  0.29107332713E+03  0.40069514617E+03  0.90366211531E+02 0.  0.
          3    1    3    3  502    0  0.28178149118E+02  0.56360068026E+02  0.26897589403E+03  0.27625802599E+03  0.00000000000E+00 0. -1.
         -4    1    3    3    0  502 -0.22221274651E+02 -0.15089466628E+01  0.30214041686E+03  0.30296021763E+03  0.00000000000E+00 0.  1.
         11    1    5    5    0    0  0.33061051101E+02  0.55952677358E+02 -0.59671218054E+02  0.88229187163E+02  0.00000000000E+00 0. -1.
        -11    1    5    5    0    0  0.14997353873E+03  0.67939292420E+02 -0.32392481972E+03  0.36336634215E+03  0.00000000000E+00 0.  1.
          1    1    6    6  503    0 -0.14174669471E+03 -0.13380135158E+03  0.15230237233E+03  0.24736802494E+03  0.00000000000E+00 0. -1.
         -1    1    6    6    0  503 -0.47244769595E+02 -0.44941739562E+02  0.13877095479E+03  0.15332712122E+03  0.00000000000E+00 0.  1.
<mgrwt>
<rscale>  0 0.13491353E+04</rscale>
<asrwt>0</asrwt>
<pdfrwt beam="1">  1        1 0.14693096E+00 0.13491353E+04</pdfrwt>
<pdfrwt beam="2">  1       -2 0.73301178E-01 0.13491353E+04</pdfrwt>
<totfact> 0.23672786E+01</totfact>
</mgrwt>
</event>
<event>
12    4  0.4207946E-008  0.1893076E+04  0.7818608E-02  0.8658311E-01
         -2   -1    0    0    0  501 -0.00000000000E+00  0.00000000000E+00  0.39611622417E+03  0.39611622417E+03  0.00000000000E+00 0.  1.
          1   -1    0    0  501    0  0.00000000000E+00 -0.00000000000E+00 -0.22617953864E+04  0.22617953864E+04  0.00000000000E+00 0. -1.
        -24    2    1    2    0    0  0.56271063343E+03 -0.46551785308E+03 -0.63480022324E+03  0.97138922636E+03  0.85296993765E+02 0.  0.
        254    2    1    2    0    0 -0.56271063343E+03  0.46551785308E+03 -0.12308789390E+04  0.16865223842E+04  0.89215730761E+03 0.  0.
         23    2    4    4    0    0 -0.39099606263E+02  0.32451131413E+03 -0.10562390756E+04  0.11094714569E+04  0.91921469763E+02 0.  0.
         23    2    4    4    0    0 -0.52361102717E+03  0.14100653895E+03 -0.17463986343E+03  0.57705092737E+03  0.91854989432E+02 0.  0.
          1    1    3    3  502    0  0.25254567978E+03 -0.18552875027E+03 -0.32297816903E+03  0.45001681660E+03  0.00000000000E+00 0. -1.
         -2    1    3    3    0  502  0.31016495365E+03 -0.27998910281E+03 -0.31182205421E+03  0.52137240976E+03  0.00000000000E+00 0.  1.
         11    1    5    5    0    0 -0.57833167877E+02  0.27571419231E+03 -0.80550515822E+03  0.85334726288E+03  0.00000000000E+00 0.  1.
        -11    1    5    5    0    0  0.18733561614E+02  0.48797121827E+02 -0.25073391735E+03  0.25612419397E+03  0.00000000000E+00 0. -1.
          3    1    6    6  503    0 -0.34866734016E+03  0.94081040964E+02 -0.16103081687E+03  0.39541254449E+03  0.00000000000E+00 0. -1.
         -3    1    6    6    0  503 -0.17494368701E+03  0.46925497985E+02 -0.13609046557E+02  0.18163838288E+03  0.00000000000E+00 0.  1.
<mgrwt>
<rscale>  0 0.18930756E+04</rscale>
<asrwt>0</asrwt>
<pdfrwt beam="1">  1        1 0.34796853E+00 0.18930756E+04</pdfrwt>
<pdfrwt beam="2">  1       -2 0.60940957E-01 0.18930756E+04</pdfrwt>
<totfact> 0.40740728E+00</totfact>
</mgrwt>
</event>
<event>
12    4  0.4207946E-008  0.1128257E+04  0.7818608E-02  0.9178080E-01
         -2   -1    0    0    0  501 -0.00000000000E+00  0.00000000000E+00  0.50696751605E+03  0.50696751605E+03  0.00000000000E+00 0.  1.
          1   -1    0    0  501    0  0.00000000000E+00 -0.00000000000E+00 -0.62773403939E+03  0.62773403939E+03  0.00000000000E+00 0. -1.
        -24    2    1    2    0    0  0.27165075753E+02 -0.13405437711E+03 -0.55624228115E+02  0.17358720163E+03  0.91268529368E+02 0.  0.
        254    2    1    2    0    0 -0.27165075753E+02  0.13405437711E+03 -0.65142295220E+02  0.96111435381E+03  0.94909892272E+03 0.  0.
         23    2    4    4    0    0  0.32784542379E+03  0.28687142031E+03  0.19318768554E+03  0.48519706884E+03  0.91196930188E+02 0.  0.
         23    2    4    4    0    0 -0.35501049954E+03 -0.15281704320E+03 -0.25832998076E+03  0.47591728497E+03  0.10186942475E+03 0.  0.
          1    1    3    3  502    0  0.33210672407E+02 -0.70242019191E+02 -0.73593281520E+02  0.10701804103E+03  0.00000000000E+00 0. -1.
         -2    1    3    3    0  502 -0.60455966535E+01 -0.63812357919E+02  0.17969053405E+02  0.66569160595E+02  0.00000000000E+00 0.  1.
         11    1    5    5    0    0  0.21198271875E+03  0.12937938396E+03  0.90256592139E+02  0.26423843488E+03  0.00000000000E+00 0.  1.
        -11    1    5    5    0    0  0.11586270504E+03  0.15749203635E+03  0.10293109340E+03  0.22095863396E+03  0.00000000000E+00 0. -1.
          4    1    6    6  503    0 -0.26317665827E+03 -0.15928881118E+03 -0.19714191808E+03  0.36537626454E+03  0.00000000000E+00 0. -1.
         -4    1    6    6    0  503 -0.91833841269E+02  0.64717679823E+01 -0.61188062686E+02  0.11054102043E+03  0.00000000000E+00 0.  1.
<mgrwt>
<rscale>  0 0.11282566E+04</rscale>
<asrwt>0</asrwt>
<pdfrwt beam="1">  1        1 0.96574467E-01 0.11282566E+04</pdfrwt>
<pdfrwt beam="2">  1       -2 0.77995003E-01 0.11282566E+04</pdfrwt>
<totfact> 0.40869282E+01</totfact>
</mgrwt>
</event>
<event>
12    4  0.4207946E-008  0.2433329E+04  0.7818608E-02  0.8427130E-01
          1   -1    0    0  501    0  0.00000000000E+00  0.00000000000E+00  0.24500885460E+04  0.24500885460E+04  0.00000000000E+00 0. -1.
         -2   -1    0    0    0  501 -0.00000000000E+00 -0.00000000000E+00 -0.60417085401E+03  0.60417085401E+03  0.00000000000E+00 0.  1.
        -24    2    1    2    0    0  0.49828935563E+03 -0.49794610092E+03 -0.20348215813E+03  0.73751450277E+03  0.79246777664E+02 0.  0.
        254    2    1    2    0    0 -0.49828935563E+03  0.49794610092E+03  0.20493998501E+04  0.23167448972E+04  0.81916089495E+03 0.  0.
         23    2    4    4    0    0 -0.11397997246E+03  0.26127239615E+03  0.17320423197E+04  0.17576687289E+04  0.90410530933E+02 0.  0.
         23    2    4    4    0    0 -0.38430938317E+03  0.23667370478E+03  0.31735753045E+03  0.55907616839E+03  0.90234225245E+02 0.  0.
          3    1    3    3  502    0  0.16266690595E+03 -0.12487969493E+03 -0.84387679913E+02  0.22175829413E+03  0.00000000000E+00 0. -1.
         -4    1    3    3    0  502  0.33562244968E+03 -0.37306640599E+03 -0.11909447822E+03  0.51575620864E+03  0.00000000000E+00 0.  1.
         11    1    5    5    0    0 -0.86115317011E+02  0.19942918750E+03  0.15085430770E+04  0.15241030358E+04  0.00000000000E+00 0. -1.
        -11    1    5    5    0    0 -0.27864655450E+02  0.61843208645E+02  0.22349924268E+03  0.23356569302E+03  0.00000000000E+00 0.  1.
          3    1    6    6  503    0 -0.19057288703E+03  0.14241173955E+03  0.21452062098E+03  0.32034079612E+03  0.00000000000E+00 0. -1.
         -3    1    6    6    0  503 -0.19373649614E+03  0.94261965228E+02  0.10283690947E+03  0.23873537227E+03  0.00000000000E+00 0.  1.
<mgrwt>
<rscale>  0 0.24333287E+04</rscale>
<asrwt>0</asrwt>
<pdfrwt beam="1">  1        1 0.37693669E+00 0.24333287E+04</pdfrwt>
<pdfrwt beam="2">  1       -2 0.92949364E-01 0.24333287E+04</pdfrwt>
<totfact> 0.11298405E+00</totfact>
</mgrwt>
</event>
<event>
12    4  0.4207946E-008  0.2096567E+04  0.7818608E-02  0.8562757E-01
          1   -1    0    0  501    0  0.00000000000E+00  0.00000000000E+00  0.13559876536E+04  0.13559876536E+04  0.00000000000E+00 0. -1.
         -2   -1    0    0    0  501 -0.00000000000E+00 -0.00000000000E+00 -0.81040410831E+03  0.81040410831E+03  0.00000000000E+00 0.  1.
        -24    2    1    2    0    0 -0.68239754570E+03 -0.45704846724E+03 -0.81039913981E+02  0.82905559965E+03  0.78778219579E+02 0.  0.
        254    2    1    2    0    0  0.68239754570E+03  0.45704846724E+03  0.62662345923E+03  0.13373361622E+04  0.84926517609E+03 0.  0.
         23    2    4    4    0    0 -0.23784344142E+02 -0.77008724569E+02 -0.12363554134E+03  0.17338503573E+03  0.90997718911E+02 0.  0.
         23    2    4    4    0    0  0.70618188984E+03  0.53405719181E+03  0.75025900058E+03  0.11639511265E+04  0.89351615766E+02 0.  0.
          3    1    3    3  502    0 -0.13789455469E+03 -0.90284727794E+02 -0.48219418324E+02  0.17173046495E+03  0.00000000000E+00 0. -1.
         -4    1    3    3    0  502 -0.54450299100E+03 -0.36676373944E+03 -0.32820495656E+02  0.65732513471E+03  0.00000000000E+00 0.  1.
         11    1    5    5    0    0 -0.12359986245E+02 -0.33511955817E+02  0.59561461482E+01  0.36211822926E+02  0.00000000000E+00 0. -1.
        -11    1    5    5    0    0 -0.11424357897E+02 -0.43496768752E+02 -0.12959168749E+03  0.13717321281E+03  0.00000000000E+00 0.  1.
          3    1    6    6  503    0  0.33782542275E+03  0.20856171529E+03  0.36663198438E+03  0.54041004553E+03  0.00000000000E+00 0.  1.
         -3    1    6    6    0  503  0.36835646709E+03  0.32549547652E+03  0.38362701619E+03  0.62354108095E+03  0.00000000000E+00 0. -1.
<mgrwt>
<rscale>  0 0.20965667E+04</rscale>
<asrwt>0</asrwt>
<pdfrwt beam="1">  1        1 0.20861348E+00 0.20965667E+04</pdfrwt>
<pdfrwt beam="2">  1       -2 0.12467756E+00 0.20965667E+04</pdfrwt>
<totfact> 0.32153523E+00</totfact>
</mgrwt>
</event>
<event>
12    4  0.4207946E-008  0.1901852E+04  0.7818608E-02  0.8653935E-01
         -2   -1    0    0    0  501 -0.00000000000E+00  0.00000000000E+00  0.21122746074E+04  0.21122746074E+04  0.00000000000E+00 0.  1.
          1   -1    0    0  501    0  0.00000000000E+00 -0.00000000000E+00 -0.42809783376E+03  0.42809783376E+03  0.00000000000E+00 0. -1.
        -24    2    1    2    0    0  0.12648163528E+03 -0.17117497518E+02 -0.30750329049E+03  0.34329349732E+03  0.83675198547E+02 0.  0.
        254    2    1    2    0    0 -0.12648163528E+03  0.17117497518E+02  0.19916800641E+04  0.21970789439E+04  0.91873597667E+03 0.  0.
         23    2    4    4    0    0 -0.36670217406E+03  0.17434054320E+03  0.17814836040E+04  0.18294486765E+04  0.91288111328E+02 0.  0.
         23    2    4    4    0    0  0.24022053878E+03 -0.15722304568E+03  0.21019646013E+03  0.36763026731E+03  0.92436292915E+02 0.  0.
          1    1    3    3  502    0  0.11744049341E+03  0.83306947409E+01 -0.19667331569E+03  0.22922055552E+03  0.00000000000E+00 0. -1.
         -2    1    3    3    0  502  0.90411418661E+01 -0.25448192258E+02 -0.11082997481E+03  0.11407294180E+03  0.00000000000E+00 0.  1.
         11    1    5    5    0    0 -0.26280465690E+03  0.77141990267E+02  0.11688897231E+04  0.12005500236E+04  0.00000000000E+00 0.  1.
        -11    1    5    5    0    0 -0.10389751716E+03  0.97198552932E+02  0.61259388088E+03  0.62889865292E+03  0.00000000000E+00 0. -1.
          1    1    6    6  503    0  0.21698343086E+03 -0.16844085092E+03  0.20043836584E+03  0.34004362665E+03  0.00000000000E+00 0. -1.
         -1    1    6    6    0  503  0.23237107918E+02  0.11217805236E+02  0.97580942910E+01  0.27586640660E+02  0.00000000000E+00 0.  1.
<mgrwt>
<rscale>  0 0.19018519E+04</rscale>
<asrwt>0</asrwt>
<pdfrwt beam="1">  1        1 0.65861207E-01 0.19018519E+04</pdfrwt>
<pdfrwt beam="2">  1       -2 0.32496532E+00 0.19018519E+04</pdfrwt>
<totfact> 0.10023060E+00</totfact>
</mgrwt>
</event>
<event>
12    4  0.4207946E-008  0.2510445E+04  0.7818608E-02  0.8399274E-01
         -2   -1    0    0    0  501 -0.00000000000E+00  0.00000000000E+00  0.13465357775E+04  0.13465357775E+04  0.00000000000E+00 0.  1.
          1   -1    0    0  501    0  0.00000000000E+00 -0.00000000000E+00 -0.11701016259E+04  0.11701016259E+04  0.00000000000E+00 0. -1.
        -24    2    1    2    0    0 -0.10190096801E+03 -0.68145616287E+03 -0.77252568884E+03  0.10381729899E+04  0.78999416303E+02 0.  0.
        254    2    1    2    0    0  0.10190096801E+03  0.68145616287E+03  0.94895984051E+03  0.14784644135E+04  0.90031435283E+03 0.  0.
         23    2    4    4    0    0  0.47185752783E+03  0.52306226794E+03  0.49604455486E+03  0.86644991005E+03  0.91823654351E+02 0.  0.
         23    2    4    4    0    0 -0.36995655982E+03  0.15839389492E+03  0.45291528564E+03  0.61201450346E+03  0.86446598357E+02 0.  0.
          1    1    3    3  502    0 -0.11529725928E+03 -0.62254907503E+03 -0.70526928842E+03  0.94776873657E+03  0.00000000000E+00 0. -1.
         -2    1    3    3    0  502  0.13396291277E+02 -0.58907087840E+02 -0.67256400417E+02  0.90404253300E+02  0.00000000000E+00 0.  1.
         11    1    5    5    0    0  0.41972784243E+03  0.45650375650E+03  0.39743827493E+03  0.73656250501E+03  0.00000000000E+00 0. -1.
        -11    1    5    5    0    0  0.52129685398E+02  0.66558511449E+02  0.98606279927E+02  0.12988740504E+03  0.00000000000E+00 0.  1.
          2    1    6    6  503    0 -0.26045712987E+03  0.15098941908E+03  0.31450137451E+03  0.43536976898E+03  0.00000000000E+00 0. -1.
         -2    1    6    6    0  503 -0.10949942995E+03  0.74044758414E+01  0.13841391114E+03  0.17664473447E+03  0.00000000000E+00 0.  1.
<mgrwt>
<rscale>  0 0.25104451E+04</rscale>
<asrwt>0</asrwt>
<pdfrwt beam="1">  1        1 0.18001564E+00 0.25104451E+04</pdfrwt>
<pdfrwt beam="2">  1       -2 0.20715935E+00 0.25104451E+04</pdfrwt>
<totfact> 0.10455569E+00</totfact>
</mgrwt>
</event>
<event>
12    4  0.4207946E-008  0.3583785E+04  0.7818608E-02  0.8094216E-01
         -2   -1    0    0    0  501 -0.00000000000E+00  0.00000000000E+00  0.13250355604E+04  0.13250355604E+04  0.00000000000E+00 0.  1.
          1   -1    0    0  501    0  0.00000000000E+00 -0.00000000000E+00 -0.24232390171E+04  0.24232390171E+04  0.00000000000E+00 0. -1.
        -24    2    1    2    0    0 -0.31012293257E+02  0.14568451729E+04 -0.13856970953E+04  0.20119766588E+04  0.67335098294E+02 0.  0.
        254    2    1    2    0    0  0.31012293257E+02 -0.14568451729E+04  0.28749363864E+03  0.17362979188E+04  0.89928763502E+03 0.  0.
         23    2    4    4    0    0 -0.24562928324E+03 -0.11202614765E+04  0.48568573182E+03  0.12489800218E+04  0.93493017154E+02 0.  0.
         23    2    4    4    0    0  0.27664157650E+03 -0.33658369632E+03 -0.19819209318E+03  0.48731789695E+03  0.91539501926E+02 0.  0.
          3    1    3    3  502    0 -0.50790610474E+02  0.10626711374E+04 -0.99677983423E+03  0.14578819124E+04  0.00000000000E+00 0. -1.
         -4    1    3    3    0  502  0.19778317217E+02  0.39417403541E+03 -0.38891726109E+03  0.55409474640E+03  0.00000000000E+00 0.  1.
         11    1    5    5    0    0 -0.38070162320E+02 -0.10298883929E+03  0.22346128788E+02  0.11205082663E+03  0.00000000000E+00 0.  1.
        -11    1    5    5    0    0 -0.20755912092E+03 -0.10172726372E+04  0.46333960303E+03  0.11369291952E+04  0.00000000000E+00 0. -1.
          3    1    6    6  503    0  0.17558189169E+02 -0.26346030282E+02  0.92726261514E+01  0.32990679202E+02  0.00000000000E+00 0.  1.
         -3    1    6    6    0  503  0.25908338733E+03 -0.31023766604E+03 -0.20746471933E+03  0.45432721774E+03  0.00000000000E+00 0. -1.
<mgrwt>
<rscale>  0 0.35837845E+04</rscale>
<asrwt>0</asrwt>
<pdfrwt beam="1">  1        1 0.37280600E+00 0.35837845E+04</pdfrwt>
<pdfrwt beam="2">  1       -2 0.20385163E+00 0.35837845E+04</pdfrwt>
<totfact> 0.13696111E-01</totfact>
</mgrwt>
</event>
<event>
12    4  0.4207946E-008  0.1224771E+04  0.7818608E-02  0.9091447E-01
         -2   -1    0    0    0  501 -0.00000000000E+00  0.00000000000E+00  0.83792362989E+03  0.83792362989E+03  0.00000000000E+00 0.  1.
          1   -1    0    0  501    0  0.00000000000E+00 -0.00000000000E+00 -0.44755390003E+03  0.44755390003E+03  0.00000000000E+00 0. -1.
        -24    2    1    2    0    0  0.10424343857E+03 -0.12264520566E+03 -0.13831708112E+03  0.22681559807E+03  0.80032241248E+02 0.  0.
        254    2    1    2    0    0 -0.10424343857E+03  0.12264520566E+03  0.52868681098E+03  0.10586619318E+04  0.90296555908E+03 0.  0.
         23    2    4    4    0    0 -0.62766909615E+02 -0.29194453302E+03 -0.72020474359E+02  0.32120790597E+03  0.93895020249E+02 0.  0.
         23    2    4    4    0    0 -0.41476528954E+02  0.41458973869E+03  0.60070728534E+03  0.73745402587E+03  0.96872306365E+02 0.  0.
          1    1    3    3  502    0  0.70206786718E+02 -0.12583554457E+03 -0.12258223930E+03  0.18918240555E+03  0.00000000000E+00 0. -1.
         -2    1    3    3    0  502  0.34036651852E+02  0.31903389099E+01 -0.15734841827E+02  0.37633192516E+02  0.00000000000E+00 0.  1.
         11    1    5    5    0    0 -0.52542582995E+02 -0.61207080530E+02 -0.32105063928E+02  0.86820302146E+02  0.00000000000E+00 0.  1.
        -11    1    5    5    0    0 -0.10224326620E+02 -0.23073745249E+03 -0.39915410431E+02  0.23438760383E+03  0.00000000000E+00 0. -1.
          1    1    6    6  503    0 -0.28848942859E+01  0.34729177562E+03  0.45524278327E+03  0.57259574898E+03  0.00000000000E+00 0. -1.
         -1    1    6    6    0  503 -0.38591634668E+02  0.67297963069E+02  0.14546450207E+03  0.16485827689E+03  0.00000000000E+00 0.  1.
<mgrwt>
<rscale>  0 0.12247710E+04</rscale>
<asrwt>0</asrwt>
<pdfrwt beam="1">  1        1 0.68854446E-01 0.12247710E+04</pdfrwt>
<pdfrwt beam="2">  1       -2 0.12891133E+00 0.12247710E+04</pdfrwt>
<totfact> 0.19751707E+01</totfact>
</mgrwt>
</event>
<event>
12    4  0.4207946E-008  0.1371248E+04  0.7818608E-02  0.8974898E-01
          1   -1    0    0  501    0  0.00000000000E+00  0.00000000000E+00  0.81141611612E+03  0.81141611612E+03  0.00000000000E+00 0. -1.
         -2   -1    0    0    0  501 -0.00000000000E+00 -0.00000000000E+00 -0.57933308849E+03  0.57933308849E+03  0.00000000000E+00 0.  1.
        -24    2    1    2    0    0  0.22780118755E+03 -0.30223730612E+03  0.10202372386E+03  0.39950471122E+03  0.77164783377E+02 0.  0.
        254    2    1    2    0    0 -0.22780118755E+03  0.30223730612E+03  0.13005930378E+03  0.99124449339E+03  0.90686793577E+03 0.  0.
         23    2    4    4    0    0  0.17956963967E+03  0.35590528633E+03  0.32989868614E+03  0.52547129514E+03  0.91504702438E+02 0.  0.
         23    2    4    4    0    0 -0.40737082722E+03 -0.53667980213E+02 -0.19983938237E+03  0.46577319826E+03  0.90430362716E+02 0.  0.
          1    1    3    3  502    0 -0.37992328693E+01 -0.20004583560E+02 -0.22155121230E+00  0.20363364623E+02  0.00000000000E+00 0. -1.
         -2    1    3    3    0  502  0.23160042042E+03 -0.28223272256E+03  0.10224527507E+03  0.37914134659E+03  0.00000000000E+00 0.  1.
         11    1    5    5    0    0  0.17825623668E+03  0.36140190166E+03  0.32773565158E+03  0.51942013607E+03  0.00000000000E+00 0. -1.
        -11    1    5    5    0    0  0.13134029900E+01 -0.54966153330E+01  0.21630345615E+01  0.60511590664E+01  0.00000000000E+00 0.  1.
          2    1    6    6  503    0 -0.10008393516E+03  0.21273783988E+02 -0.69418614673E+02  0.12364591391E+03  0.00000000000E+00 0.  1.
         -2    1    6    6    0  503 -0.30728689205E+03 -0.74941764201E+02 -0.13042076769E+03  0.34212728435E+03  0.00000000000E+00 0. -1.
<mgrwt>
<rscale>  0 0.13712479E+04</rscale>
<asrwt>0</asrwt>
<pdfrwt beam="1">  1        1 0.12483325E+00 0.13712479E+04</pdfrwt>
<pdfrwt beam="2">  1       -2 0.89128167E-01 0.13712479E+04</pdfrwt>
<totfact> 0.19998751E+01</totfact>
</mgrwt>
</event>
<event>
12    4  0.4207946E-008  0.2051685E+04  0.7818608E-02  0.8582830E-01
          1   -1    0    0  501    0  0.00000000000E+00  0.00000000000E+00  0.17408717241E+04  0.17408717241E+04  0.00000000000E+00 0. -1.
         -2   -1    0    0    0  501 -0.00000000000E+00 -0.00000000000E+00 -0.60449744265E+03  0.60449744265E+03  0.00000000000E+00 0.  1.
        -24    2    1    2    0    0  0.21643279344E+03  0.35241646906E+03 -0.34284043097E+03  0.54264594765E+03  0.76710766187E+02 0.  0.
        254    2    1    2    0    0 -0.21643279344E+03 -0.35241646906E+03  0.14792147125E+04  0.18027232191E+04  0.94376602902E+03 0.  0.
         23    2    4    4    0    0 -0.16874620296E+03 -0.61536747111E+03  0.60545810492E+03  0.88445274778E+03  0.92329522487E+02 0.  0.
         23    2    4    4    0    0 -0.47686590479E+02  0.26295100205E+03  0.87375660753E+03  0.91827047136E+03  0.91393703136E+02 0.  0.
          3    1    3    3  502    0  0.29017320701E+02  0.11180194885E+03 -0.10016773844E+03  0.15288968733E+03  0.00000000000E+00 0. -1.
         -4    1    3    3    0  502  0.18741547274E+03  0.24061452021E+03 -0.24267269253E+03  0.38975626032E+03  0.00000000000E+00 0.  1.
         11    1    5    5    0    0 -0.92544968462E+02 -0.17888351870E+03  0.20047445495E+03  0.28417229199E+03  0.00000000000E+00 0. -1.
        -11    1    5    5    0    0 -0.76201234495E+02 -0.43648395241E+03  0.40498364997E+03  0.60028045578E+03  0.00000000000E+00 0.  1.
          1    1    6    6  503    0  0.24706829487E+02  0.11621304683E+03  0.36608053587E+03  0.38487771878E+03  0.00000000000E+00 0. -1.
         -1    1    6    6    0  503 -0.72393419966E+02  0.14673795522E+03  0.50767607167E+03  0.53339275258E+03  0.00000000000E+00 0.  1.
<mgrwt>
<rscale>  0 0.20516847E+04</rscale>
<asrwt>0</asrwt>
<pdfrwt beam="1">  1        1 0.26782642E+00 0.20516847E+04</pdfrwt>
<pdfrwt beam="2">  1       -2 0.92999607E-01 0.20516847E+04</pdfrwt>
<totfact> 0.35499035E+00</totfact>
</mgrwt>
</event>
<event>
12    4  0.4399463E-008  0.1332116E+04  0.7818608E-02  0.9004478E-01
         -4   -1    0    0    0  501 -0.00000000000E+00  0.00000000000E+00  0.11595364022E+04  0.11595364022E+04  0.00000000000E+00 0.  1.
          3   -1    0    0  501    0  0.00000000000E+00 -0.00000000000E+00 -0.38259532462E+03  0.38259532462E+03  0.00000000000E+00 0. -1.
        -24    2    1    2    0    0  0.14940983948E+03 -0.25238266498E+03 -0.28539381099E+02  0.30532043473E+03  0.79910962175E+02 0.  0.
        254    2    1    2    0    0 -0.14940983948E+03  0.25238266498E+03  0.80548045865E+03  0.12368112921E+04  0.89156216450E+03 0.  0.
         23    2    4    4    0    0 -0.17441274555E+03  0.33462910416E+03  0.96162248950E+03  0.10366315282E+04  0.86548656010E+02 0.  0.
         23    2    4    4    0    0  0.25002906067E+02 -0.82246439182E+02 -0.15614203085E+03  0.20017976382E+03  0.91115212637E+02 0.  0.
          3    1    3    3  502    0  0.14556104347E+03 -0.25848726569E+03 -0.29123132385E+02  0.29808025889E+03  0.00000000000E+00 0. -1.
         -4    1    3    3    0  502  0.38487960088E+01  0.61046007145E+01  0.58375128612E+00  0.72401758380E+01  0.00000000000E+00 0.  1.
         11    1    5    5    0    0 -0.40521143555E+02  0.62428868846E+02  0.11195202351E+03  0.13443430481E+03  0.00000000000E+00 0. -1.
        -11    1    5    5    0    0 -0.13389160199E+03  0.27220023531E+03  0.84967046599E+03  0.90219722343E+03  0.00000000000E+00 0.  1.
          3    1    6    6  503    0  0.16682011384E+02 -0.10288895853E+02  0.76852950832E+01  0.21052663542E+02  0.00000000000E+00 0. -1.
         -3    1    6    6    0  503  0.83208946828E+01 -0.71957543329E+02 -0.16382732594E+03  0.17912710028E+03  0.00000000000E+00 0.  1.
<mgrwt>
<rscale>  0 0.13321159E+04</rscale>
<asrwt>0</asrwt>
<pdfrwt beam="1">  1        3 0.58860820E-01 0.13321159E+04</pdfrwt>
<pdfrwt beam="2">  1       -4 0.17839021E+00 0.13321159E+04</pdfrwt>
<totfact> 0.11666971E+00</totfact>
</mgrwt>
</event>
<event>
12    4  0.4207946E-008  0.1311971E+04  0.7818608E-02  0.9020125E-01
         -2   -1    0    0    0  501 -0.00000000000E+00  0.00000000000E+00  0.90059364068E+03  0.90059364068E+03  0.00000000000E+00 0.  1.
          1   -1    0    0  501    0  0.00000000000E+00 -0.00000000000E+00 -0.47781495492E+03  0.47781495492E+03  0.00000000000E+00 0. -1.
        -24    2    1    2    0    0  0.26386687559E+03 -0.14191404062E+03 -0.32894903855E+02  0.31215893588E+03  0.81214552865E+02 0.  0.
        254    2    1    2    0    0 -0.26386687559E+03  0.14191404062E+03  0.45567358961E+03  0.10662496597E+04  0.91623391862E+03 0.  0.
         23    2    4    4    0    0 -0.12555355481E+03  0.27817425563E+03 -0.19908006885E+03  0.37569004496E+03  0.91463240968E+02 0.  0.
         23    2    4    4    0    0 -0.13831332077E+03 -0.13626021501E+03  0.65475365845E+03  0.69055961476E+03  0.10233673524E+03 0.  0.
          3    1    3    3  502    0  0.11208812413E+03 -0.17150389344E+02 -0.21021080156E+02  0.11532462546E+03  0.00000000000E+00 0. -1.
         -4    1    3    3    0  502  0.15177875145E+03 -0.12476365127E+03 -0.11873823699E+02  0.19683431043E+03  0.00000000000E+00 0.  1.
         11    1    5    5    0    0 -0.71326247460E+02  0.58805550792E+02 -0.51915218682E+02  0.10602224442E+03  0.00000000000E+00 0. -1.
        -11    1    5    5    0    0 -0.54227307352E+02  0.21936870484E+03 -0.14716485016E+03  0.26966780054E+03  0.00000000000E+00 0.  1.
          1    1    6    6  503    0 -0.36863744376E+02 -0.83009893442E+02  0.41516428764E+03  0.42498348649E+03  0.00000000000E+00 0. -1.
         -1    1    6    6    0  503 -0.10144957640E+03 -0.53250321569E+02  0.23958937081E+03  0.26557612827E+03  0.00000000000E+00 0.  1.
<mgrwt>
<rscale>  0 0.13119712E+04</rscale>
<asrwt>0</asrwt>
<pdfrwt beam="1">  1        1 0.73509993E-01 0.13119712E+04</pdfrwt>
<pdfrwt beam="2">  1       -2 0.13855287E+00 0.13119712E+04</pdfrwt>
<totfact> 0.14931416E+01</totfact>
</mgrwt>
</event>
<event>
12    4  0.4207946E-008  0.1361420E+04  0.7818608E-02  0.8982228E-01
         -2   -1    0    0    0  501 -0.00000000000E+00  0.00000000000E+00  0.59441880585E+03  0.59441880585E+03  0.00000000000E+00 0.  1.
          1   -1    0    0  501    0  0.00000000000E+00 -0.00000000000E+00 -0.77952747631E+03  0.77952747631E+03  0.00000000000E+00 0. -1.
        -24    2    1    2    0    0  0.66275772670E+02  0.26121252982E+03  0.21580633964E+03  0.35409932350E+03  0.78673317552E+02 0.  0.
        254    2    1    2    0    0 -0.66275772670E+02 -0.26121252982E+03 -0.40091501010E+03  0.10198469587E+04  0.89818178002E+03 0.  0.
         23    2    4    4    0    0  0.37379572895E+03 -0.10619563811E+03 -0.31848700306E+01  0.39951409847E+03  0.92739478914E+02 0.  0.
         23    2    4    4    0    0 -0.44007150162E+03 -0.15501689172E+03 -0.39773014007E+03  0.62033286018E+03  0.94500951575E+02 0.  0.
          3    1    3    3  502    0  0.44848144619E+02  0.46469850560E+02  0.57268498122E+02  0.86316185991E+02  0.00000000000E+00 0. -1.
         -4    1    3    3    0  502  0.21427628051E+02  0.21474267926E+03  0.15853784152E+03  0.26778313751E+03  0.00000000000E+00 0.  1.
         11    1    5    5    0    0  0.30357744205E+03 -0.96072373407E+02  0.32553846154E+02  0.32007642392E+03  0.00000000000E+00 0. -1.
        -11    1    5    5    0    0  0.70218286897E+02 -0.10123264702E+02 -0.35738716184E+02  0.79437674548E+02  0.00000000000E+00 0.  1.
          3    1    6    6  503    0 -0.16666992655E+03 -0.88992401998E+02 -0.20832289111E+03  0.28124178031E+03  0.00000000000E+00 0. -1.
         -3    1    6    6    0  503 -0.27340157507E+03 -0.66024489718E+02 -0.18940724895E+03  0.33909107987E+03  0.00000000000E+00 0.  1.
<mgrwt>
<rscale>  0 0.13614195E+04</rscale>
<asrwt>0</asrwt>
<pdfrwt beam="1">  1        1 0.11992730E+00 0.13614195E+04</pdfrwt>
<pdfrwt beam="2">  1       -2 0.91449048E-01 0.13614195E+04</pdfrwt>
<totfact> 0.20109921E+01</totfact>
</mgrwt>
</event>
<event>
12    4  0.4207946E-008  0.1157297E+04  0.7818608E-02  0.9151078E-01
         -2   -1    0    0    0  501 -0.00000000000E+00  0.00000000000E+00  0.73554831583E+03  0.73554831583E+03  0.00000000000E+00 0.  1.
          1   -1    0    0  501    0  0.00000000000E+00 -0.00000000000E+00 -0.45521694135E+03  0.45521694135E+03  0.00000000000E+00 0. -1.
        -24    2    1    2    0    0  0.15207159351E+03  0.49375384861E+02 -0.89398623773E+02  0.19855993703E+03  0.76617468508E+02 0.  0.
        254    2    1    2    0    0 -0.15207159351E+03 -0.49375384861E+02  0.36972999825E+03  0.99220532014E+03  0.90675654259E+03 0.  0.
         23    2    4    4    0    0 -0.22139021044E+03  0.37799038391E+03  0.59428997651E+02  0.45173378981E+03  0.92958353494E+02 0.  0.
         23    2    4    4    0    0  0.69318616938E+02 -0.42736576877E+03  0.31030100060E+03  0.54047153033E+03  0.91521544740E+02 0.  0.
          3    1    3    3  502    0  0.10290791186E+03 -0.83774005754E+00 -0.31845023411E+02  0.10772578915E+03  0.00000000000E+00 0. -1.
         -4    1    3    3    0  502  0.49163681645E+02  0.50213124918E+02 -0.57553600362E+02  0.90834147883E+02  0.00000000000E+00 0.  1.
         11    1    5    5    0    0 -0.19093936390E+03  0.24177541054E+03  0.35465094820E+02  0.31011443498E+03  0.00000000000E+00 0. -1.
        -11    1    5    5    0    0 -0.30450846546E+02  0.13621497337E+03  0.23963902831E+02  0.14161935483E+03  0.00000000000E+00 0.  1.
          3    1    6    6  503    0  0.87050222536E+02 -0.31701344745E+03  0.20849877587E+03  0.38929038858E+03  0.00000000000E+00 0. -1.
         -3    1    6    6    0  503 -0.17731605598E+02 -0.11035232133E+03  0.10180222474E+03  0.15118114175E+03  0.00000000000E+00 0.  1.
<mgrwt>
<rscale>  0 0.11572969E+04</rscale>
<asrwt>0</asrwt>
<pdfrwt beam="1">  1        1 0.70033375E-01 0.11572969E+04</pdfrwt>
<pdfrwt beam="2">  1       -2 0.11316128E+00 0.11572969E+04</pdfrwt>
<totfact> 0.26821722E+01</totfact>
</mgrwt>
</event>
<event>
12    4  0.4207946E-008  0.1546183E+04  0.7818608E-02  0.8854309E-01
          1   -1    0    0  501    0  0.00000000000E+00  0.00000000000E+00  0.12910504324E+04  0.12910504324E+04  0.00000000000E+00 0. -1.
         -2   -1    0    0    0  501 -0.00000000000E+00 -0.00000000000E+00 -0.46293366532E+03  0.46293366532E+03  0.00000000000E+00 0.  1.
        -24    2    1    2    0    0 -0.10820159246E+03 -0.48700657909E+03  0.18565118156E+03  0.53814758911E+03  0.79078908459E+02 0.  0.
        254    2    1    2    0    0  0.10820159246E+03  0.48700657909E+03  0.64246558555E+03  0.12158365086E+04  0.90366663899E+03 0.  0.
         23    2    4    4    0    0 -0.26645131923E+03  0.48070222309E+03  0.12525091917E+03  0.57066071768E+03  0.88853413798E+02 0.  0.
         23    2    4    4    0    0  0.37465291169E+03  0.63043560004E+01  0.51721466637E+03  0.64517579095E+03  0.91303017373E+02 0.  0.
          1    1    3    3  502    0 -0.89712608547E+02 -0.47374159520E+03  0.17412118254E+03  0.51263792033E+03  0.00000000000E+00 0. -1.
         -2    1    3    3    0  502 -0.18488983914E+02 -0.13264983893E+02  0.11529999022E+02  0.25509668780E+02  0.00000000000E+00 0.  1.
         11    1    5    5    0    0 -0.11716633507E+03  0.18963298225E+03  0.94451007853E+02  0.24209421908E+03  0.00000000000E+00 0. -1.
        -11    1    5    5    0    0 -0.14928498416E+03  0.29106924084E+03  0.30799911320E+02  0.32856649859E+03  0.00000000000E+00 0.  1.
          2    1    6    6  503    0  0.12622218887E+03 -0.64135911843E+01  0.10780093466E+03  0.16611507045E+03  0.00000000000E+00 0. -1.
         -2    1    6    6    0  503  0.24843072282E+03  0.12717947185E+02  0.40941373171E+03  0.47906072051E+03  0.00000000000E+00 0.  1.
<mgrwt>
<rscale>  0 0.15461833E+04</rscale>
<asrwt>0</asrwt>
<pdfrwt beam="1">  1        1 0.19862314E+00 0.15461833E+04</pdfrwt>
<pdfrwt beam="2">  1       -2 0.71220564E-01 0.15461833E+04</pdfrwt>
<totfact> 0.13890705E+01</totfact>
</mgrwt>
</event>
<event>
12    4  0.4207946E-008  0.1636585E+04  0.7818608E-02  0.8798383E-01
          1   -1    0    0  501    0  0.00000000000E+00  0.00000000000E+00  0.95352901873E+03  0.95352901873E+03  0.00000000000E+00 0. -1.
         -2   -1    0    0    0  501 -0.00000000000E+00 -0.00000000000E+00 -0.70223579549E+03  0.70223579549E+03  0.00000000000E+00 0.  1.
        -24    2    1    2    0    0  0.38167308209E+03  0.20476597727E+03  0.45703650400E+03  0.63478968044E+03  0.80449520643E+02 0.  0.
        254    2    1    2    0    0 -0.38167308209E+03 -0.20476597727E+03 -0.20574328076E+03  0.10209751338E+04  0.90136367753E+03 0.  0.
         23    2    4    4    0    0 -0.57330562278E+03 -0.40184109651E+03 -0.10431715084E+03  0.71372273976E+03  0.91446581886E+02 0.  0.
         23    2    4    4    0    0  0.19163254069E+03  0.19707511924E+03 -0.10142612992E+03  0.30725239402E+03  0.92494002637E+02 0.  0.
          1    1    3    3  502    0  0.32275532435E+03  0.20360431776E+03  0.39646407023E+03  0.55028127044E+03  0.00000000000E+00 0. -1.
         -2    1    3    3    0  502  0.58917757737E+02  0.11616595105E+01  0.60572433764E+02  0.84508410005E+02  0.00000000000E+00 0.  1.
         11    1    5    5    0    0 -0.12290572563E+03 -0.49406714830E+02 -0.44107277520E+00  0.13246522339E+03  0.00000000000E+00 0. -1.
        -11    1    5    5    0    0 -0.45039989715E+03 -0.35243438168E+03 -0.10387607807E+03  0.58125751637E+03  0.00000000000E+00 0.  1.
          1    1    6    6  503    0  0.71365315862E+02  0.67573611238E+02 -0.84674348085E+02  0.12972642933E+03  0.00000000000E+00 0. -1.
         -1    1    6    6    0  503  0.12026722483E+03  0.12950150800E+03 -0.16751781837E+02  0.17752596468E+03  0.00000000000E+00 0.  1.
<mgrwt>
<rscale>  0 0.16365845E+04</rscale>
<asrwt>0</asrwt>
<pdfrwt beam="1">  1        1 0.14669677E+00 0.16365845E+04</pdfrwt>
<pdfrwt beam="2">  1       -2 0.10803628E+00 0.16365845E+04</pdfrwt>
<totfact> 0.94762315E+00</totfact>
</mgrwt>
</event>
<event>
12    4  0.4207946E-008  0.1919448E+04  0.7818608E-02  0.8645236E-01
         -2   -1    0    0    0  501 -0.00000000000E+00  0.00000000000E+00  0.46338724404E+03  0.46338724404E+03  0.00000000000E+00 0.  1.
          1   -1    0    0  501    0  0.00000000000E+00 -0.00000000000E+00 -0.19876903099E+04  0.19876903099E+04  0.00000000000E+00 0. -1.
        -24    2    1    2    0    0  0.67841490198E+03 -0.24491000582E+03 -0.35047810773E+03  0.80572883502E+03  0.78334930922E+02 0.  0.
        254    2    1    2    0    0 -0.67841490198E+03  0.24491000582E+03 -0.11738249582E+04  0.16453487190E+04  0.89948856824E+03 0.  0.
         23    2    4    4    0    0 -0.24222335439E+02  0.44660862281E+03 -0.38566810438E+03  0.59742985281E+03  0.90202875713E+02 0.  0.
         23    2    4    4    0    0 -0.65419256654E+03 -0.20169861699E+03 -0.78815685378E+03  0.10479188661E+04  0.91063042206E+02 0.  0.
          3    1    3    3  502    0  0.62992946822E+03 -0.20453089939E+03 -0.31599651046E+03  0.73382410587E+03  0.00000000000E+00 0. -1.
         -4    1    3    3    0  502  0.48485433761E+02 -0.40379106436E+02 -0.34481597271E+02  0.71904729148E+02  0.00000000000E+00 0.  1.
         11    1    5    5    0    0 -0.30930457735E+02  0.91114983749E+02 -0.11871022513E+03  0.15280952532E+03  0.00000000000E+00 0.  1.
        -11    1    5    5    0    0  0.67081222959E+01  0.35549363906E+03 -0.26695787925E+03  0.44462032748E+03  0.00000000000E+00 0. -1.
          2    1    6    6  503    0 -0.35698423063E+03 -0.73002832011E+02 -0.46033573500E+03  0.58709125638E+03  0.00000000000E+00 0. -1.
         -2    1    6    6    0  503 -0.29720833592E+03 -0.12869578498E+03 -0.32782111878E+03  0.46082760977E+03  0.00000000000E+00 0.  1.
<mgrwt>
<rscale>  0 0.19194482E+04</rscale>
<asrwt>0</asrwt>
<pdfrwt beam="1">  1        1 0.30579851E+00 0.19194482E+04</pdfrwt>
<pdfrwt beam="2">  1       -2 0.71290344E-01 0.19194482E+04</pdfrwt>
<totfact> 0.44504634E+00</totfact>
</mgrwt>
</event>
<event>
12    4  0.4207946E-008  0.1422538E+04  0.7818608E-02  0.8937664E-01
         -2   -1    0    0    0  501 -0.00000000000E+00  0.00000000000E+00  0.22817803474E+03  0.22817803474E+03  0.00000000000E+00 0.  1.
          1   -1    0    0  501    0  0.00000000000E+00 -0.00000000000E+00 -0.22171431932E+04  0.22171431932E+04  0.00000000000E+00 0. -1.
        -24    2    1    2    0    0  0.18212516106E+03  0.33061088450E+03 -0.88489093813E+03  0.96547567807E+03  0.81475034850E+02 0.  0.
        254    2    1    2    0    0 -0.18212516106E+03 -0.33061088450E+03 -0.11040742203E+04  0.14798455498E+04  0.91021417054E+03 0.  0.
         23    2    4    4    0    0 -0.38016516923E+03 -0.26776535707E+03 -0.14472092476E+03  0.49416056202E+03  0.83825250641E+02 0.  0.
         23    2    4    4    0    0  0.19804000817E+03 -0.62845527425E+02 -0.95935329553E+03  0.98568498783E+03  0.89703647853E+02 0.  0.
          3    1    3    3  502    0  0.15640261036E+03  0.30310581065E+03 -0.84164834920E+03  0.90813371961E+03  0.00000000000E+00 0. -1.
         -4    1    3    3    0  502  0.25722550703E+02  0.27505073848E+02 -0.43242588932E+02  0.57341958456E+02  0.00000000000E+00 0.  1.
         11    1    5    5    0    0 -0.18544725516E+03 -0.80211286614E+02 -0.66634659085E+02  0.21275505337E+03  0.00000000000E+00 0.  1.
        -11    1    5    5    0    0 -0.19471791408E+03 -0.18755407046E+03 -0.78086265678E+02  0.28140550864E+03  0.00000000000E+00 0. -1.
          2    1    6    6  503    0  0.10586569129E+03 -0.55600095445E+02 -0.70454681648E+03  0.71462237008E+03  0.00000000000E+00 0. -1.
         -2    1    6    6    0  503  0.92174316876E+02 -0.72454319803E+01 -0.25480647905E+03  0.27106261775E+03  0.00000000000E+00 0.  1.
<mgrwt>
<rscale>  0 0.14225377E+04</rscale>
<asrwt>0</asrwt>
<pdfrwt beam="1">  1        1 0.34109894E+00 0.14225377E+04</pdfrwt>
<pdfrwt beam="2">  1       -2 0.35104314E-01 0.14225377E+04</pdfrwt>
<totfact> 0.13827699E+01</totfact>
</mgrwt>
</event>
<event>
12    4  0.4207946E-008  0.1653666E+04  0.7818608E-02  0.8788240E-01
         -2   -1    0    0    0  501 -0.00000000000E+00  0.00000000000E+00  0.77656484178E+03  0.77656484178E+03  0.00000000000E+00 0.  1.
          1   -1    0    0  501    0  0.00000000000E+00 -0.00000000000E+00 -0.88035548213E+03  0.88035548213E+03  0.00000000000E+00 0. -1.
        -24    2    1    2    0    0 -0.17187156579E+03  0.48339152946E+01 -0.58520474271E+03  0.61647158745E+03  0.89495393058E+02 0.  0.
        254    2    1    2    0    0  0.17187156579E+03 -0.48339152946E+01  0.48141410237E+03  0.10404487365E+04  0.90620683808E+03 0.  0.
         23    2    4    4    0    0  0.51945305045E+03 -0.12723810396E+03  0.28686450574E+03  0.61376388669E+03  0.91617996192E+02 0.  0.
         23    2    4    4    0    0 -0.34758148466E+03  0.12240418867E+03  0.19454959663E+03  0.42668484977E+03  0.91731900652E+02 0.  0.
          3    1    3    3  502    0 -0.16762950758E+03 -0.79204034852E+01 -0.57656966253E+03  0.60049559562E+03  0.00000000000E+00 0. -1.
         -4    1    3    3    0  502 -0.42420582155E+01  0.12754318780E+02 -0.86350801796E+01  0.15975991836E+02  0.00000000000E+00 0.  1.
         11    1    5    5    0    0  0.23114892686E+03 -0.53799022118E+02  0.17915473976E+03  0.29735598522E+03  0.00000000000E+00 0. -1.
        -11    1    5    5    0    0  0.28830412359E+03 -0.73439081846E+02  0.10770976598E+03  0.31640790147E+03  0.00000000000E+00 0.  1.
          3    1    6    6  503    0 -0.73931575059E+02  0.68264991181E+02  0.46005289165E+02  0.11064571136E+03  0.00000000000E+00 0. -1.
         -3    1    6    6    0  503 -0.27364990960E+03  0.54139197488E+02  0.14854430746E+03  0.31603913841E+03  0.00000000000E+00 0.  1.
<mgrwt>
<rscale>  0 0.16536664E+04</rscale>
<asrwt>0</asrwt>
<pdfrwt beam="1">  1        1 0.13543931E+00 0.16536664E+04</pdfrwt>
<pdfrwt beam="2">  1       -2 0.11947151E+00 0.16536664E+04</pdfrwt>
<totfact> 0.84880140E+00</totfact>
</mgrwt>
</event>
<event>
12    4  0.4207946E-008  0.2660362E+04  0.7818608E-02  0.8347982E-01
         -2   -1    0    0    0  501 -0.00000000000E+00  0.00000000000E+00  0.58132791339E+03  0.58132791339E+03  0.00000000000E+00 0.  1.
          1   -1    0    0  501    0  0.00000000000E+00 -0.00000000000E+00 -0.30436898315E+04  0.30436898315E+04  0.00000000000E+00 0. -1.
        -24    2    1    2    0    0  0.11112451460E+04 -0.13114871371E+03 -0.15968869307E+04  0.19514511487E+04  0.77768611810E+02 0.  0.
        254    2    1    2    0    0 -0.11112451460E+04  0.13114871371E+03 -0.86547498740E+03  0.16735665961E+04  0.89426642466E+03 0.  0.
         23    2    4    4    0    0 -0.10595095272E+04  0.20806748286E+03 -0.10093073067E+04  0.14808371969E+04  0.91241705350E+02 0.  0.
         23    2    4    4    0    0 -0.51735618764E+02 -0.76918769152E+02  0.14383231925E+03  0.19272939921E+03  0.88678148170E+02 0.  0.
          1    1    3    3  502    0  0.91273159947E+03 -0.10644452041E+03 -0.12570555561E+04  0.15571120960E+04  0.00000000000E+00 0. -1.
         -2    1    3    3    0  502  0.19851354650E+03 -0.24704193293E+02 -0.33983137461E+03  0.39433905269E+03  0.00000000000E+00 0.  1.
         11    1    5    5    0    0 -0.64938389280E+03  0.12419884459E+03 -0.55661192394E+03  0.86425784757E+03  0.00000000000E+00 0.  1.
        -11    1    5    5    0    0 -0.41012563441E+03  0.83868638263E+02 -0.45269538272E+03  0.61657934933E+03  0.00000000000E+00 0. -1.
          4    1    6    6  503    0 -0.50510069427E+02 -0.62642079402E+02  0.15494602789E+03  0.17459544319E+03  0.00000000000E+00 0. -1.
         -4    1    6    6    0  503 -0.12255493377E+01 -0.14276689751E+02 -0.11113708634E+02  0.18133956023E+02  0.00000000000E+00 0.  1.
<mgrwt>
<rscale>  0 0.26603623E+04</rscale>
<asrwt>0</asrwt>
<pdfrwt beam="1">  1        1 0.46825997E+00 0.26603623E+04</pdfrwt>
<pdfrwt beam="2">  1       -2 0.89435065E-01 0.26603623E+04</pdfrwt>
<totfact> 0.45870635E-01</totfact>
</mgrwt>
</event>
<event>
12    4  0.4207946E-008  0.2204520E+04  0.7818608E-02  0.8516549E-01
          1   -1    0    0  501    0  0.00000000000E+00  0.00000000000E+00  0.13007756973E+04  0.13007756973E+04  0.00000000000E+00 0. -1.
         -2   -1    0    0    0  501 -0.00000000000E+00 -0.00000000000E+00 -0.93404016285E+03  0.93404016285E+03  0.00000000000E+00 0.  1.
        -24    2    1    2    0    0  0.67515704715E+03  0.60104189393E+03  0.30648262283E+03  0.95795433626E+03  0.81587472685E+02 0.  0.
        254    2    1    2    0    0 -0.67515704715E+03 -0.60104189393E+03  0.60252911650E+02  0.12768615239E+04  0.89980916939E+03 0.  0.
         23    2    4    4    0    0 -0.24774567853E+03 -0.59377546070E+03 -0.29496111567E+03  0.71370252975E+03  0.91771576507E+02 0.  0.
         23    2    4    4    0    0 -0.42741136862E+03 -0.72664332305E+01  0.35521402732E+03  0.56315899417E+03  0.90762153042E+02 0.  0.
          3    1    3    3  502    0  0.41110535020E+03  0.39054758370E+03  0.22872237881E+03  0.61143188555E+03  0.00000000000E+00 0. -1.
         -4    1    3    3    0  502  0.26405169695E+03  0.21049431023E+03  0.77760244019E+02  0.34652245071E+03  0.00000000000E+00 0.  1.
         11    1    5    5    0    0 -0.15681966139E+03 -0.42733587503E+03 -0.24776195854E+03  0.51826088448E+03  0.00000000000E+00 0.  1.
        -11    1    5    5    0    0 -0.90926017142E+02 -0.16643958566E+03 -0.47199157135E+02  0.19544164526E+03  0.00000000000E+00 0. -1.
          2    1    6    6  503    0 -0.23542303460E+03 -0.48997886866E+02  0.20024267562E+03  0.31292479492E+03  0.00000000000E+00 0.  1.
         -2    1    6    6    0  503 -0.19198833402E+03  0.41731453635E+02  0.15497135171E+03  0.25023419925E+03  0.00000000000E+00 0. -1.
<mgrwt>
<rscale>  0 0.22045197E+04</rscale>
<asrwt>0</asrwt>
<pdfrwt beam="1">  1        1 0.20011934E+00 0.22045197E+04</pdfrwt>
<pdfrwt beam="2">  1       -2 0.14369849E+00 0.22045197E+04</pdfrwt>
<totfact> 0.24241904E+00</totfact>
</mgrwt>
</event>
<event>
12    4  0.4207946E-008  0.1155220E+04  0.7818608E-02  0.9152981E-01
          3   -1    0    0  501    0  0.00000000000E+00  0.00000000000E+00  0.93745469083E+03  0.93745469083E+03  0.00000000000E+00 0. -1.
         -4   -1    0    0    0  501 -0.00000000000E+00 -0.00000000000E+00 -0.35589285357E+03  0.35589285357E+03  0.00000000000E+00 0.  1.
        -24    2    1    2    0    0  0.48135166571E+02 -0.18701300219E+03  0.12806263761E+02  0.20985223748E+03  0.81136329309E+02 0.  0.
        254    2    1    2    0    0 -0.48135166571E+02  0.18701300219E+03  0.56875557350E+03  0.10834953069E+04  0.90176954954E+03 0.  0.
         23    2    4    4    0    0 -0.43531021037E+03  0.34143994063E+02  0.46422827760E+03  0.64354996859E+03  0.89374922428E+02 0.  0.
         23    2    4    4    0    0  0.38717504380E+03  0.15286900813E+03  0.10452729590E+03  0.43994533833E+03  0.96708308515E+02 0.  0.
          3    1    3    3  502    0 -0.16480262310E+01 -0.89220026941E+02  0.38440306148E+02  0.97162679742E+02  0.00000000000E+00 0. -1.
         -4    1    3    3    0  502  0.49783192802E+02 -0.97792975252E+02 -0.25634042387E+02  0.11268955774E+03  0.00000000000E+00 0.  1.
         11    1    5    5    0    0 -0.32410814528E+01 -0.10666037971E+02  0.14532573338E+02  0.18315694440E+02  0.00000000000E+00 0. -1.
        -11    1    5    5    0    0 -0.43206912892E+03  0.44810032034E+02  0.44969570427E+03  0.62523427415E+03  0.00000000000E+00 0.  1.
          3    1    6    6  503    0  0.96009642094E+02  0.34034216255E+02 -0.16088336436E+02  0.10312620336E+03  0.00000000000E+00 0. -1.
         -3    1    6    6    0  503  0.29116540171E+03  0.11883479188E+03  0.12061563233E+03  0.33681913496E+03  0.00000000000E+00 0.  1.
<mgrwt>
<rscale>  0 0.11552202E+04</rscale>
<asrwt>0</asrwt>
<pdfrwt beam="1">  1        3 0.14422380E+00 0.11552202E+04</pdfrwt>
<pdfrwt beam="2">  1       -4 0.54752747E-01 0.11552202E+04</pdfrwt>
<totfact> 0.25841109E+00</totfact>
</mgrwt>
</event>
<event>
12    4  0.4207946E-008  0.3739551E+04  0.7818608E-02  0.8059253E-01
         -2   -1    0    0    0  501 -0.00000000000E+00  0.00000000000E+00  0.17823101619E+04  0.17823101619E+04  0.00000000000E+00 0.  1.
          1   -1    0    0  501    0  0.00000000000E+00 -0.00000000000E+00 -0.19615330497E+04  0.19615330497E+04  0.00000000000E+00 0. -1.
        -24    2    1    2    0    0 -0.49228854872E+03 -0.66523765465E+03 -0.16380975314E+04  0.18370447833E+04  0.80503796855E+02 0.  0.
        254    2    1    2    0    0  0.49228854872E+03  0.66523765465E+03  0.14588746436E+04  0.19067984282E+04  0.90701481117E+03 0.  0.
         23    2    4    4    0    0  0.66988725237E+03  0.72852737643E+03  0.10347105032E+04  0.14348406441E+04  0.92955792982E+02 0.  0.
         23    2    4    4    0    0 -0.17759870366E+03 -0.63289721781E+02  0.42416414036E+03  0.47195778406E+03  0.85334890552E+02 0.  0.
          3    1    3    3  502    0 -0.49301827933E+03 -0.65031098397E+03 -0.15994632519E+04  0.17956208101E+04  0.00000000000E+00 0. -1.
         -4    1    3    3    0  502  0.72973061904E+00 -0.14926670679E+02 -0.38634279486E+02  0.41423973201E+02  0.00000000000E+00 0.  1.
         11    1    5    5    0    0  0.32689019393E+03  0.39605096187E+03  0.59004466113E+03  0.78221880917E+03  0.00000000000E+00 0.  1.
        -11    1    5    5    0    0  0.34299705844E+03  0.33247641456E+03  0.44466584210E+03  0.65262183496E+03  0.00000000000E+00 0. -1.
          3    1    6    6  503    0 -0.12746403138E+03 -0.82929114977E+02  0.33303637019E+03  0.36611137824E+03  0.00000000000E+00 0. -1.
         -3    1    6    6    0  503 -0.50134672282E+02  0.19639393195E+02  0.91127770167E+02  0.10584640582E+03  0.00000000000E+00 0.  1.
<mgrwt>
<rscale>  0 0.37395509E+04</rscale>
<asrwt>0</asrwt>
<pdfrwt beam="1">  1        1 0.30177431E+00 0.37395509E+04</pdfrwt>
<pdfrwt beam="2">  1       -2 0.27420157E+00 0.37395509E+04</pdfrwt>
<totfact> 0.10164017E-01</totfact>
</mgrwt>
</event>
<event>
12    4  0.4207946E-008  0.1668533E+04  0.7818608E-02  0.8779517E-01
         -2   -1    0    0    0  501 -0.00000000000E+00  0.00000000000E+00  0.26845321094E+03  0.26845321094E+03  0.00000000000E+00 0.  1.
          1   -1    0    0  501    0  0.00000000000E+00 -0.00000000000E+00 -0.25926328937E+04  0.25926328937E+04  0.00000000000E+00 0. -1.
        -24    2    1    2    0    0  0.15289386025E+03  0.38988381950E+03 -0.12127636026E+03  0.44310280472E+03  0.79032998077E+02 0.  0.
        254    2    1    2    0    0 -0.15289386025E+03 -0.38988381950E+03 -0.22029033225E+04  0.24179832999E+04  0.90469567550E+03 0.  0.
         23    2    4    4    0    0 -0.46112137098E+03  0.23530505528E+02 -0.94804647761E+03  0.10582252165E+04  0.88667253071E+02 0.  0.
         23    2    4    4    0    0  0.30822751073E+03 -0.41341432503E+03 -0.12548568449E+04  0.13597580834E+04  0.91437091208E+02 0.  0.
          1    1    3    3  502    0  0.26396912425E+02  0.74055748370E+02  0.82725181032E+01  0.79053686871E+02  0.00000000000E+00 0. -1.
         -2    1    3    3    0  502  0.12649694782E+03  0.31582807113E+03 -0.12954887837E+03  0.36404911785E+03  0.00000000000E+00 0.  1.
         11    1    5    5    0    0 -0.23145034716E+03  0.15686876957E+02 -0.57558179430E+03  0.62057210962E+03  0.00000000000E+00 0. -1.
        -11    1    5    5    0    0 -0.22967102382E+03  0.78436285716E+01 -0.37246468331E+03  0.43765310693E+03  0.00000000000E+00 0.  1.
          4    1    6    6  503    0  0.11342627030E+03 -0.14410421468E+03 -0.33853063023E+03  0.38501237783E+03  0.00000000000E+00 0. -1.
         -4    1    6    6    0  503  0.19480124043E+03 -0.26931011035E+03 -0.91632621468E+03  0.97474570557E+03  0.00000000000E+00 0.  1.
<mgrwt>
<rscale>  0 0.16685330E+04</rscale>
<asrwt>0</asrwt>
<pdfrwt beam="1">  1        1 0.39886659E+00 0.16685330E+04</pdfrwt>
<pdfrwt beam="2">  1       -2 0.41300495E-01 0.16685330E+04</pdfrwt>
<totfact> 0.54446100E+00</totfact>
</mgrwt>
</event>
<event>
12    4  0.4207946E-008  0.1293727E+04  0.7818608E-02  0.9034555E-01
          1   -1    0    0  501    0  0.00000000000E+00  0.00000000000E+00  0.75801319588E+03  0.75801319588E+03  0.00000000000E+00 0. -1.
         -2   -1    0    0    0  501 -0.00000000000E+00 -0.00000000000E+00 -0.55201194346E+03  0.55201194346E+03  0.00000000000E+00 0.  1.
        -24    2    1    2    0    0 -0.19710456604E+03  0.17714117431E+03  0.28485853780E+03  0.39701167145E+03  0.79023256860E+02 0.  0.
        254    2    1    2    0    0  0.19710456604E+03 -0.17714117431E+03 -0.78857285384E+02  0.91301346789E+03  0.87014131927E+03 0.  0.
         23    2    4    4    0    0  0.46894748336E+03  0.47484159752E+02  0.12647006002E+03  0.49651704255E+03  0.91476827050E+02 0.  0.
         23    2    4    4    0    0 -0.27184291732E+03 -0.22462533406E+03 -0.20532734541E+03  0.41649642534E+03  0.83395690207E+02 0.  0.
          3    1    3    3  502    0 -0.27610108984E+02  0.54915887672E+02  0.10322611559E+03  0.12014035032E+03  0.00000000000E+00 0. -1.
         -4    1    3    3    0  502 -0.16949445705E+03  0.12222528664E+03  0.18163242222E+03  0.27687132113E+03  0.00000000000E+00 0.  1.
         11    1    5    5    0    0  0.15598886258E+03  0.17169132100E+01  0.31519291806E+00  0.15599862944E+03  0.00000000000E+00 0.  1.
        -11    1    5    5    0    0  0.31295862077E+03  0.45767246542E+02  0.12615486710E+03  0.34051841311E+03  0.00000000000E+00 0. -1.
          3    1    6    6  503    0 -0.13241130141E+03 -0.12624533201E+03 -0.15158284407E+03  0.23758786840E+03  0.00000000000E+00 0. -1.
         -3    1    6    6    0  503 -0.13943161591E+03 -0.98380002051E+02 -0.53744501332E+02  0.17890855693E+03  0.00000000000E+00 0.  1.
<mgrwt>
<rscale>  0 0.12937269E+04</rscale>
<asrwt>0</asrwt>
<pdfrwt beam="1">  1        1 0.11661742E+00 0.12937269E+04</pdfrwt>
<pdfrwt beam="2">  1       -2 0.84924914E-01 0.12937269E+04</pdfrwt>
<totfact> 0.25045326E+01</totfact>
</mgrwt>
</event>
<event>
12    4  0.4207946E-008  0.3188346E+04  0.7818608E-02  0.8191902E-01
         -2   -1    0    0    0  501 -0.00000000000E+00  0.00000000000E+00  0.11451116360E+04  0.11451116360E+04  0.00000000000E+00 0.  1.
          1   -1    0    0  501    0  0.00000000000E+00 -0.00000000000E+00 -0.22193360917E+04  0.22193360917E+04  0.00000000000E+00 0. -1.
        -24    2    1    2    0    0 -0.34961397134E+03 -0.92158315883E+03  0.65472756128E+03  0.11860504134E+04  0.80634707425E+02 0.  0.
        254    2    1    2    0    0  0.34961397134E+03  0.92158315883E+03 -0.17289520170E+04  0.21783973144E+04  0.88577329755E+03 0.  0.
         23    2    4    4    0    0 -0.15886456670E+03  0.76135677327E+03 -0.10026752000E+04  0.12722718515E+04  0.91738872323E+02 0.  0.
         23    2    4    4    0    0  0.50847853804E+03  0.16022638556E+03 -0.72627681697E+03  0.90612546285E+03  0.96759605632E+02 0.  0.
          1    1    3    3  502    0 -0.11761130206E+03 -0.21881770099E+03  0.14883627357E+03  0.28959599612E+03  0.00000000000E+00 0. -1.
         -2    1    3    3    0  502 -0.23200266928E+03 -0.70276545785E+03  0.50589128771E+03  0.89645441729E+03  0.00000000000E+00 0.  1.
         11    1    5    5    0    0 -0.28466865112E+02  0.32558940271E+03 -0.38128466806E+03  0.50219201474E+03  0.00000000000E+00 0. -1.
        -11    1    5    5    0    0 -0.13039770159E+03  0.43576737056E+03 -0.62139053193E+03  0.77007983677E+03  0.00000000000E+00 0.  1.
          4    1    6    6  503    0  0.16772376889E+03  0.11707694424E+02 -0.19125668670E+03  0.25465163060E+03  0.00000000000E+00 0. -1.
         -4    1    6    6    0  503  0.34075476916E+03  0.14851869114E+03 -0.53502013027E+03  0.65147383226E+03  0.00000000000E+00 0.  1.
<mgrwt>
<rscale>  0 0.31883460E+04</rscale>
<asrwt>0</asrwt>
<pdfrwt beam="1">  1        1 0.34143632E+00 0.31883460E+04</pdfrwt>
<pdfrwt beam="2">  1       -2 0.17617102E+00 0.31883460E+04</pdfrwt>
<totfact> 0.30010427E-01</totfact>
</mgrwt>
</event>
<event>
12    4  0.4207946E-008  0.1274687E+04  0.7818608E-02  0.9049883E-01
         -4   -1    0    0    0  501 -0.00000000000E+00  0.00000000000E+00  0.15168025787E+03  0.15168025787E+03  0.00000000000E+00 0.  1.
          1   -1    0    0  501    0  0.00000000000E+00 -0.00000000000E+00 -0.26780444229E+04  0.26780444229E+04  0.00000000000E+00 0. -1.
        -24    2    1    2    0    0 -0.16540628170E+03  0.18664946340E+03 -0.10625800489E+04  0.10944172433E+04  0.80470379687E+02 0.  0.
        254    2    1    2    0    0  0.16540628170E+03 -0.18664946340E+03 -0.14637841162E+04  0.17353074375E+04  0.89801486823E+03 0.  0.
         23    2    4    4    0    0  0.24691261146E+03 -0.45024431457E+03 -0.47779665546E+03  0.70720206117E+03  0.90329014442E+02 0.  0.
         23    2    4    4    0    0 -0.81506329766E+02  0.26359485117E+03 -0.98598746075E+03  0.10281053763E+04  0.93294505331E+02 0.  0.
          3    1    3    3  502    0 -0.14894305043E+03  0.17678524301E+03 -0.10369147900E+04  0.10623696796E+04  0.00000000000E+00 0. -1.
         -4    1    3    3    0  502 -0.16463231262E+02  0.98642203963E+01 -0.25665258890E+02  0.32047563738E+02  0.00000000000E+00 0.  1.
         11    1    5    5    0    0  0.17278772537E+03 -0.31159992685E+03 -0.38531432896E+03  0.52480210037E+03  0.00000000000E+00 0. -1.
        -11    1    5    5    0    0  0.74124886090E+02 -0.13864438772E+03 -0.92482326507E+02  0.18239996080E+03  0.00000000000E+00 0.  1.
          1    1    6    6  503    0 -0.84518672736E+02  0.26591552405E+03 -0.98553935076E+03  0.10242764685E+04  0.00000000000E+00 0. -1.
         -1    1    6    6    0  503  0.30123429702E+01 -0.23206728798E+01 -0.44810998717E+00  0.38289078529E+01  0.00000000000E+00 0.  1.
<mgrwt>
<rscale>  0 0.12746866E+04</rscale>
<asrwt>0</asrwt>
<pdfrwt beam="1">  1        1 0.41200685E+00 0.12746866E+04</pdfrwt>
<pdfrwt beam="2">  1       -4 0.23335423E-01 0.12746866E+04</pdfrwt>
<totfact> 0.87481861E+00</totfact>
</mgrwt>
</event>
<event>
12    4  0.4207946E-008  0.2043082E+04  0.7818608E-02  0.8586739E-01
          1   -1    0    0  501    0  0.00000000000E+00  0.00000000000E+00  0.61157778016E+03  0.61157778016E+03  0.00000000000E+00 0. -1.
         -2   -1    0    0    0  501 -0.00000000000E+00 -0.00000000000E+00 -0.17063176180E+04  0.17063176180E+04  0.00000000000E+00 0.  1.
        -24    2    1    2    0    0 -0.15069119072E+03 -0.67980827632E+03 -0.94073818796E+03  0.11733306873E+04  0.82882061035E+02 0.  0.
        254    2    1    2    0    0  0.15069119072E+03  0.67980827632E+03 -0.15400164988E+03  0.11445647108E+04  0.89524563199E+03 0.  0.
         23    2    4    4    0    0  0.14734880157E+03 -0.19130640270E+03 -0.26169989328E+02  0.25947677284E+03  0.91288105826E+02 0.  0.
         23    2    4    4    0    0  0.33423891477E+01  0.87111467902E+03 -0.12783166056E+03  0.88508793799E+03  0.90486291646E+02 0.  0.
          3    1    3    3  502    0 -0.31856893694E+02 -0.18074353262E+03 -0.31054600188E+03  0.36072414050E+03  0.00000000000E+00 0. -1.
         -4    1    3    3    0  502 -0.11883429703E+03 -0.49906474370E+03 -0.63019218608E+03  0.81260654683E+03  0.00000000000E+00 0.  1.
         11    1    5    5    0    0  0.13679517544E+03 -0.13669209208E+03 -0.48764602846E+02  0.19943829761E+03  0.00000000000E+00 0. -1.
        -11    1    5    5    0    0  0.10553626130E+02 -0.54614310610E+02  0.22594613518E+02  0.60038475230E+02  0.00000000000E+00 0.  1.
          3    1    6    6  503    0  0.40229688179E+01  0.72447058307E+03 -0.71524876022E+02  0.72800385844E+03  0.00000000000E+00 0. -1.
         -3    1    6    6    0  503 -0.68057967020E+00  0.14664409595E+03 -0.56306784535E+02  0.15708407956E+03  0.00000000000E+00 0.  1.
<mgrwt>
<rscale>  0 0.20430819E+04</rscale>
<asrwt>0</asrwt>
<pdfrwt beam="1">  1        1 0.94088889E-01 0.20430819E+04</pdfrwt>
<pdfrwt beam="2">  1       -2 0.26251040E+00 0.20430819E+04</pdfrwt>
<totfact> 0.14520699E+00</totfact>
</mgrwt>
</event>
<event>
12    4  0.4207946E-008  0.2674421E+04  0.7818608E-02  0.8343353E-01
         -2   -1    0    0    0  501 -0.00000000000E+00  0.00000000000E+00  0.11801965988E+04  0.11801965988E+04  0.00000000000E+00 0.  1.
          1   -1    0    0  501    0  0.00000000000E+00 -0.00000000000E+00 -0.15151133669E+04  0.15151133669E+04  0.00000000000E+00 0. -1.
        -24    2    1    2    0    0  0.89448869009E+03 -0.67097406481E+03 -0.55962473553E+03  0.12528444000E+04  0.78249815275E+02 0.  0.
        254    2    1    2    0    0 -0.89448869009E+03  0.67097406481E+03  0.22470796739E+03  0.14424655658E+04  0.88311778687E+03 0.  0.
         23    2    4    4    0    0 -0.75969241619E+03  0.52080470776E+03  0.52922376246E+03  0.10660555596E+04  0.89591040752E+02 0.  0.
         23    2    4    4    0    0 -0.13479627390E+03  0.15016935706E+03 -0.30451579508E+03  0.37641000616E+03  0.90740024404E+02 0.  0.
          1    1    3    3  502    0  0.78471132439E+03 -0.57361482810E+03 -0.45907585330E+03  0.10749681264E+04  0.00000000000E+00 0. -1.
         -2    1    3    3    0  502  0.10977736570E+03 -0.97359236709E+02 -0.10054888222E+03  0.17787627360E+03  0.00000000000E+00 0.  1.
         11    1    5    5    0    0 -0.35670397192E+02  0.95670857944E+01  0.78545022870E+01  0.37757112874E+02  0.00000000000E+00 0. -1.
        -11    1    5    5    0    0 -0.72402201900E+03  0.51123762196E+03  0.52136926018E+03  0.10282984467E+04  0.00000000000E+00 0.  1.
          2    1    6    6  503    0 -0.38501816025E+02  0.10673521902E+03 -0.18376833853E+03  0.21597592241E+03  0.00000000000E+00 0. -1.
         -2    1    6    6    0  503 -0.96294457876E+02  0.43434138037E+02 -0.12074745655E+03  0.16043408375E+03  0.00000000000E+00 0.  1.
<mgrwt>
<rscale>  0 0.26744208E+04</rscale>
<asrwt>0</asrwt>
<pdfrwt beam="1">  1        1 0.23309436E+00 0.26744208E+04</pdfrwt>
<pdfrwt beam="2">  1       -2 0.18156871E+00 0.26744208E+04</pdfrwt>
<totfact> 0.86797617E-01</totfact>
</mgrwt>
</event>
<event>
12    4  0.4207946E-008  0.2471768E+04  0.7818608E-02  0.8413113E-01
         -2   -1    0    0    0  501 -0.00000000000E+00  0.00000000000E+00  0.49520677725E+03  0.49520677725E+03  0.00000000000E+00 0.  1.
          1   -1    0    0  501    0  0.00000000000E+00 -0.00000000000E+00 -0.30843864849E+04  0.30843864849E+04  0.00000000000E+00 0. -1.
        -24    2    1    2    0    0  0.57642200432E+03 -0.74175684764E+03 -0.18541991478E+04  0.20800797044E+04  0.78813379283E+02 0.  0.
        254    2    1    2    0    0 -0.57642200432E+03  0.74175684764E+03 -0.73498055977E+03  0.14995135577E+04  0.90877881711E+03 0.  0.
         23    2    4    4    0    0  0.16788609955E+03 -0.63809201835E+02 -0.58878963219E+02  0.20793537214E+03  0.86677736560E+02 0.  0.
         23    2    4    4    0    0 -0.74430810388E+03  0.80556604948E+03 -0.67610159655E+03  0.12915781856E+04  0.90164444320E+02 0.  0.
          3    1    3    3  502    0  0.52014209097E+03 -0.62532319602E+03 -0.15989172472E+04  0.17939100472E+04  0.00000000000E+00 0. -1.
         -4    1    3    3    0  502  0.56279913358E+02 -0.11643365162E+03 -0.25528190067E+03  0.28616965717E+03  0.00000000000E+00 0.  1.
         11    1    5    5    0    0  0.43207165417E+02 -0.85990640052E+01  0.22161432765E+02  0.49314624072E+02  0.00000000000E+00 0.  1.
        -11    1    5    5    0    0  0.12467893413E+03 -0.55210137830E+02 -0.81040395984E+02  0.15862074807E+03  0.00000000000E+00 0. -1.
          3    1    6    6  503    0 -0.13454387396E+03  0.14886128398E+03 -0.84199708689E+02  0.21760360023E+03  0.00000000000E+00 0. -1.
         -3    1    6    6    0  503 -0.60976422991E+03  0.65670476550E+03 -0.59190188787E+03  0.10739745853E+04  0.00000000000E+00 0.  1.
<mgrwt>
<rscale>  0 0.24717679E+04</rscale>
<asrwt>0</asrwt>
<pdfrwt beam="1">  1        1 0.47452099E+00 0.24717679E+04</pdfrwt>
<pdfrwt beam="2">  1       -2 0.76185659E-01 0.24717679E+04</pdfrwt>
<totfact> 0.62592872E-01</totfact>
</mgrwt>
</event>
<event>
12    4  0.4207946E-008  0.2001765E+04  0.7818608E-02  0.8605796E-01
          1   -1    0    0  501    0  0.00000000000E+00  0.00000000000E+00  0.16875363962E+04  0.16875363962E+04  0.00000000000E+00 0. -1.
         -2   -1    0    0    0  501 -0.00000000000E+00 -0.00000000000E+00 -0.59362614367E+03  0.59362614367E+03  0.00000000000E+00 0.  1.
        -24    2    1    2    0    0  0.41189627957E+03  0.31135591434E+03 -0.24834355423E+03  0.57824755510E+03  0.78068326044E+02 0.  0.
        254    2    1    2    0    0 -0.41189627957E+03 -0.31135591434E+03  0.13422538068E+04  0.17029149848E+04  0.91196113572E+03 0.  0.
         23    2    4    4    0    0  0.44913171972E+02 -0.48584833505E+03  0.39666693519E+03  0.63445637659E+03  0.84406389775E+02 0.  0.
         23    2    4    4    0    0 -0.45680945155E+03  0.17449242071E+03  0.94558687157E+03  0.10684586082E+04  0.91360745334E+02 0.  0.
          1    1    3    3  502    0  0.96813279983E+02  0.89981150004E+02 -0.29844803743E+02  0.13549956032E+03  0.00000000000E+00 0. -1.
         -2    1    3    3    0  502  0.31508299959E+03  0.22137476434E+03 -0.21849875049E+03  0.44274799478E+03  0.00000000000E+00 0.  1.
         11    1    5    5    0    0  0.26990991181E+02 -0.47128848943E+03  0.37920391681E+03  0.60550554449E+03  0.00000000000E+00 0. -1.
        -11    1    5    5    0    0  0.17922180791E+02 -0.14559845619E+02  0.17463018378E+02  0.28950832106E+02  0.00000000000E+00 0.  1.
          3    1    6    6  503    0 -0.29773446244E+03  0.13224882476E+03  0.53878895231E+03  0.62962615647E+03  0.00000000000E+00 0. -1.
         -3    1    6    6    0  503 -0.15907498910E+03  0.42243595957E+02  0.40679791926E+03  0.43883245171E+03  0.00000000000E+00 0.  1.
<mgrwt>
<rscale>  0 0.20017649E+04</rscale>
<asrwt>0</asrwt>
<pdfrwt beam="1">  1        1 0.25962098E+00 0.20017649E+04</pdfrwt>
<pdfrwt beam="2">  1       -2 0.91327099E-01 0.20017649E+04</pdfrwt>
<totfact> 0.40432689E+00</totfact>
</mgrwt>
</event>
<event>
12    4  0.4207946E-008  0.1787397E+04  0.7818608E-02  0.8713030E-01
          1   -1    0    0  501    0  0.00000000000E+00  0.00000000000E+00  0.81334482023E+03  0.81334482023E+03  0.00000000000E+00 0. -1.
         -2   -1    0    0    0  501 -0.00000000000E+00 -0.00000000000E+00 -0.98199062822E+03  0.98199062822E+03  0.00000000000E+00 0.  1.
        -24    2    1    2    0    0  0.27733080403E+03  0.58315564524E+03  0.10366311800E+03  0.65927089193E+03  0.83121510352E+02 0.  0.
        254    2    1    2    0    0 -0.27733080403E+03 -0.58315564524E+03 -0.27230892599E+03  0.11360645565E+04  0.89415191325E+03 0.  0.
         23    2    4    4    0    0 -0.29315201099E+02 -0.68655140788E+03 -0.42581447322E+03  0.81345865489E+03  0.90469889639E+02 0.  0.
         23    2    4    4    0    0 -0.24801560293E+03  0.10339576264E+03  0.15350554723E+03  0.32260590163E+03  0.91149282533E+02 0.  0.
          1    1    3    3  502    0  0.79437847780E+02  0.18241881958E+03  0.70578835264E+02  0.21111221989E+03  0.00000000000E+00 0. -1.
         -2    1    3    3    0  502  0.19789295625E+03  0.40073682565E+03  0.33084282739E+02  0.44815867205E+03  0.00000000000E+00 0.  1.
         11    1    5    5    0    0 -0.61403610670E+01 -0.33181590174E+03 -0.25792915200E+03  0.42031767050E+03  0.00000000000E+00 0. -1.
        -11    1    5    5    0    0 -0.23174840032E+02 -0.35473550614E+03 -0.16788532122E+03  0.39314098439E+03  0.00000000000E+00 0.  1.
          4    1    6    6  503    0 -0.98635289269E+02  0.90359479417E+02  0.74651337700E+02  0.15318804793E+03  0.00000000000E+00 0. -1.
         -4    1    6    6    0  503 -0.14938031366E+03  0.13036283226E+02  0.78854209534E+02  0.16941785370E+03  0.00000000000E+00 0.  1.
<mgrwt>
<rscale>  0 0.17873970E+04</rscale>
<asrwt>0</asrwt>
<pdfrwt beam="1">  1        1 0.12512997E+00 0.17873970E+04</pdfrwt>
<pdfrwt beam="2">  1       -2 0.15107548E+00 0.17873970E+04</pdfrwt>
<totfact> 0.52352965E+00</totfact>
</mgrwt>
</event>
<event>
12    4  0.4207946E-008  0.1433148E+04  0.7818608E-02  0.8930168E-01
          1   -1    0    0  501    0  0.00000000000E+00  0.00000000000E+00  0.13775866406E+04  0.13775866406E+04  0.00000000000E+00 0. -1.
         -2   -1    0    0    0  501 -0.00000000000E+00 -0.00000000000E+00 -0.37273737597E+03  0.37273737597E+03  0.00000000000E+00 0.  1.
        -24    2    1    2    0    0 -0.42805769419E+03  0.24998988893E+02  0.34277022383E+03  0.55487797254E+03  0.80869024176E+02 0.  0.
        254    2    1    2    0    0  0.42805769419E+03 -0.24998988893E+02  0.66207904076E+03  0.11954460440E+04  0.89826735936E+03 0.  0.
         23    2    4    4    0    0 -0.10507891212E+03  0.12166387229E+03 -0.12938779587E+03  0.22610698723E+03  0.92409373773E+02 0.  0.
         23    2    4    4    0    0  0.53313660630E+03 -0.14666286118E+03  0.79146683663E+03  0.96933905677E+03  0.86335494737E+02 0.  0.
          1    1    3    3  502    0 -0.10918460223E+03  0.93340692275E+01  0.13538182750E+03  0.17417416981E+03  0.00000000000E+00 0. -1.
         -2    1    3    3    0  502 -0.31887309196E+03  0.15664919666E+02  0.20738839633E+03  0.38070380274E+03  0.00000000000E+00 0.  1.
         11    1    5    5    0    0  0.14630638474E+02  0.25683601026E+00 -0.69485924742E+01  0.16198903799E+02  0.00000000000E+00 0.  1.
        -11    1    5    5    0    0 -0.11970955059E+03  0.12140703628E+03 -0.12243920339E+03  0.20990808343E+03  0.00000000000E+00 0. -1.
          4    1    6    6  503    0  0.31034245707E+03 -0.93567211418E+02  0.38980917619E+03  0.50696987835E+03  0.00000000000E+00 0. -1.
         -4    1    6    6    0  503  0.22279414923E+03 -0.53095649766E+02  0.40165766044E+03  0.46236917842E+03  0.00000000000E+00 0.  1.
<mgrwt>
<rscale>  0 0.14331476E+04</rscale>
<asrwt>0</asrwt>
<pdfrwt beam="1">  1        1 0.21193640E+00 0.14331476E+04</pdfrwt>
<pdfrwt beam="2">  1       -2 0.57344212E-01 0.14331476E+04</pdfrwt>
<totfact> 0.19367605E+01</totfact>
</mgrwt>
</event>
<event>
12    4  0.4207946E-008  0.1200216E+04  0.7818608E-02  0.9112668E-01
          3   -1    0    0  501    0  0.00000000000E+00  0.00000000000E+00  0.40986718724E+03  0.40986718724E+03  0.00000000000E+00 0. -1.
         -4   -1    0    0    0  501 -0.00000000000E+00 -0.00000000000E+00 -0.87864891645E+03  0.87864891645E+03  0.00000000000E+00 0.  1.
        -24    2    1    2    0    0 -0.52294936577E+02 -0.24927427139E+03 -0.98556561037E+02  0.28440715927E+03  0.79382704364E+02 0.  0.
        254    2    1    2    0    0  0.52294936577E+02  0.24927427139E+03 -0.37022516817E+03  0.10041089444E+04  0.89793968303E+03 0.  0.
         23    2    4    4    0    0  0.81822549930E+02  0.36624592404E+03 -0.60946975088E+03  0.72142128500E+03  0.90356442316E+02 0.  0.
         23    2    4    4    0    0 -0.29527613353E+02 -0.11697165266E+03  0.23924458270E+03  0.28268765942E+03  0.90111569522E+02 0.  0.
          3    1    3    3  502    0 -0.60836397839E+02 -0.13631306808E+03 -0.30833552722E+02  0.15242384264E+03  0.00000000000E+00 0. -1.
         -4    1    3    3    0  502  0.85414612621E+01 -0.11296120331E+03 -0.67723008315E+02  0.13198331663E+03  0.00000000000E+00 0.  1.
         11    1    5    5    0    0  0.10784317960E+02  0.21213539067E+03 -0.38891236989E+03  0.44313717621E+03  0.00000000000E+00 0. -1.
        -11    1    5    5    0    0  0.71038231970E+02  0.15411053337E+03 -0.22055738099E+03  0.27828410879E+03  0.00000000000E+00 0.  1.
          1    1    6    6  503    0 -0.49575941553E+02 -0.85115569966E+02  0.21857853683E+03  0.23974780707E+03  0.00000000000E+00 0. -1.
         -1    1    6    6    0  503  0.20048328200E+02 -0.31856082691E+02  0.20666045869E+02  0.42939852350E+02  0.00000000000E+00 0.  1.
<mgrwt>
<rscale>  0 0.12002156E+04</rscale>
<asrwt>0</asrwt>
<pdfrwt beam="1">  1        3 0.63056491E-01 0.12002156E+04</pdfrwt>
<pdfrwt beam="2">  1       -4 0.13517676E+00 0.12002156E+04</pdfrwt>
<totfact> 0.21574687E+00</totfact>
</mgrwt>
</event>
<event>
12    4  0.4207946E-008  0.1639616E+04  0.7818608E-02  0.8796573E-01
          1   -1    0    0  501    0  0.00000000000E+00  0.00000000000E+00  0.19676990574E+04  0.19676990574E+04  0.00000000000E+00 0. -1.
         -2   -1    0    0    0  501 -0.00000000000E+00 -0.00000000000E+00 -0.34155907129E+03  0.34155907129E+03  0.00000000000E+00 0.  1.
        -24    2    1    2    0    0 -0.42189545697E+03 -0.24197199836E+03  0.15184622574E+03  0.51611996341E+03  0.82318380452E+02 0.  0.
        254    2    1    2    0    0  0.42189545697E+03  0.24197199836E+03  0.14742937604E+04  0.17931381653E+04  0.89736066513E+03 0.  0.
         23    2    4    4    0    0 -0.15653007045E+03 -0.52152885510E+02  0.10765292139E+02  0.18969899843E+03  0.92995871239E+02 0.  0.
         23    2    4    4    0    0  0.57842552742E+03  0.29412488387E+03  0.14635284682E+04  0.16034391669E+04  0.89532376188E+02 0.  0.
          3    1    3    3  502    0 -0.15903594438E+03 -0.51946279584E+02  0.32022512636E+02  0.17034168275E+03  0.00000000000E+00 0. -1.
         -4    1    3    3    0  502 -0.26285951259E+03 -0.19002571877E+03  0.11982371310E+03  0.34577828066E+03  0.00000000000E+00 0.  1.
         11    1    5    5    0    0 -0.63377797887E+02 -0.28237742363E+02 -0.40885001248E+02  0.80533835658E+02  0.00000000000E+00 0. -1.
        -11    1    5    5    0    0 -0.93152272567E+02 -0.23915143147E+02  0.51650293388E+02  0.10916516277E+03  0.00000000000E+00 0.  1.
          1    1    6    6  503    0  0.39341310908E+03  0.24490338236E+03  0.10533924664E+04  0.11508202419E+04  0.00000000000E+00 0. -1.
         -1    1    6    6    0  503  0.18501241835E+03  0.49221501504E+02  0.41013600187E+03  0.45261892491E+03  0.00000000000E+00 0.  1.
<mgrwt>
<rscale>  0 0.16396164E+04</rscale>
<asrwt>0</asrwt>
<pdfrwt beam="1">  1        1 0.30272292E+00 0.16396164E+04</pdfrwt>
<pdfrwt beam="2">  1       -2 0.52547551E-01 0.16396164E+04</pdfrwt>
<totfact> 0.89960457E+00</totfact>
</mgrwt>
</event>
<event>
12    4  0.4207946E-008  0.1655243E+04  0.7818608E-02  0.8787311E-01
         -2   -1    0    0    0  501 -0.00000000000E+00  0.00000000000E+00  0.44850960619E+03  0.44850960619E+03  0.00000000000E+00 0.  1.
          1   -1    0    0  501    0  0.00000000000E+00 -0.00000000000E+00 -0.15271849784E+04  0.15271849784E+04  0.00000000000E+00 0. -1.
        -24    2    1    2    0    0  0.34426439211E+03 -0.45218140729E+03 -0.26992464489E+03  0.63431422521E+03  0.80679771993E+02 0.  0.
        254    2    1    2    0    0 -0.34426439211E+03  0.45218140729E+03 -0.80875072730E+03  0.13413803594E+04  0.90677314298E+03 0.  0.
         23    2    4    4    0    0 -0.67539563769E+01  0.32648597299E+03  0.10439239666E+03  0.35544223867E+03  0.93822737464E+02 0.  0.
         23    2    4    4    0    0 -0.33751043573E+03  0.12569543430E+03 -0.91314312396E+03  0.98593812070E+03  0.92363285951E+02 0.  0.
          3    1    3    3  502    0  0.77909748761E+02 -0.16059194113E+03 -0.70760887873E+02  0.19200730132E+03  0.00000000000E+00 0. -1.
         -4    1    3    3    0  502  0.26635464335E+03 -0.29158946616E+03 -0.19916375702E+03  0.44230692388E+03  0.00000000000E+00 0.  1.
         11    1    5    5    0    0 -0.98401693225E+01  0.34491669761E+02 -0.16393674175E+02  0.39436743884E+02  0.00000000000E+00 0. -1.
        -11    1    5    5    0    0  0.30862129456E+01  0.29199430323E+03  0.12078607083E+03  0.31600549479E+03  0.00000000000E+00 0.  1.
          3    1    6    6  503    0 -0.84956811492E+02  0.29973360278E+01 -0.29517578773E+03  0.30717322394E+03  0.00000000000E+00 0. -1.
         -3    1    6    6    0  503 -0.25255362424E+03  0.12269809827E+03 -0.61796733623E+03  0.67876489676E+03  0.00000000000E+00 0.  1.
<mgrwt>
<rscale>  0 0.16552427E+04</rscale>
<asrwt>0</asrwt>
<pdfrwt beam="1">  1        1 0.23495153E+00 0.16552427E+04</pdfrwt>
<pdfrwt beam="2">  1       -2 0.69001479E-01 0.16552427E+04</pdfrwt>
<totfact> 0.10071026E+01</totfact>
</mgrwt>
</event>
<event>
12    4  0.4207946E-008  0.1971285E+04  0.7818608E-02  0.8620165E-01
          1   -1    0    0  501    0  0.00000000000E+00  0.00000000000E+00  0.10343922607E+04  0.10343922607E+04  0.00000000000E+00 0. -1.
         -2   -1    0    0    0  501 -0.00000000000E+00 -0.00000000000E+00 -0.93919056552E+03  0.93919056552E+03  0.00000000000E+00 0.  1.
        -24    2    1    2    0    0  0.65881908091E+03  0.10444549962E+03 -0.26955777208E+03  0.72387665885E+03  0.79903573056E+02 0.  0.
        254    2    1    2    0    0 -0.65881908091E+03 -0.10444549962E+03  0.36475946728E+03  0.12497061674E+04  0.99184907727E+03 0.  0.
         23    2    4    4    0    0 -0.67721762328E+03 -0.44154279668E+03  0.11881710200E+03  0.82219784412E+03  0.91148453410E+02 0.  0.
         23    2    4    4    0    0  0.18398542377E+02  0.33709729706E+03  0.24594236529E+03  0.42750832327E+03  0.91118743289E+02 0.  0.
          1    1    3    3  502    0  0.30523375608E+03  0.66363509509E+02 -0.87683519355E+02  0.32443822341E+03  0.00000000000E+00 0. -1.
         -2    1    3    3    0  502  0.35358532483E+03  0.38081990116E+02 -0.18187425272E+03  0.39943843544E+03  0.00000000000E+00 0.  1.
         11    1    5    5    0    0 -0.15536834434E+03 -0.76235893003E+02 -0.56048829398E+01  0.17315498410E+03  0.00000000000E+00 0.  1.
        -11    1    5    5    0    0 -0.52184927894E+03 -0.36530690368E+03  0.12442198494E+03  0.64904286002E+03  0.00000000000E+00 0. -1.
          3    1    6    6  503    0 -0.14320855024E+02  0.10842299161E+03  0.35394165416E+02  0.11494946256E+03  0.00000000000E+00 0. -1.
         -3    1    6    6    0  503  0.32719397401E+02  0.22867430545E+03  0.21054819987E+03  0.31255886071E+03  0.00000000000E+00 0.  1.
<mgrwt>
<rscale>  0 0.19712853E+04</rscale>
<asrwt>0</asrwt>
<pdfrwt beam="1">  1        1 0.15913727E+00 0.19712853E+04</pdfrwt>
<pdfrwt beam="2">  1       -2 0.14449086E+00 0.19712853E+04</pdfrwt>
<totfact> 0.38360649E+00</totfact>
</mgrwt>
</event>
<event>
12    4  0.4207946E-008  0.2241608E+04  0.7818608E-02  0.8501307E-01
          1   -1    0    0  501    0  0.00000000000E+00  0.00000000000E+00  0.17353304151E+04  0.17353304151E+04  0.00000000000E+00 0. -1.
         -2   -1    0    0    0  501 -0.00000000000E+00 -0.00000000000E+00 -0.72389740466E+03  0.72389740466E+03  0.00000000000E+00 0.  1.
        -24    2    1    2    0    0 -0.26269619788E+03  0.39574826276E+03  0.12807572648E+04  0.13682496234E+04  0.78370151789E+02 0.  0.
        254    2    1    2    0    0  0.26269619788E+03 -0.39574826276E+03 -0.26932425430E+03  0.10909781964E+04  0.94449557503E+03 0.  0.
         23    2    4    4    0    0  0.33579387633E+03 -0.13682887507E+03 -0.56720758794E+03  0.67926077156E+03  0.90504582890E+02 0.  0.
         23    2    4    4    0    0 -0.73097678453E+02 -0.25891938768E+03  0.29788333364E+03  0.41171742487E+03  0.91620071852E+02 0.  0.
          1    1    3    3  502    0 -0.90559791097E+02  0.18033344372E+03  0.62850657925E+03  0.66010737525E+03  0.00000000000E+00 0. -1.
         -2    1    3    3    0  502 -0.17213640678E+03  0.21541481903E+03  0.65225068552E+03  0.70814224812E+03  0.00000000000E+00 0.  1.
         11    1    5    5    0    0  0.74399153146E+01 -0.10233878487E+02 -0.63811553286E+02  0.65053815734E+02  0.00000000000E+00 0.  1.
        -11    1    5    5    0    0  0.32835396102E+03 -0.12659499659E+03 -0.50339603465E+03  0.61420695582E+03  0.00000000000E+00 0. -1.
          4    1    6    6  503    0 -0.13794578624E+02 -0.58433870825E+02  0.13136533275E+03  0.14443565456E+03  0.00000000000E+00 0. -1.
         -4    1    6    6    0  503 -0.59303099828E+02 -0.20048551686E+03  0.16651800088E+03  0.26728177031E+03  0.00000000000E+00 0.  1.
<mgrwt>
<rscale>  0 0.22416076E+04</rscale>
<asrwt>0</asrwt>
<pdfrwt beam="1">  1        1 0.26697391E+00 0.22416076E+04</pdfrwt>
<pdfrwt beam="2">  1       -2 0.11136883E+00 0.22416076E+04</pdfrwt>
<totfact> 0.22934997E+00</totfact>
</mgrwt>
</event>
<event>
12    4  0.4207946E-008  0.1898289E+04  0.7818608E-02  0.8655708E-01
          1   -1    0    0  501    0  0.00000000000E+00  0.00000000000E+00  0.74777506255E+03  0.74777506255E+03  0.00000000000E+00 0. -1.
         -2   -1    0    0    0  501 -0.00000000000E+00 -0.00000000000E+00 -0.12047411679E+04  0.12047411679E+04  0.00000000000E+00 0.  1.
        -24    2    1    2    0    0 -0.68463639527E+03  0.24365597805E+02  0.74353132255E+02  0.69326414245E+03  0.75934885582E+02 0.  0.
        254    2    1    2    0    0  0.68463639527E+03 -0.24365597805E+02 -0.53131923757E+03  0.12592520880E+04  0.91328802288E+03 0.  0.
         23    2    4    4    0    0  0.70901887787E+03 -0.97954380137E+02 -0.73058919931E+03  0.10267806888E+04  0.90637602469E+02 0.  0.
         23    2    4    4    0    0 -0.24382482596E+02  0.73588782332E+02  0.19926996173E+03  0.23247139917E+03  0.91239352466E+02 0.  0.
          1    1    3    3  502    0 -0.60686854787E+03  0.13259001059E+02  0.88539243208E+02  0.61343657625E+03  0.00000000000E+00 0. -1.
         -2    1    3    3    0  502 -0.77767847404E+02  0.11106596746E+02 -0.14186110953E+02  0.79827566198E+02  0.00000000000E+00 0.  1.
         11    1    5    5    0    0  0.44712463197E+03 -0.58379229321E+02 -0.52088594077E+03  0.68894900698E+03  0.00000000000E+00 0.  1.
        -11    1    5    5    0    0  0.26189424590E+03 -0.39575150816E+02 -0.20970325854E+03  0.33783168181E+03  0.00000000000E+00 0. -1.
          2    1    6    6  503    0 -0.16258076668E+02 -0.16470295560E+02  0.76963597195E+02  0.80367847962E+02  0.00000000000E+00 0. -1.
         -2    1    6    6    0  503 -0.81244059287E+01  0.90059077892E+02  0.12230636454E+03  0.15210355120E+03  0.00000000000E+00 0.  1.
<mgrwt>
<rscale>  0 0.18982891E+04</rscale>
<asrwt>0</asrwt>
<pdfrwt beam="1">  1        1 0.11504232E+00 0.18982891E+04</pdfrwt>
<pdfrwt beam="2">  1       -2 0.18534479E+00 0.18982891E+04</pdfrwt>
<totfact> 0.33592772E+00</totfact>
</mgrwt>
</event>
<event>
12    4  0.4207946E-008  0.2264090E+04  0.7818608E-02  0.8492216E-01
          1   -1    0    0  501    0  0.00000000000E+00  0.00000000000E+00  0.16176898912E+04  0.16176898912E+04  0.00000000000E+00 0. -1.
         -2   -1    0    0    0  501 -0.00000000000E+00 -0.00000000000E+00 -0.79219503342E+03  0.79219503342E+03  0.00000000000E+00 0.  1.
        -24    2    1    2    0    0 -0.43114154484E+03  0.82672221125E+03  0.18628311822E+03  0.95415333491E+03  0.79715369452E+02 0.  0.
        254    2    1    2    0    0  0.43114154484E+03 -0.82672221125E+03  0.63921173958E+03  0.14557315897E+04  0.91717510166E+03 0.  0.
         23    2    4    4    0    0 -0.27864995571E+03 -0.21227282561E+03  0.22244542349E+03  0.42464063974E+03  0.90178468496E+02 0.  0.
         23    2    4    4    0    0  0.70979150055E+03 -0.61444938564E+03  0.41676631609E+03  0.10310909500E+04  0.90013127815E+02 0.  0.
          1    1    3    3  502    0 -0.30802080024E+03  0.53573745965E+03  0.15158567365E+03  0.63629368652E+03  0.00000000000E+00 0. -1.
         -2    1    3    3    0  502 -0.12312074460E+03  0.29098475159E+03  0.34697444575E+02  0.31785964838E+03  0.00000000000E+00 0.  1.
         11    1    5    5    0    0 -0.14257246739E+03 -0.13101077004E+03  0.17008721590E+03  0.25772153837E+03  0.00000000000E+00 0. -1.
        -11    1    5    5    0    0 -0.13607748832E+03 -0.81262055562E+02  0.52358207590E+02  0.16691910137E+03  0.00000000000E+00 0.  1.
          4    1    6    6  503    0  0.80266061881E+02 -0.72924293370E+02  0.18057909468E+02  0.10993944400E+03  0.00000000000E+00 0. -1.
         -4    1    6    6    0  503  0.62952543867E+03 -0.54152509227E+03  0.39870840662E+03  0.92115150600E+03  0.00000000000E+00 0.  1.
<mgrwt>
<rscale>  0 0.22640900E+04</rscale>
<asrwt>0</asrwt>
<pdfrwt beam="1">  1        1 0.24887537E+00 0.22640900E+04</pdfrwt>
<pdfrwt beam="2">  1       -2 0.12187616E+00 0.22640900E+04</pdfrwt>
<totfact> 0.22070376E+00</totfact>
</mgrwt>
</event>
<event>
12    4  0.4207946E-008  0.1846070E+04  0.7818608E-02  0.8682177E-01
         -2   -1    0    0    0  501 -0.00000000000E+00  0.00000000000E+00  0.39003077848E+03  0.39003077848E+03  0.00000000000E+00 0.  1.
          1   -1    0    0  501    0  0.00000000000E+00 -0.00000000000E+00 -0.21844258054E+04  0.21844258054E+04  0.00000000000E+00 0. -1.
        -24    2    1    2    0    0  0.50211356317E+02 -0.68035768886E+03 -0.91322587427E+03  0.11426486151E+04  0.79098641008E+02 0.  0.
        254    2    1    2    0    0 -0.50211356317E+02  0.68035768886E+03 -0.88116915261E+03  0.14318079688E+04  0.89900345874E+03 0.  0.
         23    2    4    4    0    0 -0.37482221571E+03  0.43837398060E+03 -0.17050660354E+03  0.60891299025E+03  0.95074116259E+02 0.  0.
         23    2    4    4    0    0  0.32461085939E+03  0.24198370826E+03 -0.71066254907E+03  0.82289497852E+03  0.90479621633E+02 0.  0.
          3    1    3    3  502    0  0.30635037849E+02 -0.33082929583E+03 -0.50979908770E+03  0.60850771428E+03  0.00000000000E+00 0. -1.
         -4    1    3    3    0  502  0.19576318467E+02 -0.34952839303E+03 -0.40342678657E+03  0.53414090080E+03  0.00000000000E+00 0.  1.
         11    1    5    5    0    0 -0.20901125475E+03  0.19703529338E+03 -0.12215184373E+03  0.31213728450E+03  0.00000000000E+00 0. -1.
        -11    1    5    5    0    0 -0.16581096096E+03  0.24133868723E+03 -0.48354759814E+02  0.29677570575E+03  0.00000000000E+00 0.  1.
          2    1    6    6  503    0  0.28498224909E+03  0.19535899008E+03 -0.53491764372E+03  0.63680209082E+03  0.00000000000E+00 0. -1.
         -2    1    6    6    0  503  0.39628610298E+02  0.46624718174E+02 -0.17574490534E+03  0.18609288770E+03  0.00000000000E+00 0.  1.
<mgrwt>
<rscale>  0 0.18460697E+04</rscale>
<asrwt>0</asrwt>
<pdfrwt beam="1">  1        1 0.33606551E+00 0.18460697E+04</pdfrwt>
<pdfrwt beam="2">  1       -2 0.60004736E-01 0.18460697E+04</pdfrwt>
<totfact> 0.47731539E+00</totfact>
</mgrwt>
</event>
<event>
12    4  0.4207946E-008  0.1321572E+04  0.7818608E-02  0.9012631E-01
         -2   -1    0    0    0  501 -0.00000000000E+00  0.00000000000E+00  0.93672831005E+03  0.93672831005E+03  0.00000000000E+00 0.  1.
          1   -1    0    0  501    0  0.00000000000E+00 -0.00000000000E+00 -0.46613088025E+03  0.46613088025E+03  0.00000000000E+00 0. -1.
        -24    2    1    2    0    0  0.11362667298E+03 -0.27385977227E+03 -0.74865089051E+02  0.31616853457E+03  0.80296731028E+02 0.  0.
        254    2    1    2    0    0 -0.11362667298E+03  0.27385977227E+03  0.54546251886E+03  0.10866906557E+04  0.89188397568E+03 0.  0.
         23    2    4    4    0    0 -0.24418333697E+03 -0.17940653371E+03 -0.50885754999E+02  0.32068445054E+03  0.91852873457E+02 0.  0.
         23    2    4    4    0    0  0.13055666399E+03  0.45326630598E+03  0.59634827386E+03  0.76600620519E+03  0.92945446404E+02 0.  0.
          3    1    3    3  502    0  0.87073857385E+02 -0.26530135116E+03 -0.69757538508E+02  0.28780684103E+03  0.00000000000E+00 0. -1.
         -4    1    3    3    0  502  0.26552815595E+02 -0.85584211156E+01 -0.51075505428E+01  0.28361693542E+02  0.00000000000E+00 0.  1.
         11    1    5    5    0    0 -0.66326217140E+02 -0.10417036799E+03 -0.21233802401E+02  0.12530565435E+03  0.00000000000E+00 0.  1.
        -11    1    5    5    0    0 -0.17785711983E+03 -0.75236165716E+02 -0.29651952599E+02  0.19537879619E+03  0.00000000000E+00 0. -1.
          4    1    6    6  503    0  0.12685132972E+03  0.33265292877E+03  0.48629510959E+03  0.60268745173E+03  0.00000000000E+00 0. -1.
         -4    1    6    6    0  503  0.37053342734E+01  0.12061337721E+03  0.11005316427E+03  0.16331875346E+03  0.00000000000E+00 0.  1.
<mgrwt>
<rscale>  0 0.13215718E+04</rscale>
<asrwt>0</asrwt>
<pdfrwt beam="1">  1        1 0.71712443E-01 0.13215718E+04</pdfrwt>
<pdfrwt beam="2">  1       -2 0.14411205E+00 0.13215718E+04</pdfrwt>
<totfact> 0.13927061E+01</totfact>
</mgrwt>
</event>
<event>
12    4  0.4207946E-008  0.1046706E+04  0.7818608E-02  0.9258752E-01
         -2   -1    0    0    0  501 -0.00000000000E+00  0.00000000000E+00  0.44977365776E+03  0.44977365776E+03  0.00000000000E+00 0.  1.
          1   -1    0    0  501    0  0.00000000000E+00 -0.00000000000E+00 -0.60896905321E+03  0.60896905321E+03  0.00000000000E+00 0. -1.
        -24    2    1    2    0    0 -0.14091727135E+02 -0.84733018820E+02  0.84038688581E+02  0.14414700213E+03  0.79609018294E+02 0.  0.
        254    2    1    2    0    0  0.14091727135E+02  0.84733018820E+02 -0.24323408403E+03  0.91459570884E+03  0.87746466011E+03 0.  0.
         23    2    4    4    0    0 -0.27408486214E+03 -0.25236166963E+03  0.31870163572E+02  0.38510885571E+03  0.92109714293E+02 0.  0.
         23    2    4    4    0    0  0.28817658928E+03  0.33709468845E+03 -0.27510424760E+03  0.52948685313E+03  0.89417028587E+02 0.  0.
          1    1    3    3  502    0  0.23812038754E+02 -0.14900539603E+02 -0.54710831054E+00  0.28095170360E+02  0.00000000000E+00 0. -1.
         -2    1    3    3    0  502 -0.37903765889E+02 -0.69832479217E+02  0.84585796891E+02  0.11605183177E+03  0.00000000000E+00 0.  1.
         11    1    5    5    0    0 -0.35087197303E+02 -0.47894877668E+02 -0.26829090375E+02  0.65152366125E+02  0.00000000000E+00 0. -1.
        -11    1    5    5    0    0 -0.23899766484E+03 -0.20446679196E+03  0.58699253947E+02  0.31995648958E+03  0.00000000000E+00 0.  1.
          4    1    6    6  503    0  0.12882315866E+03  0.12203455443E+03 -0.64160688646E+02  0.18869136877E+03  0.00000000000E+00 0. -1.
         -4    1    6    6    0  503  0.15935343062E+03  0.21506013402E+03 -0.21094355895E+03  0.34079548436E+03  0.00000000000E+00 0.  1.
<mgrwt>
<rscale>  0 0.10467058E+04</rscale>
<asrwt>0</asrwt>
<pdfrwt beam="1">  1        1 0.93687546E-01 0.10467058E+04</pdfrwt>
<pdfrwt beam="2">  1       -2 0.69195948E-01 0.10467058E+04</pdfrwt>
<totfact> 0.55953206E+01</totfact>
</mgrwt>
</event>
<event>
12    4  0.4207946E-008  0.1142313E+04  0.7818608E-02  0.9164905E-01
          1   -1    0    0  501    0  0.00000000000E+00  0.00000000000E+00  0.46002866397E+03  0.46002866397E+03  0.00000000000E+00 0. -1.
         -2   -1    0    0    0  501 -0.00000000000E+00 -0.00000000000E+00 -0.70912858876E+03  0.70912858876E+03  0.00000000000E+00 0.  1.
        -24    2    1    2    0    0  0.36049479201E+01  0.32441060138E+01 -0.25059510504E+03  0.26327750041E+03  0.80582973884E+02 0.  0.
        254    2    1    2    0    0 -0.36049479201E+01 -0.32441060138E+01  0.14951802543E+01  0.90587975232E+03  0.90586553651E+03 0.  0.
         23    2    4    4    0    0  0.19953213209E+03  0.30525952744E+03  0.25120500238E+03  0.45109272070E+03  0.85931592637E+02 0.  0.
         23    2    4    4    0    0 -0.20313708001E+03 -0.30850363345E+03 -0.24970982213E+03  0.45478703163E+03  0.89649783819E+02 0.  0.
          3    1    3    3  502    0 -0.93387483674E+01 -0.32124288724E+02 -0.57331529515E+02  0.66378358097E+02  0.00000000000E+00 0. -1.
         -4    1    3    3    0  502  0.12943696288E+02  0.35368394738E+02 -0.19326357552E+03  0.19689914232E+03  0.00000000000E+00 0.  1.
         11    1    5    5    0    0  0.19591310535E+02  0.99113985302E+02  0.69208197774E+02  0.12246295836E+03  0.00000000000E+00 0. -1.
        -11    1    5    5    0    0  0.17994082156E+03  0.20614554214E+03  0.18199680461E+03  0.32862976234E+03  0.00000000000E+00 0.  1.
          1    1    6    6  503    0 -0.13969776250E+02 -0.22994959362E+01 -0.29816589378E+02  0.33007140623E+02  0.00000000000E+00 0. -1.
         -1    1    6    6    0  503 -0.18916730376E+03 -0.30620413751E+03 -0.21989323275E+03  0.42177989100E+03  0.00000000000E+00 0.  1.
<mgrwt>
<rscale>  0 0.11423125E+04</rscale>
<asrwt>0</asrwt>
<pdfrwt beam="1">  1        1 0.70773641E-01 0.11423125E+04</pdfrwt>
<pdfrwt beam="2">  1       -2 0.10909671E+00 0.11423125E+04</pdfrwt>
<totfact> 0.28930908E+01</totfact>
</mgrwt>
</event>
<event>
12    4  0.5568413E-008  0.1383832E+04  0.7818608E-02  0.8965605E-01
         -2   -1    0    0    0  501 -0.00000000000E+00  0.00000000000E+00  0.42278254162E+03  0.42278254162E+03  0.00000000000E+00 0.  1.
          1   -1    0    0  501    0  0.00000000000E+00 -0.00000000000E+00 -0.11323742010E+04  0.11323742010E+04  0.00000000000E+00 0. -1.
        -24    2    1    2    0    0  0.31580275985E+03  0.18995779922E+03 -0.37203781105E+03  0.52856596302E+03  0.71794817298E+02 0.  0.
        254    2    1    2    0    0 -0.31580275985E+03 -0.18995779922E+03 -0.33755384828E+03  0.10265907796E+04  0.89673333804E+03 0.  0.
         23    2    4    4    0    0 -0.60069834106E+03 -0.26020986779E+03 -0.20159935101E+03  0.69100868591E+03  0.91120982355E+02 0.  0.
         23    2    4    4    0    0  0.28489558121E+03  0.70252068568E+02 -0.13595449727E+03  0.33558209364E+03  0.89615126576E+02 0.  0.
          3    1    3    3  502    0  0.31146142855E+03  0.18891776347E+03 -0.34687879002E+03  0.50301395387E+03  0.00000000000E+00 0. -1.
         -4    1    3    3    0  502  0.43413313040E+01  0.10400357570E+01 -0.25159021035E+02  0.25552009144E+02  0.00000000000E+00 0.  1.
         11    1    5    5    0    0 -0.19271857208E+02  0.75368660015E+01 -0.88365880192E+01  0.22500980361E+02  0.00000000000E+00 0. -1.
        -11    1    5    5    0    0 -0.58142648385E+03 -0.26774673379E+03 -0.19276276300E+03  0.66850770555E+03  0.00000000000E+00 0.  1.
          4    1    6    6  503    0  0.26771848659E+03  0.65416100175E+02 -0.96021734957E+02  0.29184349883E+03  0.00000000000E+00 0.  1.
         -4    1    6    6    0  503  0.17177094617E+02  0.48359683934E+01 -0.39932762311E+02  0.43738594806E+02  0.00000000000E+00 0. -1.
<mgrwt>
<rscale>  0 0.13838324E+04</rscale>
<asrwt>0</asrwt>
<pdfrwt beam="1">  1        1 0.17421141E+00 0.13838324E+04</pdfrwt>
<pdfrwt beam="2">  1       -2 0.65043469E-01 0.13838324E+04</pdfrwt>
<totfact> 0.22376750E+01</totfact>
</mgrwt>
</event>
<event>
12    4  0.4207946E-008  0.1145527E+04  0.7818608E-02  0.9161920E-01
         -4   -1    0    0    0  501 -0.00000000000E+00  0.00000000000E+00  0.47921381716E+03  0.47921381716E+03  0.00000000000E+00 0.  1.
          3   -1    0    0  501    0  0.00000000000E+00 -0.00000000000E+00 -0.68457500997E+03  0.68457500997E+03  0.00000000000E+00 0. -1.
        -24    2    1    2    0    0  0.16163912608E+02  0.19561401158E+03 -0.11297825984E+03  0.23981274155E+03  0.78866660990E+02 0.  0.
        254    2    1    2    0    0 -0.16163912608E+02 -0.19561401158E+03 -0.92382932968E+02  0.92397608557E+03  0.89814869972E+03 0.  0.
         23    2    4    4    0    0  0.28021542721E+03 -0.14979277215E+03 -0.37561923515E+03  0.50014133886E+03  0.89961040362E+02 0.  0.
         23    2    4    4    0    0 -0.29637933982E+03 -0.45821239435E+02  0.28323630218E+03  0.42383474671E+03  0.97328262050E+02 0.  0.
          1    1    3    3  502    0  0.28567705291E+02  0.14785278287E+03 -0.47658384112E+02  0.15794898152E+03  0.00000000000E+00 0. -1.
         -2    1    3    3    0  502 -0.12403792683E+02  0.47761228717E+02 -0.65319875729E+02  0.81863760033E+02  0.00000000000E+00 0.  1.
         11    1    5    5    0    0  0.19971782092E+03 -0.10779891004E+03 -0.20027203523E+03  0.30268250873E+03  0.00000000000E+00 0.  1.
        -11    1    5    5    0    0  0.80497606292E+02 -0.41993862112E+02 -0.17534719992E+03  0.19745883012E+03  0.00000000000E+00 0. -1.
          3    1    6    6  503    0 -0.10731604845E+03  0.24572228730E+02  0.13087197253E+03  0.17102047209E+03  0.00000000000E+00 0. -1.
         -3    1    6    6    0  503 -0.18906329137E+03 -0.70393468165E+02  0.15236432965E+03  0.25281427463E+03  0.00000000000E+00 0.  1.
<mgrwt>
<rscale>  0 0.11455266E+04</rscale>
<asrwt>0</asrwt>
<pdfrwt beam="1">  1        3 0.10531923E+00 0.11455266E+04</pdfrwt>
<pdfrwt beam="2">  1       -4 0.73725203E-01 0.11455266E+04</pdfrwt>
<totfact> 0.29251932E+00</totfact>
</mgrwt>
</event>
<event>
12    4  0.4207946E-008  0.2109275E+04  0.7818608E-02  0.8557169E-01
         -2   -1    0    0    0  501 -0.00000000000E+00  0.00000000000E+00  0.54611493342E+03  0.54611493342E+03  0.00000000000E+00 0.  1.
          1   -1    0    0  501    0  0.00000000000E+00 -0.00000000000E+00 -0.20366778389E+04  0.20366778389E+04  0.00000000000E+00 0. -1.
        -24    2    1    2    0    0 -0.31200509391E+03  0.75529363760E+03 -0.94624235413E+03  0.12527594502E+04  0.78841548737E+02 0.  0.
        254    2    1    2    0    0  0.31200509391E+03 -0.75529363760E+03 -0.54432055131E+03  0.13300333220E+04  0.89715557040E+03 0.  0.
         23    2    4    4    0    0 -0.22956825320E+03 -0.23772392381E+03 -0.45499190258E+03  0.57000472395E+03  0.93131665272E+02 0.  0.
         23    2    4    4    0    0  0.54157334711E+03 -0.51756971379E+03 -0.89328648725E+02  0.76002859809E+03  0.92107347604E+02 0.  0.
          1    1    3    3  502    0 -0.18160744713E+03  0.53095715623E+03 -0.66406419539E+03  0.86941245804E+03  0.00000000000E+00 0. -1.
         -2    1    3    3    0  502 -0.13039764679E+03  0.22433648137E+03 -0.28217815874E+03  0.38334699220E+03  0.00000000000E+00 0.  1.
         11    1    5    5    0    0 -0.59146415663E+02 -0.32912701703E+02 -0.15283185568E+03  0.16714999410E+03  0.00000000000E+00 0.  1.
        -11    1    5    5    0    0 -0.17042183754E+03 -0.20481122211E+03 -0.30216004690E+03  0.40285472984E+03  0.00000000000E+00 0. -1.
          2    1    6    6  503    0  0.51068978896E+03 -0.45390982619E+03 -0.70980859951E+02  0.68693265561E+03  0.00000000000E+00 0. -1.
         -2    1    6    6    0  503  0.30883558156E+02 -0.63659887601E+02 -0.18347788774E+02  0.73095942478E+02  0.00000000000E+00 0.  1.
<mgrwt>
<rscale>  0 0.21092749E+04</rscale>
<asrwt>0</asrwt>
<pdfrwt beam="1">  1        1 0.31333505E+00 0.21092749E+04</pdfrwt>
<pdfrwt beam="2">  1       -2 0.84017683E-01 0.21092749E+04</pdfrwt>
<totfact> 0.28099488E+00</totfact>
</mgrwt>
</event>
<event>
12    4  0.4207946E-008  0.1319297E+04  0.7818608E-02  0.9014401E-01
         -2   -1    0    0    0  501 -0.00000000000E+00  0.00000000000E+00  0.12493058505E+04  0.12493058505E+04  0.00000000000E+00 0.  1.
          1   -1    0    0  501    0  0.00000000000E+00 -0.00000000000E+00 -0.34830226306E+03  0.34830226306E+03  0.00000000000E+00 0. -1.
        -24    2    1    2    0    0 -0.19885311071E+03 -0.84541179460E+02 -0.81554196020E+02  0.24452998685E+03  0.80337145305E+02 0.  0.
        254    2    1    2    0    0  0.19885311071E+03  0.84541179460E+02  0.98255778348E+03  0.13530781267E+04  0.90482641900E+03 0.  0.
         23    2    4    4    0    0  0.23543452239E+03  0.94470017095E+02  0.11379155197E+04  0.11696475398E+04  0.94178759912E+02 0.  0.
         23    2    4    4    0    0 -0.36581411685E+02 -0.99288376352E+01 -0.15535773627E+03  0.18343058694E+03  0.89855286482E+02 0.  0.
          3    1    3    3  502    0 -0.16600244180E+03 -0.99048674428E+02 -0.77974377903E+02  0.20844052917E+03  0.00000000000E+00 0. -1.
         -4    1    3    3    0  502 -0.32850668908E+02  0.14507494967E+02 -0.35798181175E+01  0.36089457681E+02  0.00000000000E+00 0.  1.
         11    1    5    5    0    0  0.19151470007E+03  0.36015390607E+02  0.89487293783E+03  0.91584527272E+03  0.00000000000E+00 0. -1.
        -11    1    5    5    0    0  0.43919822323E+02  0.58454626489E+02  0.24304258191E+03  0.25380226708E+03  0.00000000000E+00 0.  1.
          4    1    6    6  503    0 -0.60029733399E+02  0.16376570268E+02 -0.96056069489E+02  0.11444880703E+03  0.00000000000E+00 0. -1.
         -4    1    6    6    0  503  0.23448321714E+02 -0.26305407904E+02 -0.59301666777E+02  0.68981779904E+02  0.00000000000E+00 0.  1.
<mgrwt>
<rscale>  0 0.13192969E+04</rscale>
<asrwt>0</asrwt>
<pdfrwt beam="1">  1        1 0.53584964E-01 0.13192969E+04</pdfrwt>
<pdfrwt beam="2">  1       -2 0.19220090E+00 0.13192969E+04</pdfrwt>
<totfact> 0.92445031E+00</totfact>
</mgrwt>
</event>
<event>
12    4  0.4207946E-008  0.2653549E+04  0.7818608E-02  0.8350236E-01
          1   -1    0    0  501    0  0.00000000000E+00  0.00000000000E+00  0.99639625677E+03  0.99639625677E+03  0.00000000000E+00 0. -1.
         -2   -1    0    0    0  501 -0.00000000000E+00 -0.00000000000E+00 -0.17666973505E+04  0.17666973505E+04  0.00000000000E+00 0.  1.
        -24    2    1    2    0    0 -0.24328409115E+02  0.64975226062E+03 -0.13594313950E+04  0.15083300562E+04  0.65084323460E+02 0.  0.
        254    2    1    2    0    0  0.24328409115E+02 -0.64975226062E+03  0.58913030127E+03  0.12547635510E+04  0.89698784021E+03 0.  0.
         23    2    4    4    0    0  0.42176431656E+03 -0.45689303489E+03  0.47846018131E+03  0.79010333834E+03  0.93288563561E+02 0.  0.
         23    2    4    4    0    0 -0.39743590745E+03 -0.19285922573E+03  0.11067011995E+03  0.46466021271E+03  0.92256470473E+02 0.  0.
          3    1    3    3  502    0  0.89839308327E+01  0.13787815351E+03 -0.23914109239E+03  0.27618754189E+03  0.00000000000E+00 0. -1.
         -4    1    3    3    0  502 -0.33312339948E+02  0.51187410711E+03 -0.11202903026E+04  0.12321425143E+04  0.00000000000E+00 0.  1.
         11    1    5    5    0    0  0.41040086745E+03 -0.44817362727E+03  0.48166169471E+03  0.77542663117E+03  0.00000000000E+00 0.  1.
        -11    1    5    5    0    0  0.11363449118E+02 -0.87194076207E+01 -0.32015133991E+01  0.14676707163E+02  0.00000000000E+00 0. -1.
          3    1    6    6  503    0 -0.87287507648E+02 -0.82378840282E+02  0.49288788747E+02  0.12974886132E+03  0.00000000000E+00 0. -1.
         -3    1    6    6    0  503 -0.31014839980E+03 -0.11048038545E+03  0.61381331206E+02  0.33491135139E+03  0.00000000000E+00 0.  1.
<mgrwt>
<rscale>  0 0.26535490E+04</rscale>
<asrwt>0</asrwt>
<pdfrwt beam="1">  1        1 0.15329173E+00 0.26535490E+04</pdfrwt>
<pdfrwt beam="2">  1       -2 0.27179959E+00 0.26535490E+04</pdfrwt>
<totfact> 0.55344346E-01</totfact>
</mgrwt>
</event>
<event>
12    4  0.4207946E-008  0.1719262E+04  0.7818608E-02  0.8750454E-01
         -2   -1    0    0    0  501 -0.00000000000E+00  0.00000000000E+00  0.57217875019E+03  0.57217875019E+03  0.00000000000E+00 0.  1.
          1   -1    0    0  501    0  0.00000000000E+00 -0.00000000000E+00 -0.12914946253E+04  0.12914946253E+04  0.00000000000E+00 0. -1.
        -24    2    1    2    0    0  0.29129508877E+03 -0.54303827674E+03 -0.15831832357E+03  0.64164366998E+03  0.83057262812E+02 0.  0.
        254    2    1    2    0    0 -0.29129508877E+03  0.54303827674E+03 -0.56099755150E+03  0.12220297055E+04  0.89380923554E+03 0.  0.
         23    2    4    4    0    0  0.19016239521E+03  0.15549966520E+03  0.12899589845E+03  0.29150180273E+03  0.89395059990E+02 0.  0.
         23    2    4    4    0    0 -0.48145748397E+03  0.38753861154E+03 -0.68999344995E+03  0.93052790274E+03  0.88338737216E+02 0.  0.
          3    1    3    3  502    0  0.13034593685E+03 -0.28477046555E+03 -0.11797390116E+03  0.33466718192E+03  0.00000000000E+00 0. -1.
         -4    1    3    3    0  502  0.16094915191E+03 -0.25826781119E+03 -0.40344422402E+02  0.30697648806E+03  0.00000000000E+00 0.  1.
         11    1    5    5    0    0  0.10346555657E+03  0.10437381807E+03  0.29345719296E+02  0.14986722969E+03  0.00000000000E+00 0. -1.
        -11    1    5    5    0    0  0.86696838641E+02  0.51125847131E+02  0.99650179157E+02  0.14163457304E+03  0.00000000000E+00 0.  1.
          1    1    6    6  503    0 -0.32540211839E+03  0.23221009360E+03 -0.39077881420E+03  0.55903143726E+03  0.00000000000E+00 0. -1.
         -1    1    6    6    0  503 -0.15605536559E+03  0.15532851794E+03 -0.29921463575E+03  0.37149646548E+03  0.00000000000E+00 0.  1.
<mgrwt>
<rscale>  0 0.17192624E+04</rscale>
<asrwt>0</asrwt>
<pdfrwt beam="1">  1        1 0.19869148E+00 0.17192624E+04</pdfrwt>
<pdfrwt beam="2">  1       -2 0.88027501E-01 0.17192624E+04</pdfrwt>
<totfact> 0.85033447E+00</totfact>
</mgrwt>
</event>
<event>
12    4  0.4207946E-008  0.1656580E+04  0.7818608E-02  0.8786523E-01
          1   -1    0    0  501    0  0.00000000000E+00  0.00000000000E+00  0.10040143478E+04  0.10040143478E+04  0.00000000000E+00 0. -1.
         -2   -1    0    0    0  501 -0.00000000000E+00 -0.00000000000E+00 -0.68332119251E+03  0.68332119251E+03  0.00000000000E+00 0.  1.
        -24    2    1    2    0    0  0.10914974771E+03 -0.81288678426E+02 -0.46309013092E+03  0.48933098571E+03  0.80441454253E+02 0.  0.
        254    2    1    2    0    0 -0.10914974771E+03  0.81288678426E+02  0.78378328624E+03  0.11980045546E+04  0.89575507616E+03 0.  0.
         23    2    4    4    0    0  0.99298986758E+02 -0.24576635451E+03 -0.40109006010E+02  0.28287522021E+03  0.90267757614E+02 0.  0.
         23    2    4    4    0    0 -0.20844873447E+03  0.32705503293E+03  0.82389229225E+03  0.91512933443E+03  0.90814756721E+02 0.  0.
          3    1    3    3  502    0  0.38545230089E+02  0.49465365864E+01 -0.63126540237E+02  0.74129367117E+02  0.00000000000E+00 0. -1.
         -4    1    3    3    0  502  0.70604517619E+02 -0.86235215013E+02 -0.39996359068E+03  0.41520161860E+03  0.00000000000E+00 0.  1.
         11    1    5    5    0    0  0.58091429168E+02 -0.52812567892E+02  0.10432371705E+02  0.79199847535E+02  0.00000000000E+00 0. -1.
        -11    1    5    5    0    0  0.41207557590E+02 -0.19295378661E+03 -0.50541377714E+02  0.20367537267E+03  0.00000000000E+00 0.  1.
          3    1    6    6  503    0 -0.19302739486E+03  0.28478898706E+03  0.64909970524E+03  0.73463921053E+03  0.00000000000E+00 0. -1.
         -3    1    6    6    0  503 -0.15421339609E+02  0.42266045871E+02  0.17479258701E+03  0.18049012389E+03  0.00000000000E+00 0.  1.
<mgrwt>
<rscale>  0 0.16565799E+04</rscale>
<asrwt>0</asrwt>
<pdfrwt beam="1">  1        1 0.15446375E+00 0.16565799E+04</pdfrwt>
<pdfrwt beam="2">  1       -2 0.10512634E+00 0.16565799E+04</pdfrwt>
<totfact> 0.92187324E+00</totfact>
</mgrwt>
</event>
<event>
12    4  0.4207946E-008  0.1846399E+04  0.7818608E-02  0.8682007E-01
         -4   -1    0    0    0  501 -0.00000000000E+00  0.00000000000E+00  0.85395678640E+03  0.85395678640E+03  0.00000000000E+00 0.  1.
          3   -1    0    0  501    0  0.00000000000E+00 -0.00000000000E+00 -0.99805715416E+03  0.99805715416E+03  0.00000000000E+00 0. -1.
        -24    2    1    2    0    0 -0.63053781210E+03  0.21497112360E+02 -0.34476635091E+03  0.72326857709E+03  0.78826008103E+02 0.  0.
        254    2    1    2    0    0  0.63053781210E+03 -0.21497112360E+02  0.20066598315E+03  0.11287453635E+04  0.91419866574E+03 0.  0.
         23    2    4    4    0    0  0.97028232059E+02  0.39609994853E+03  0.11210959175E+02  0.41905647613E+03  0.95775766975E+02 0.  0.
         23    2    4    4    0    0  0.53350958004E+03 -0.41759706089E+03  0.18945502398E+03  0.70968888735E+03  0.93516487632E+02 0.  0.
          3    1    3    3  502    0 -0.45480746064E+03 -0.18741961092E+02 -0.25750190377E+03  0.52298022697E+03  0.00000000000E+00 0. -1.
         -4    1    3    3    0  502 -0.17573035146E+03  0.40239073452E+02 -0.87264447134E+02  0.20028835011E+03  0.00000000000E+00 0.  1.
         11    1    5    5    0    0  0.11169371802E+03  0.37924494373E+03  0.33287200892E+01  0.39536476116E+03  0.00000000000E+00 0. -1.
        -11    1    5    5    0    0 -0.14665485960E+02  0.16855004801E+02  0.78822390862E+01  0.23691714972E+02  0.00000000000E+00 0.  1.
          1    1    6    6  503    0  0.23230413838E+03 -0.23473592200E+03  0.11364672326E+03  0.34925884884E+03  0.00000000000E+00 0. -1.
         -1    1    6    6    0  503  0.30120544166E+03 -0.18286113888E+03  0.75808300716E+02  0.36043003850E+03  0.00000000000E+00 0.  1.
<mgrwt>
<rscale>  0 0.18463994E+04</rscale>
<asrwt>0</asrwt>
<pdfrwt beam="1">  1        3 0.15354725E+00 0.18463994E+04</pdfrwt>
<pdfrwt beam="2">  1       -4 0.13137797E+00 0.18463994E+04</pdfrwt>
<totfact> 0.27606919E-01</totfact>
</mgrwt>
</event>
<event>
12    4  0.4207946E-008  0.2273093E+04  0.7818608E-02  0.8488606E-01
         -2   -1    0    0    0  501 -0.00000000000E+00  0.00000000000E+00  0.11035430612E+04  0.11035430612E+04  0.00000000000E+00 0.  1.
          1   -1    0    0  501    0  0.00000000000E+00 -0.00000000000E+00 -0.11705370463E+04  0.11705370463E+04  0.00000000000E+00 0. -1.
        -24    2    1    2    0    0  0.34653055135E+03 -0.55957184776E+03  0.66724492207E+03  0.94060109109E+03  0.79438974765E+02 0.  0.
        254    2    1    2    0    0 -0.34653055135E+03  0.55957184776E+03 -0.73423890718E+03  0.13334790165E+04  0.89769451302E+03 0.  0.
         23    2    4    4    0    0  0.14464512923E+03  0.27506715820E+03  0.82892703358E+02  0.33445035616E+03  0.91660708795E+02 0.  0.
         23    2    4    4    0    0 -0.49117568058E+03  0.28450468956E+03 -0.81713161054E+03  0.99902866030E+03  0.90320139411E+02 0.  0.
          3    1    3    3  502    0  0.15952583887E+03 -0.18507102661E+03  0.25016188794E+03  0.34968664306E+03  0.00000000000E+00 0. -1.
         -4    1    3    3    0  502  0.18700471247E+03 -0.37450082115E+03  0.41708303413E+03  0.59091444803E+03  0.00000000000E+00 0.  1.
         11    1    5    5    0    0  0.11022429346E+03  0.23232089065E+03  0.10157216301E+03  0.27647657297E+03  0.00000000000E+00 0. -1.
        -11    1    5    5    0    0  0.34420835775E+02  0.42746267552E+02 -0.18679459657E+02  0.57973783197E+02  0.00000000000E+00 0.  1.
          2    1    6    6  503    0 -0.47804306590E+03  0.27233984440E+03 -0.81119448933E+03  0.98016869121E+03  0.00000000000E+00 0. -1.
         -2    1    6    6    0  503 -0.13132614678E+02  0.12164845154E+02 -0.59371212124E+01  0.18859969093E+02  0.00000000000E+00 0.  1.
<mgrwt>
<rscale>  0 0.22730931E+04</rscale>
<asrwt>0</asrwt>
<pdfrwt beam="1">  1        1 0.18008262E+00 0.22730931E+04</pdfrwt>
<pdfrwt beam="2">  1       -2 0.16977586E+00 0.22730931E+04</pdfrwt>
<totfact> 0.19096084E+00</totfact>
</mgrwt>
</event>
<event>
12    4  0.4207946E-008  0.1404262E+04  0.7818608E-02  0.8950739E-01
         -4   -1    0    0    0  501 -0.00000000000E+00  0.00000000000E+00  0.36468157892E+03  0.36468157892E+03  0.00000000000E+00 0.  1.
          3   -1    0    0  501    0  0.00000000000E+00 -0.00000000000E+00 -0.13518312092E+04  0.13518312092E+04  0.00000000000E+00 0. -1.
        -24    2    1    2    0    0 -0.21120487541E+03 -0.27860264964E+03 -0.14307465677E+02  0.35827044215E+03  0.76980974026E+02 0.  0.
        254    2    1    2    0    0  0.21120487541E+03  0.27860264964E+03 -0.97284216463E+03  0.13582423460E+04  0.88100706999E+03 0.  0.
         23    2    4    4    0    0 -0.35441581504E+02  0.91470139310E+02 -0.10232749908E+04  0.10318910417E+04  0.89913975565E+02 0.  0.
         23    2    4    4    0    0  0.24664645691E+03  0.18713251033E+03  0.50432826186E+02  0.32635130430E+03  0.90048057914E+02 0.  0.
          3    1    3    3  502    0 -0.11388373303E+03 -0.15261016590E+03  0.30584409348E+02  0.19285946562E+03  0.00000000000E+00 0. -1.
         -4    1    3    3    0  502 -0.97321142381E+02 -0.12599248373E+03 -0.44891875025E+02  0.16541097652E+03  0.00000000000E+00 0.  1.
         11    1    5    5    0    0  0.30150077867E+02  0.36437414932E+02 -0.38827517721E+03  0.39114489085E+03  0.00000000000E+00 0.  1.
        -11    1    5    5    0    0 -0.65591659371E+02  0.55032724378E+02 -0.63499981361E+03  0.64074615084E+03  0.00000000000E+00 0. -1.
          1    1    6    6  503    0  0.23187585276E+03  0.14807439865E+03  0.22350186450E+02  0.27602892867E+03  0.00000000000E+00 0. -1.
         -1    1    6    6    0  503  0.14770604154E+02  0.39058111675E+02  0.28082639736E+02  0.50322375632E+02  0.00000000000E+00 0.  1.
<mgrwt>
<rscale>  0 0.14042620E+04</rscale>
<asrwt>0</asrwt>
<pdfrwt beam="1">  1        3 0.20797403E+00 0.14042620E+04</pdfrwt>
<pdfrwt beam="2">  1       -4 0.56104858E-01 0.14042620E+04</pdfrwt>
<totfact> 0.88729934E-01</totfact>
</mgrwt>
</event>
<event>
12    4  0.4207946E-008  0.1647570E+04  0.7818608E-02  0.8791845E-01
          1   -1    0    0  501    0  0.00000000000E+00  0.00000000000E+00  0.13178050473E+04  0.13178050473E+04  0.00000000000E+00 0. -1.
         -2   -1    0    0    0  501 -0.00000000000E+00 -0.00000000000E+00 -0.51496388725E+03  0.51496388725E+03  0.00000000000E+00 0.  1.
        -24    2    1    2    0    0 -0.18679074750E+03 -0.16340489934E+03 -0.28102439357E+03  0.38290333516E+03  0.77770880216E+02 0.  0.
        254    2    1    2    0    0  0.18679074750E+03  0.16340489934E+03  0.10838655536E+04  0.14498655994E+04  0.93045890478E+03 0.  0.
         23    2    4    4    0    0 -0.99355774177E+02  0.28950963005E+01  0.11007748608E+04  0.11086045613E+04  0.86132616612E+02 0.  0.
         23    2    4    4    0    0  0.28614652168E+03  0.16050980304E+03 -0.16909307166E+02  0.34126103813E+03  0.92357689111E+02 0.  0.
          1    1    3    3  502    0 -0.11628960142E+03 -0.50808734190E+02 -0.14688295764E+03  0.19411182889E+03  0.00000000000E+00 0. -1.
         -2    1    3    3    0  502 -0.70501146081E+02 -0.11259616515E+03 -0.13414143593E+03  0.18879150627E+03  0.00000000000E+00 0.  1.
         11    1    5    5    0    0 -0.10383142265E+03  0.55676939039E+01  0.68947249531E+03  0.69726916276E+03  0.00000000000E+00 0.  1.
        -11    1    5    5    0    0  0.44756484729E+01 -0.26725976033E+01  0.41130236549E+03  0.41133539851E+03  0.00000000000E+00 0. -1.
          3    1    6    6  503    0  0.28805058587E+02 -0.35143235560E+01 -0.21403633897E+02  0.36058250294E+02  0.00000000000E+00 0. -1.
         -3    1    6    6    0  503  0.25734146309E+03  0.16402412659E+03  0.44943267311E+01  0.30520278784E+03  0.00000000000E+00 0.  1.
<mgrwt>
<rscale>  0 0.16475703E+04</rscale>
<asrwt>0</asrwt>
<pdfrwt beam="1">  1        1 0.20273924E+00 0.16475703E+04</pdfrwt>
<pdfrwt beam="2">  1       -2 0.79225214E-01 0.16475703E+04</pdfrwt>
<totfact> 0.10406695E+01</totfact>
</mgrwt>
</event>
<event>
12    4  0.4207946E-008  0.1442696E+04  0.7818608E-02  0.8923480E-01
         -2   -1    0    0    0  501 -0.00000000000E+00  0.00000000000E+00  0.53587357397E+03  0.53587357397E+03  0.00000000000E+00 0.  1.
          1   -1    0    0  501    0  0.00000000000E+00 -0.00000000000E+00 -0.97101865876E+03  0.97101865876E+03  0.00000000000E+00 0. -1.
        -24    2    1    2    0    0  0.15146204525E+03  0.10933801103E+01  0.28771852181E+03  0.33449008526E+03  0.78483901021E+02 0.  0.
        254    2    1    2    0    0 -0.15146204525E+03 -0.10933801103E+01 -0.72286360660E+03  0.11724021475E+04  0.91052350601E+03 0.  0.
         23    2    4    4    0    0 -0.28748728195E+03  0.20365728900E+03  0.39491441461E+02  0.36614302649E+03  0.91520015600E+02 0.  0.
         23    2    4    4    0    0  0.13602523671E+03 -0.20475066911E+03 -0.76235504806E+03  0.80625912097E+03  0.91884978757E+02 0.  0.
          1    1    3    3  502    0  0.28039401162E+02  0.10165525992E+02  0.11773947540E+02  0.32065117758E+02  0.00000000000E+00 0. -1.
         -2    1    3    3    0  502  0.12342264409E+03 -0.90721458817E+01  0.27594457427E+03  0.30242496751E+03  0.00000000000E+00 0.  1.
         11    1    5    5    0    0 -0.26625058917E+03  0.18445169804E+03  0.61926244235E+02  0.32976759220E+03  0.00000000000E+00 0. -1.
        -11    1    5    5    0    0 -0.21236692786E+02  0.19205590960E+02 -0.22434802773E+02  0.36375434295E+02  0.00000000000E+00 0.  1.
          1    1    6    6  503    0  0.13852569933E+03 -0.21253049399E+03 -0.74637272574E+03  0.78830883921E+03  0.00000000000E+00 0. -1.
         -1    1    6    6    0  503 -0.25004626205E+01  0.77798248793E+01 -0.15982322324E+02  0.17950281762E+02  0.00000000000E+00 0.  1.
<mgrwt>
<rscale>  0 0.14426964E+04</rscale>
<asrwt>0</asrwt>
<pdfrwt beam="1">  1        1 0.14938748E+00 0.14426964E+04</pdfrwt>
<pdfrwt beam="2">  1       -2 0.82442089E-01 0.14426964E+04</pdfrwt>
<totfact> 0.17547122E+01</totfact>
</mgrwt>
</event>
<event>
12    4  0.4207946E-008  0.2022141E+04  0.7818608E-02  0.8596338E-01
          1   -1    0    0  501    0  0.00000000000E+00  0.00000000000E+00  0.75587119176E+03  0.75587119176E+03  0.00000000000E+00 0. -1.
         -2   -1    0    0    0  501 -0.00000000000E+00 -0.00000000000E+00 -0.13524313228E+04  0.13524313228E+04  0.00000000000E+00 0.  1.
        -24    2    1    2    0    0 -0.71548353575E+03  0.24088197486E+03  0.34287461328E+02  0.76125240605E+03  0.91590283171E+02 0.  0.
        254    2    1    2    0    0  0.71548353575E+03 -0.24088197486E+03 -0.63084759239E+03  0.13470501085E+04  0.92012743375E+03 0.  0.
         23    2    4    4    0    0  0.14379803928E+02  0.12322216667E+03 -0.52230877505E+03  0.54427794580E+03  0.89674660123E+02 0.  0.
         23    2    4    4    0    0  0.70110373182E+03 -0.36410414153E+03 -0.10853881734E+03  0.80277216274E+03  0.92434851386E+02 0.  0.
          1    1    3    3  502    0 -0.64731454383E+03  0.18758190434E+03  0.30820922568E+02  0.67465029367E+03  0.00000000000E+00 0. -1.
         -2    1    3    3    0  502 -0.68168991922E+02  0.53300070518E+02  0.34665387605E+01  0.86602112375E+02  0.00000000000E+00 0.  1.
         11    1    5    5    0    0  0.40920045694E+02  0.11943555719E+03 -0.42786818119E+03  0.44610591000E+03  0.00000000000E+00 0. -1.
        -11    1    5    5    0    0 -0.26540241766E+02  0.37866094799E+01 -0.94440593858E+02  0.98172035798E+02  0.00000000000E+00 0.  1.
          4    1    6    6  503    0  0.67520207822E+03 -0.35710039505E+03 -0.87776407238E+02  0.76884539164E+03  0.00000000000E+00 0. -1.
         -4    1    6    6    0  503  0.25901653603E+02 -0.70037464749E+01 -0.20762410105E+02  0.33926771102E+02  0.00000000000E+00 0.  1.
<mgrwt>
<rscale>  0 0.20221413E+04</rscale>
<asrwt>0</asrwt>
<pdfrwt beam="1">  1        1 0.11628788E+00 0.20221413E+04</pdfrwt>
<pdfrwt beam="2">  1       -2 0.20806635E+00 0.20221413E+04</pdfrwt>
<totfact> 0.23116923E+00</totfact>
</mgrwt>
</event>
<event>
12    4  0.4207946E-008  0.2077917E+04  0.7818608E-02  0.8571034E-01
         -2   -1    0    0    0  501 -0.00000000000E+00  0.00000000000E+00  0.91258715182E+03  0.91258715182E+03  0.00000000000E+00 0.  1.
          1   -1    0    0  501    0  0.00000000000E+00 -0.00000000000E+00 -0.11828297323E+04  0.11828297323E+04  0.00000000000E+00 0. -1.
        -24    2    1    2    0    0  0.84378339283E+02 -0.10195443976E+03 -0.94501785185E+03  0.95752637458E+03  0.79269198207E+02 0.  0.
        254    2    1    2    0    0 -0.84378339283E+02  0.10195443976E+03  0.67477527136E+03  0.11378905095E+04  0.90661939805E+03 0.  0.
         23    2    4    4    0    0  0.30719312879E+03 -0.20531187991E+03  0.43620847684E+03  0.57855473401E+03  0.89034591941E+02 0.  0.
         23    2    4    4    0    0 -0.39157146808E+03  0.30726631967E+03  0.23856679452E+03  0.55933577553E+03  0.90562622093E+02 0.  0.
          1    1    3    3  502    0  0.63239104975E+02 -0.11354598233E+03 -0.77914194276E+03  0.78990761578E+03  0.00000000000E+00 0. -1.
         -4    1    3    3    0  502  0.21139234307E+02  0.11591542575E+02 -0.16587590908E+03  0.16761875880E+03  0.00000000000E+00 0.  1.
         11    1    5    5    0    0  0.31256511890E+03 -0.19932584180E+03  0.41834209828E+03  0.55896140829E+03  0.00000000000E+00 0. -1.
        -11    1    5    5    0    0 -0.53719901012E+01 -0.59860381096E+01  0.17866378560E+02  0.19593325719E+02  0.00000000000E+00 0.  1.
          4    1    6    6  503    0 -0.82554142576E+02  0.23665619654E+02  0.30504145169E+02  0.91135892395E+02  0.00000000000E+00 0. -1.
         -4    1    6    6    0  503 -0.30901732550E+03  0.28360070002E+03  0.20806264935E+03  0.46819988313E+03  0.00000000000E+00 0.  1.
<mgrwt>
<rscale>  0 0.20779174E+04</rscale>
<asrwt>0</asrwt>
<pdfrwt beam="1">  1        1 0.18197380E+00 0.20779174E+04</pdfrwt>
<pdfrwt beam="2">  1       -2 0.14039802E+00 0.20779174E+04</pdfrwt>
<totfact> 0.31698624E+00</totfact>
</mgrwt>
</event>
<event>
12    4  0.4207946E-008  0.1668354E+04  0.7818608E-02  0.8779622E-01
         -2   -1    0    0    0  501 -0.00000000000E+00  0.00000000000E+00  0.81390702957E+03  0.81390702957E+03  0.00000000000E+00 0.  1.
          1   -1    0    0  501    0  0.00000000000E+00 -0.00000000000E+00 -0.85495155123E+03  0.85495155123E+03  0.00000000000E+00 0. -1.
        -24    2    1    2    0    0  0.71870349633E+02 -0.46266754725E+03 -0.35732634447E+03  0.59426051378E+03  0.78973637084E+02 0.  0.
        254    2    1    2    0    0 -0.71870349633E+02  0.46266754725E+03  0.31628182281E+03  0.10745980670E+04  0.91405700466E+03 0.  0.
         23    2    4    4    0    0 -0.30131336710E+03  0.45874880323E+03 -0.12383308500E+03  0.57052434673E+03  0.94462625511E+02 0.  0.
         23    2    4    4    0    0  0.22944301746E+03  0.39187440208E+01  0.44011490781E+03  0.50407372029E+03  0.87918875045E+02 0.  0.
          3    1    3    3  502    0  0.26476283071E+02 -0.33966746104E+03 -0.22698580911E+03  0.40938677945E+03  0.00000000000E+00 0. -1.
         -4    1    3    3    0  502  0.45394066562E+02 -0.12300008621E+03 -0.13034053536E+03  0.18487373433E+03  0.00000000000E+00 0.  1.
         11    1    5    5    0    0 -0.72732793127E+02  0.49627514582E+02 -0.25553844936E+02  0.91683959287E+02  0.00000000000E+00 0. -1.
        -11    1    5    5    0    0 -0.22858057397E+03  0.40912128865E+03 -0.98279240067E+02  0.47884038744E+03  0.00000000000E+00 0.  1.
          4    1    6    6  503    0 -0.39389669583E+01 -0.69917062318E+01  0.32509065456E+01  0.86583953536E+01  0.00000000000E+00 0. -1.
         -4    1    6    6    0  503  0.23338198442E+03  0.10910450253E+02  0.43686400126E+03  0.49541532493E+03  0.00000000000E+00 0.  1.
<mgrwt>
<rscale>  0 0.16683538E+04</rscale>
<asrwt>0</asrwt>
<pdfrwt beam="1">  1        1 0.13153101E+00 0.16683538E+04</pdfrwt>
<pdfrwt beam="2">  1       -2 0.12521647E+00 0.16683538E+04</pdfrwt>
<totfact> 0.79154438E+00</totfact>
</mgrwt>
</event>
<event>
12    4  0.4207946E-008  0.2090655E+04  0.7818608E-02  0.8565371E-01
         -2   -1    0    0    0  501 -0.00000000000E+00  0.00000000000E+00  0.42182373433E+03  0.42182373433E+03  0.00000000000E+00 0.  1.
          1   -1    0    0  501    0  0.00000000000E+00 -0.00000000000E+00 -0.25904402341E+04  0.25904402341E+04  0.00000000000E+00 0. -1.
        -24    2    1    2    0    0  0.27642429097E+03  0.54649000481E+03 -0.17387086965E+04  0.18451263743E+04  0.79509069410E+02 0.  0.
        254    2    1    2    0    0 -0.27642429097E+03 -0.54649000481E+03 -0.42990780329E+03  0.11671375941E+04  0.89572748657E+03 0.  0.
         23    2    4    4    0    0 -0.53505716675E+03 -0.26234010086E+03 -0.27891436657E+02  0.60385095778E+03  0.93539011985E+02 0.  0.
         23    2    4    4    0    0  0.25863287579E+03 -0.28414990396E+03 -0.40201636664E+03  0.56328663630E+03  0.89680227675E+02 0.  0.
          3    1    3    3  502    0  0.16352384165E+03  0.33697938073E+03 -0.11743951250E+04  0.12326796257E+04  0.00000000000E+00 0. -1.
         -4    1    3    3    0  502  0.11290044931E+03  0.20951062408E+03 -0.56431357142E+03  0.61244674866E+03  0.00000000000E+00 0.  1.
         11    1    5    5    0    0 -0.40990723638E+02 -0.36915746433E+02  0.20006557745E+02  0.58679418128E+02  0.00000000000E+00 0. -1.
        -11    1    5    5    0    0 -0.49406644312E+03 -0.22542435442E+03 -0.47897994401E+02  0.54517153965E+03  0.00000000000E+00 0.  1.
          1    1    6    6  503    0  0.22002635422E+02 -0.24784469119E+01 -0.47423108805E+02  0.52337461854E+02  0.00000000000E+00 0. -1.
         -1    1    6    6    0  503  0.23663024037E+03 -0.28167145704E+03 -0.35459325783E+03  0.51094917445E+03  0.00000000000E+00 0.  1.
<mgrwt>
<rscale>  0 0.20906546E+04</rscale>
<asrwt>0</asrwt>
<pdfrwt beam="1">  1        1 0.39852928E+00 0.20906546E+04</pdfrwt>
<pdfrwt beam="2">  1       -2 0.64895958E-01 0.20906546E+04</pdfrwt>
<totfact> 0.20767501E+00</totfact>
</mgrwt>
</event>
<event>
12    4  0.4207946E-008  0.1652461E+04  0.7818608E-02  0.8788952E-01
          1   -1    0    0  501    0  0.00000000000E+00  0.00000000000E+00  0.17793855961E+04  0.17793855961E+04  0.00000000000E+00 0. -1.
         -2   -1    0    0    0  501 -0.00000000000E+00 -0.00000000000E+00 -0.38364748866E+03  0.38364748866E+03  0.00000000000E+00 0.  1.
        -24    2    1    2    0    0 -0.48051598224E+03  0.29938046961E+03  0.37494877652E+03  0.68377951984E+03  0.80271862827E+02 0.  0.
        254    2    1    2    0    0  0.48051598224E+03 -0.29938046961E+03  0.10207893309E+04  0.14792535649E+04  0.90865613764E+03 0.  0.
         23    2    4    4    0    0  0.26751801448E+03  0.22506759451E+03  0.77579862053E+03  0.85590374395E+03  0.92121708171E+02 0.  0.
         23    2    4    4    0    0  0.21299796776E+03 -0.52444806412E+03  0.24499071041E+03  0.62334982100E+03  0.90170088862E+02 0.  0.
          1    1    3    3  502    0 -0.46745667032E+03  0.28649479029E+03  0.34235180326E+03  0.64637431933E+03  0.00000000000E+00 0. -1.
         -2    1    3    3    0  502 -0.13059311916E+02  0.12885679326E+02  0.32596973260E+02  0.37405200509E+02  0.00000000000E+00 0.  1.
         11    1    5    5    0    0  0.65285923695E+02  0.11252240498E+03  0.27695511974E+03  0.30598640787E+03  0.00000000000E+00 0. -1.
        -11    1    5    5    0    0  0.20223209079E+03  0.11254518953E+03  0.49884350079E+03  0.54991733607E+03  0.00000000000E+00 0.  1.
          2    1    6    6  503    0  0.44472758046E+02 -0.73557053304E+02  0.71088087327E+02  0.11154363478E+03  0.00000000000E+00 0. -1.
         -2    1    6    6    0  503  0.16852520971E+03 -0.45089101082E+03  0.17390262308E+03  0.51180618622E+03  0.00000000000E+00 0.  1.
<mgrwt>
<rscale>  0 0.16524610E+04</rscale>
<asrwt>0</asrwt>
<pdfrwt beam="1">  1        1 0.27375162E+00 0.16524610E+04</pdfrwt>
<pdfrwt beam="2">  1       -2 0.59022692E-01 0.16524610E+04</pdfrwt>
<totfact> 0.94628143E+00</totfact>
</mgrwt>
</event>
<event>
12    4  0.4207946E-008  0.1474840E+04  0.7818608E-02  0.8901358E-01
          1   -1    0    0  501    0  0.00000000000E+00  0.00000000000E+00  0.41515018792E+04  0.41515018792E+04  0.00000000000E+00 0. -1.
         -2   -1    0    0    0  501 -0.00000000000E+00 -0.00000000000E+00 -0.13098594175E+03  0.13098594175E+03  0.00000000000E+00 0.  1.
        -24    2    1    2    0    0 -0.44086268491E+03  0.12619875979E+03  0.11594985527E+04  0.12494731695E+04  0.80375827808E+02 0.  0.
        254    2    1    2    0    0  0.44086268491E+03 -0.12619875979E+03  0.28610173848E+04  0.30330146515E+04  0.89636564307E+03 0.  0.
         23    2    4    4    0    0  0.26015832023E+02  0.32529307247E+03  0.60744794858E+03  0.69570474960E+03  0.92302122785E+02 0.  0.
         23    2    4    4    0    0  0.41484685289E+03 -0.45149183225E+03  0.22535694362E+04  0.23373099019E+04  0.92193208265E+02 0.  0.
          3    1    3    3  502    0 -0.92833168606E+02  0.13427048839E+02  0.16471376774E+03  0.18954922347E+03  0.00000000000E+00 0. -1.
         -4    1    3    3    0  502 -0.34802951631E+03  0.11277171095E+03  0.99478478493E+03  0.10599239460E+04  0.00000000000E+00 0.  1.
         11    1    5    5    0    0  0.59276036046E+02  0.16288492310E+03  0.30670952179E+03  0.35230083364E+03  0.00000000000E+00 0. -1.
        -11    1    5    5    0    0 -0.33260204023E+02  0.16240814937E+03  0.30073842678E+03  0.34340391596E+03  0.00000000000E+00 0.  1.
          4    1    6    6  503    0  0.25173995925E+03 -0.24873455296E+03  0.11361506734E+04  0.11899916965E+04  0.00000000000E+00 0.  1.
         -4    1    6    6    0  503  0.16310689364E+03 -0.20275727929E+03  0.11174187628E+04  0.11473182054E+04  0.00000000000E+00 0. -1.
<mgrwt>
<rscale>  0 0.14748402E+04</rscale>
<asrwt>0</asrwt>
<pdfrwt beam="1">  1        1 0.63869249E+00 0.14748402E+04</pdfrwt>
<pdfrwt beam="2">  1       -2 0.20151687E-01 0.14748402E+04</pdfrwt>
<totfact> 0.12888490E+00</totfact>
</mgrwt>
</event>
<event>
12    4  0.4207946E-008  0.1885238E+04  0.7818608E-02  0.8662239E-01
         -2   -1    0    0    0  501 -0.00000000000E+00  0.00000000000E+00  0.38264650626E+03  0.38264650626E+03  0.00000000000E+00 0.  1.
          1   -1    0    0  501    0  0.00000000000E+00 -0.00000000000E+00 -0.23220664095E+04  0.23220664095E+04  0.00000000000E+00 0. -1.
        -24    2    1    2    0    0  0.72230264935E+03 -0.93561542175E+02 -0.82042588002E+03  0.10999834472E+04  0.79937976088E+02 0.  0.
        254    2    1    2    0    0 -0.72230264935E+03  0.93561542175E+02 -0.11189940232E+04  0.16047294686E+04  0.89024387888E+03 0.  0.
         23    2    4    4    0    0 -0.15085237645E+02 -0.30300363303E+03 -0.44391728084E+03  0.54574514752E+03  0.93468967011E+02 0.  0.
         23    2    4    4    0    0 -0.70721741170E+03  0.39656517521E+03 -0.67507674235E+03  0.10589843210E+04  0.91097631816E+02 0.  0.
          3    1    3    3  502    0  0.54297624046E+03 -0.59842968663E+02 -0.56310159531E+03  0.78453029593E+03  0.00000000000E+00 0. -1.
         -4    1    3    3    0  502  0.17932640889E+03 -0.33718573512E+02 -0.25732428471E+03  0.31545315124E+03  0.00000000000E+00 0.  1.
         11    1    5    5    0    0 -0.16987714309E+00 -0.24241273763E+03 -0.40559911762E+03  0.47251942652E+03  0.00000000000E+00 0. -1.
        -11    1    5    5    0    0 -0.14915360502E+02 -0.60590895398E+02 -0.38318163218E+02  0.73225721004E+02  0.00000000000E+00 0.  1.
          2    1    6    6  503    0 -0.66974410659E+03  0.35959302992E+03 -0.60616072861E+03  0.97226289881E+03  0.00000000000E+00 0. -1.
         -2    1    6    6    0  503 -0.37473305110E+02  0.36972145290E+02 -0.68916013738E+02  0.86721422226E+02  0.00000000000E+00 0.  1.
<mgrwt>
<rscale>  0 0.18852380E+04</rscale>
<asrwt>0</asrwt>
<pdfrwt beam="1">  1        1 0.35724099E+00 0.18852380E+04</pdfrwt>
<pdfrwt beam="2">  1       -2 0.58868693E-01 0.18852380E+04</pdfrwt>
<totfact> 0.39891175E+00</totfact>
</mgrwt>
</event>
<event>
12    4  0.4207946E-008  0.1662725E+04  0.7818608E-02  0.8782914E-01
          1   -1    0    0  501    0  0.00000000000E+00  0.00000000000E+00  0.87842734340E+03  0.87842734340E+03  0.00000000000E+00 0. -1.
         -2   -1    0    0    0  501 -0.00000000000E+00 -0.00000000000E+00 -0.78681944693E+03  0.78681944693E+03  0.00000000000E+00 0.  1.
        -24    2    1    2    0    0 -0.58254494102E+02 -0.56976753896E+03 -0.70546586906E+02  0.58236765468E+03  0.78400444903E+02 0.  0.
        254    2    1    2    0    0  0.58254494102E+02  0.56976753896E+03  0.16215448337E+03  0.10828791357E+04  0.90460185244E+03 0.  0.
         23    2    4    4    0    0 -0.32373721835E+03  0.14398085663E+03  0.31432186900E+03  0.48393768971E+03  0.99303456968E+02 0.  0.
         23    2    4    4    0    0  0.38199171245E+03  0.42578668232E+03 -0.15216738563E+03  0.59894144595E+03  0.91454771363E+02 0.  0.
          3    1    3    3  502    0  0.67173917721E+01 -0.11921137029E+03  0.10994479896E+02  0.11990559932E+03  0.00000000000E+00 0. -1.
         -2    1    3    3    0  502 -0.64971885875E+02 -0.45055616866E+03 -0.81541066803E+02  0.46246205536E+03  0.00000000000E+00 0.  1.
         11    1    5    5    0    0 -0.32205798118E+03  0.15445226215E+03  0.30257307598E+03  0.46811036181E+03  0.00000000000E+00 0.  1.
        -11    1    5    5    0    0 -0.16792371627E+01 -0.10471405513E+02  0.11748793018E+02  0.15827327894E+02  0.00000000000E+00 0. -1.
          4    1    6    6  503    0  0.34554131430E+03  0.33691176481E+03 -0.11644682705E+03  0.49645563818E+03  0.00000000000E+00 0.  1.
         -4    1    6    6    0  503  0.36450398150E+02  0.88874917514E+02 -0.35720558582E+02  0.10248580777E+03  0.00000000000E+00 0. -1.
<mgrwt>
<rscale>  0 0.16627251E+04</rscale>
<asrwt>0</asrwt>
<pdfrwt beam="1">  1        1 0.13514267E+00 0.16627251E+04</pdfrwt>
<pdfrwt beam="2">  1       -2 0.12104915E+00 0.16627251E+04</pdfrwt>
<totfact> 0.82393055E+00</totfact>
</mgrwt>
</event>
<event>
12    4  0.4207946E-008  0.1109805E+04  0.7818608E-02  0.9195688E-01
         -2   -1    0    0    0  501 -0.00000000000E+00  0.00000000000E+00  0.17814608939E+03  0.17814608939E+03  0.00000000000E+00 0.  1.
          1   -1    0    0  501    0  0.00000000000E+00 -0.00000000000E+00 -0.17284506122E+04  0.17284506122E+04  0.00000000000E+00 0. -1.
        -24    2    1    2    0    0 -0.11771194555E+03 -0.10755323936E+03 -0.11081607920E+03  0.20859328530E+03  0.76204683846E+02 0.  0.
        254    2    1    2    0    0  0.11771194555E+03  0.10755323936E+03 -0.14394884436E+04  0.16980034163E+04  0.88637735815E+03 0.  0.
         23    2    4    4    0    0 -0.17383167775E+03 -0.24358591919E+03 -0.19399997528E+03  0.36830050770E+03  0.91965870565E+02 0.  0.
         23    2    4    4    0    0  0.29154362330E+03  0.35113915855E+03 -0.12454884683E+04  0.13297029086E+04  0.92584596174E+02 0.  0.
          1    1    3    3  502    0 -0.75640435756E+02 -0.70017730680E+02 -0.11198499341E+03  0.15219920131E+03  0.00000000000E+00 0. -1.
         -2    1    3    3    0  502 -0.42071509795E+02 -0.37535508684E+02  0.11689142085E+01  0.56394083990E+02  0.00000000000E+00 0.  1.
         11    1    5    5    0    0 -0.46136728294E+02 -0.14350999858E+03 -0.97661051687E+02  0.17961458295E+03  0.00000000000E+00 0. -1.
        -11    1    5    5    0    0 -0.12769494945E+03 -0.10007592060E+03 -0.96338923597E+02  0.18868592475E+03  0.00000000000E+00 0.  1.
          3    1    6    6  503    0 -0.52008624281E+01  0.17497351189E+02 -0.34748947743E+02  0.39251695987E+02  0.00000000000E+00 0. -1.
         -3    1    6    6    0  503  0.29674448573E+03  0.33364180736E+03 -0.12107395206E+04  0.12904512126E+04  0.00000000000E+00 0.  1.
<mgrwt>
<rscale>  0 0.11098049E+04</rscale>
<asrwt>0</asrwt>
<pdfrwt beam="1">  1        1 0.26591550E+00 0.11098049E+04</pdfrwt>
<pdfrwt beam="2">  1       -2 0.27407089E-01 0.11098049E+04</pdfrwt>
<totfact> 0.48348237E+01</totfact>
</mgrwt>
</event>
<event>
12    4  0.4207946E-008  0.1422119E+04  0.7818608E-02  0.8937961E-01
          1   -1    0    0  501    0  0.00000000000E+00  0.00000000000E+00  0.39031083704E+03  0.39031083704E+03  0.00000000000E+00 0. -1.
         -2   -1    0    0    0  501 -0.00000000000E+00 -0.00000000000E+00 -0.12953923132E+04  0.12953923132E+04  0.00000000000E+00 0.  1.
        -24    2    1    2    0    0  0.28507851051E+03 -0.17560616159E+02  0.95533250824E+02  0.31190884248E+03  0.81131939517E+02 0.  0.
        254    2    1    2    0    0 -0.28507851051E+03  0.17560616159E+02 -0.10006147269E+04  0.13737943077E+04  0.89694082066E+03 0.  0.
         23    2    4    4    0    0  0.21446170886E+03  0.27528136958E+03 -0.29064795172E+03  0.46364181146E+03  0.93347953894E+02 0.  0.
         23    2    4    4    0    0 -0.49954021937E+03 -0.25772075342E+03 -0.70996677522E+03  0.91015249626E+03  0.91456694769E+02 0.  0.
          1    1    3    3  502    0  0.22714555659E+03  0.16577038215E+02  0.88339869104E+02  0.24428228456E+03  0.00000000000E+00 0. -1.
         -2    1    3    3    0  502  0.57932953920E+02 -0.34137654374E+02  0.71933817201E+01  0.67626557924E+02  0.00000000000E+00 0.  1.
         11    1    5    5    0    0  0.17771103614E+03  0.15627104115E+03 -0.19315615758E+03  0.30546874125E+03  0.00000000000E+00 0.  1.
        -11    1    5    5    0    0  0.36750672721E+02  0.11901032843E+03 -0.97491794138E+02  0.15817307022E+03  0.00000000000E+00 0. -1.
          2    1    6    6  503    0 -0.23940698569E+03 -0.73766172379E+02 -0.32901168069E+03  0.41352852261E+03  0.00000000000E+00 0. -1.
         -2    1    6    6    0  503 -0.26013323368E+03 -0.18395458104E+03 -0.38095509453E+03  0.49662397365E+03  0.00000000000E+00 0.  1.
<mgrwt>
<rscale>  0 0.14221191E+04</rscale>
<asrwt>0</asrwt>
<pdfrwt beam="1">  1        1 0.60047821E-01 0.14221191E+04</pdfrwt>
<pdfrwt beam="2">  1       -2 0.19929113E+00 0.14221191E+04</pdfrwt>
<totfact> 0.70818256E+00</totfact>
</mgrwt>
</event>
<event>
12    4  0.4207946E-008  0.1806515E+04  0.7818608E-02  0.8702843E-01
          1   -1    0    0  501    0  0.00000000000E+00  0.00000000000E+00  0.20617158314E+04  0.20617158314E+04  0.00000000000E+00 0. -1.
         -2   -1    0    0    0  501 -0.00000000000E+00 -0.00000000000E+00 -0.39572559863E+03  0.39572559863E+03  0.00000000000E+00 0.  1.
        -24    2    1    2    0    0  0.22160038955E+03 -0.35906045183E+03 -0.87736604450E+02  0.43834077945E+03  0.80086118978E+02 0.  0.
        254    2    1    2    0    0 -0.22160038955E+03  0.35906045183E+03  0.17537268372E+04  0.20191006506E+04  0.90729183665E+03 0.  0.
         23    2    4    4    0    0 -0.16879209184E+03 -0.93603935875E+02  0.14461784296E+04  0.14617900851E+04  0.90253730043E+02 0.  0.
         23    2    4    4    0    0 -0.52808297710E+02  0.45266438771E+03  0.30754840766E+03  0.55731056545E+03  0.91188152187E+02 0.  0.
          3    1    3    3  502    0  0.27996561157E+01 -0.72834627242E+01  0.10011925277E+02  0.12693523993E+02  0.00000000000E+00 0. -1.
         -4    1    3    3    0  502  0.21880073344E+03 -0.35177698911E+03 -0.97748529727E+02  0.42564725546E+03  0.00000000000E+00 0.  1.
         11    1    5    5    0    0 -0.13297967316E+03 -0.66490076912E+02  0.13096529247E+04  0.13180649859E+04  0.00000000000E+00 0.  1.
        -11    1    5    5    0    0 -0.35812418688E+02 -0.27113858962E+02  0.13652550480E+03  0.14372509921E+03  0.00000000000E+00 0. -1.
          4    1    6    6  503    0  0.73300125029E+01 -0.67456465631E+00  0.35126148005E+01  0.81561377812E+01  0.00000000000E+00 0. -1.
         -4    1    6    6    0  503 -0.60138310213E+02  0.45333895236E+03  0.30403579286E+03  0.54915442767E+03  0.00000000000E+00 0.  1.
<mgrwt>
<rscale>  0 0.18065146E+04</rscale>
<asrwt>0</asrwt>
<pdfrwt beam="1">  1        1 0.31718704E+00 0.18065146E+04</pdfrwt>
<pdfrwt beam="2">  1       -2 0.60880863E-01 0.18065146E+04</pdfrwt>
<totfact> 0.56279255E+00</totfact>
</mgrwt>
</event>
<event>
12    4  0.4207946E-008  0.1907891E+04  0.7818608E-02  0.8650939E-01
          1   -1    0    0  501    0  0.00000000000E+00  0.00000000000E+00  0.24561506967E+04  0.24561506967E+04  0.00000000000E+00 0. -1.
         -2   -1    0    0    0  501 -0.00000000000E+00 -0.00000000000E+00 -0.37050318449E+03  0.37050318449E+03  0.00000000000E+00 0.  1.
        -24    2    1    2    0    0  0.45477415944E+03  0.47313070342E+03  0.31080091847E+03  0.73052724652E+03  0.80004052300E+02 0.  0.
        254    2    1    2    0    0 -0.45477415944E+03 -0.47313070342E+03  0.17748465937E+04  0.20961266347E+04  0.90166193144E+03 0.  0.
         23    2    4    4    0    0 -0.19277677102E+02 -0.61152170683E+03  0.77264150204E+03  0.99021284673E+03  0.96000856175E+02 0.  0.
         23    2    4    4    0    0 -0.43549648233E+03  0.13839100342E+03  0.10022050917E+04  0.11059137879E+04  0.99100981582E+02 0.  0.
          1    1    3    3  502    0  0.15112580868E+03  0.18320676605E+03  0.75250942698E+02  0.24913135802E+03  0.00000000000E+00 0. -1.
         -2    1    3    3    0  502  0.30364835076E+03  0.28992393737E+03  0.23554997577E+03  0.48139588850E+03  0.00000000000E+00 0.  1.
         11    1    5    5    0    0  0.16063452998E+02 -0.53233226347E+03  0.66713174192E+03  0.85363952248E+03  0.00000000000E+00 0. -1.
        -11    1    5    5    0    0 -0.35341130099E+02 -0.79189443365E+02  0.10550976012E+03  0.13657332425E+03  0.00000000000E+00 0.  1.
          1    1    6    6  503    0 -0.35697071946E+03  0.10424699034E+03  0.71101883940E+03  0.80239847927E+03  0.00000000000E+00 0. -1.
         -1    1    6    6    0  503 -0.78525762870E+02  0.34144013080E+02  0.29118625230E+03  0.30351530866E+03  0.00000000000E+00 0.  1.
<mgrwt>
<rscale>  0 0.19078906E+04</rscale>
<asrwt>0</asrwt>
<pdfrwt beam="1">  1        1 0.37786933E+00 0.19078906E+04</pdfrwt>
<pdfrwt beam="2">  1       -2 0.57000491E-01 0.19078906E+04</pdfrwt>
<totfact> 0.34451990E+00</totfact>
</mgrwt>
</event>
<event>
12    4  0.4207946E-008  0.1555640E+04  0.7818608E-02  0.8848273E-01
          1   -1    0    0  501    0  0.00000000000E+00  0.00000000000E+00  0.52505940809E+03  0.52505940809E+03  0.00000000000E+00 0. -1.
         -4   -1    0    0    0  501 -0.00000000000E+00 -0.00000000000E+00 -0.11522586821E+04  0.11522586821E+04  0.00000000000E+00 0.  1.
        -24    2    1    2    0    0 -0.12595754456E+03 -0.31963808382E+03 -0.61950343055E+03  0.71295372013E+03  0.80527628290E+02 0.  0.
        254    2    1    2    0    0  0.12595754456E+03  0.31963808382E+03 -0.76958434958E+01  0.96436437011E+03  0.90105804734E+03 0.  0.
         23    2    4    4    0    0  0.20658301582E+03 -0.18969947889E+03 -0.25174163858E+03  0.38764346575E+03  0.90725791381E+02 0.  0.
         23    2    4    4    0    0 -0.80625471265E+02  0.50933756271E+03  0.24404579509E+03  0.57672090436E+03  0.84400426691E+02 0.  0.
          3    1    3    3  502    0 -0.66495390661E+02 -0.95780016212E+02 -0.15557771246E+03  0.19442189460E+03  0.00000000000E+00 0. -1.
         -4    1    3    3    0  502 -0.59462153898E+02 -0.22385806760E+03 -0.46392571810E+03  0.51853182553E+03  0.00000000000E+00 0.  1.
         11    1    5    5    0    0  0.86395355345E+01 -0.49274540535E+01  0.77425569371E+01  0.12604307423E+02  0.00000000000E+00 0.  1.
        -11    1    5    5    0    0  0.19794348029E+03 -0.18477202484E+03 -0.25948419552E+03  0.37503915832E+03  0.00000000000E+00 0. -1.
          3    1    6    6  503    0 -0.79378777119E+02  0.47772944376E+03  0.20350823689E+03  0.52530183150E+03  0.00000000000E+00 0. -1.
         -3    1    6    6    0  503 -0.12466941460E+01  0.31608118949E+02  0.40537558196E+02  0.51419072865E+02  0.00000000000E+00 0.  1.
<mgrwt>
<rscale>  0 0.15556404E+04</rscale>
<asrwt>0</asrwt>
<pdfrwt beam="1">  1        1 0.80778372E-01 0.15556404E+04</pdfrwt>
<pdfrwt beam="2">  1       -4 0.17727056E+00 0.15556404E+04</pdfrwt>
<totfact> 0.35871872E+00</totfact>
</mgrwt>
</event>
<event>
12    4  0.4207946E-008  0.1368727E+04  0.7818608E-02  0.8976772E-01
          1   -1    0    0  501    0  0.00000000000E+00  0.00000000000E+00  0.85082389362E+03  0.85082389362E+03  0.00000000000E+00 0. -1.
         -2   -1    0    0    0  501 -0.00000000000E+00 -0.00000000000E+00 -0.55047075017E+03  0.55047075017E+03  0.00000000000E+00 0.  1.
        -24    2    1    2    0    0  0.13582637983E+03  0.35645443103E+03  0.60833857055E+02  0.39401079896E+03  0.77686451037E+02 0.  0.
        254    2    1    2    0    0 -0.13582637983E+03 -0.35645443103E+03  0.23951928639E+03  0.10072838448E+04  0.90096764018E+03 0.  0.
         23    2    4    4    0    0 -0.19657368368E+03 -0.62453891806E+03  0.27108178979E+03  0.71522131133E+03  0.96778686417E+02 0.  0.
         23    2    4    4    0    0  0.60747303846E+02  0.26808448703E+03 -0.31562503403E+02  0.29206253350E+03  0.93513660717E+02 0.  0.
          3    1    3    3  502    0  0.21664168492E+02  0.92387754623E+01  0.69668151750E+01  0.24560693845E+02  0.00000000000E+00 0. -1.
         -4    1    3    3    0  502  0.11416221134E+03  0.34721565557E+03  0.53867041880E+02  0.36945010511E+03  0.00000000000E+00 0.  1.
         11    1    5    5    0    0 -0.30943042418E+02 -0.35714613573E+02  0.38011866766E+02  0.60645754277E+02  0.00000000000E+00 0.  1.
        -11    1    5    5    0    0 -0.16563064126E+03 -0.58882430449E+03  0.23306992302E+03  0.65457555706E+03  0.00000000000E+00 0. -1.
          2    1    6    6  503    0  0.69678144153E+02  0.10215947269E+03 -0.47699209553E+01  0.12375117688E+03  0.00000000000E+00 0.  1.
         -2    1    6    6    0  503 -0.89308403070E+01  0.16592501434E+03 -0.26792582448E+02  0.16831135662E+03  0.00000000000E+00 0. -1.
<mgrwt>
<rscale>  0 0.13687274E+04</rscale>
<asrwt>0</asrwt>
<pdfrwt beam="1">  1        1 0.13089598E+00 0.13687274E+04</pdfrwt>
<pdfrwt beam="2">  1       -2 0.84687807E-01 0.13687274E+04</pdfrwt>
<totfact> 0.20811098E+01</totfact>
</mgrwt>
</event>
<event>
12    4  0.4207946E-008  0.1361429E+04  0.7818608E-02  0.8982221E-01
          1   -1    0    0  501    0  0.00000000000E+00  0.00000000000E+00  0.37308386837E+03  0.37308386837E+03  0.00000000000E+00 0. -1.
         -2   -1    0    0    0  501 -0.00000000000E+00 -0.00000000000E+00 -0.12420054821E+04  0.12420054821E+04  0.00000000000E+00 0.  1.
        -24    2    1    2    0    0  0.71201658654E+02 -0.10259169502E+03 -0.66161277998E+03  0.67847043347E+03  0.83641654609E+02 0.  0.
        254    2    1    2    0    0 -0.71201658654E+02  0.10259169502E+03 -0.20730883374E+03  0.93661891698E+03  0.90481120186E+03 0.  0.
         23    2    4    4    0    0 -0.73926529188E+02  0.45675598482E+03  0.69536911003E+02  0.47648288218E+03  0.90052171703E+02 0.  0.
         23    2    4    4    0    0  0.27248705336E+01 -0.35416428980E+03 -0.27684574475E+03  0.46013603480E+03  0.98192846247E+02 0.  0.
          1    1    3    3  502    0  0.47588430507E+02 -0.61316649512E+02 -0.20190848398E+03  0.21631325926E+03  0.00000000000E+00 0. -1.
         -2    1    3    3    0  502  0.23613228147E+02 -0.41275045511E+02 -0.45970429599E+03  0.46215717422E+03  0.00000000000E+00 0.  1.
         11    1    5    5    0    0 -0.59496010335E+01  0.18836377034E+03  0.65725066089E+02  0.19958980947E+03  0.00000000000E+00 0.  1.
        -11    1    5    5    0    0 -0.67976928154E+02  0.26839221448E+03  0.38118449134E+01  0.27689307271E+03  0.00000000000E+00 0. -1.
          1    1    6    6  503    0  0.11349335435E+01 -0.31427089931E+03 -0.19713289855E+03  0.37098364643E+03  0.00000000000E+00 0. -1.
         -1    1    6    6    0  503  0.15899369901E+01 -0.39893390487E+02 -0.79712846196E+02  0.89152388375E+02  0.00000000000E+00 0.  1.
<mgrwt>
<rscale>  0 0.13614290E+04</rscale>
<asrwt>0</asrwt>
<pdfrwt beam="1">  1        1 0.57397517E-01 0.13614290E+04</pdfrwt>
<pdfrwt beam="2">  1       -2 0.19107777E+00 0.13614290E+04</pdfrwt>
<totfact> 0.85638580E+00</totfact>
</mgrwt>
</event>
<event>
12    4  0.4207946E-008  0.2566020E+04  0.7818608E-02  0.8379836E-01
         -2   -1    0    0    0  501 -0.00000000000E+00  0.00000000000E+00  0.10506009090E+04  0.10506009090E+04  0.00000000000E+00 0.  1.
          1   -1    0    0  501    0  0.00000000000E+00 -0.00000000000E+00 -0.15668313037E+04  0.15668313037E+04  0.00000000000E+00 0. -1.
        -24    2    1    2    0    0  0.98834086413E+03 -0.48727065736E+03 -0.36380448414E+03  0.11631209742E+04  0.79033794890E+02 0.  0.
        254    2    1    2    0    0 -0.98834086413E+03  0.48727065736E+03 -0.15242591053E+03  0.14543112385E+04  0.93676953575E+03 0.  0.
         23    2    4    4    0    0 -0.28652595718E+03 -0.27159840947E+03 -0.94881319925E+02  0.41503030756E+03  0.85935273070E+02 0.  0.
         23    2    4    4    0    0 -0.70181490696E+03  0.75886906683E+03 -0.57544590607E+02  0.10392809310E+04  0.91471576917E+02 0.  0.
          3    1    3    3  502    0  0.71486918792E+02 -0.40721700643E+02 -0.65232537554E+01  0.82529929730E+02  0.00000000000E+00 0. -1.
         -4    1    3    3    0  502  0.91685394534E+03 -0.44654895672E+03 -0.35728123039E+03  0.10805910445E+04  0.00000000000E+00 0.  1.
         11    1    5    5    0    0 -0.29188121384E+03 -0.27053405544E+03 -0.96151497959E+02  0.40942450917E+03  0.00000000000E+00 0.  1.
        -11    1    5    5    0    0  0.53552566596E+01 -0.10643540275E+01  0.12701780334E+01  0.56057983929E+01  0.00000000000E+00 0. -1.
          2    1    6    6  503    0 -0.11575826632E+03  0.16171460244E+03 -0.37294903380E+02  0.20234252811E+03  0.00000000000E+00 0. -1.
         -2    1    6    6    0  503 -0.58605664063E+03  0.59715446439E+03 -0.20249687227E+02  0.83693840287E+03  0.00000000000E+00 0.  1.
<mgrwt>
<rscale>  0 0.25660198E+04</rscale>
<asrwt>0</asrwt>
<pdfrwt beam="1">  1        1 0.24105097E+00 0.25660198E+04</pdfrwt>
<pdfrwt beam="2">  1       -2 0.16163091E+00 0.25660198E+04</pdfrwt>
<totfact> 0.11179357E+00</totfact>
</mgrwt>
</event>
<event>
12    4  0.4207946E-008  0.1635480E+04  0.7818608E-02  0.8799043E-01
          1   -1    0    0  501    0  0.00000000000E+00  0.00000000000E+00  0.10587383263E+04  0.10587383263E+04  0.00000000000E+00 0. -1.
         -2   -1    0    0    0  501 -0.00000000000E+00 -0.00000000000E+00 -0.63159929540E+03  0.63159929540E+03  0.00000000000E+00 0.  1.
        -24    2    1    2    0    0 -0.66367092422E+02 -0.31403591985E+02 -0.42954972577E+03  0.44154348724E+03  0.71111937616E+02 0.  0.
        254    2    1    2    0    0  0.66367092422E+02  0.31403591985E+02  0.85668875669E+03  0.12487941345E+04  0.90563811091E+03 0.  0.
         23    2    4    4    0    0  0.80276256617E+02 -0.40256768899E+03  0.61327241931E+03  0.74364593309E+03  0.91658016077E+02 0.  0.
         23    2    4    4    0    0 -0.13909164195E+02  0.43397128097E+03  0.24341633738E+03  0.50514820140E+03  0.86015431846E+02 0.  0.
          3    1    3    3  502    0 -0.25593604261E+01  0.19407394265E+02 -0.60532482155E+02  0.63619011889E+02  0.00000000000E+00 0. -1.
         -4    1    3    3    0  502 -0.63807731996E+02 -0.50810986250E+02 -0.36901724362E+03  0.37792447535E+03  0.00000000000E+00 0.  1.
         11    1    5    5    0    0  0.48128837094E+02 -0.84557683161E+02  0.10432278057E+03  0.14265212682E+03  0.00000000000E+00 0. -1.
        -11    1    5    5    0    0  0.32147419523E+02 -0.31801000583E+03  0.50894963875E+03  0.60099380626E+03  0.00000000000E+00 0.  1.
          1    1    6    6  503    0  0.13958888658E+02  0.54858230656E+02  0.61958808397E+02  0.83923596094E+02  0.00000000000E+00 0. -1.
         -1    1    6    6    0  503 -0.27868052853E+02  0.37911305032E+03  0.18145752898E+03  0.42122460531E+03  0.00000000000E+00 0.  1.
<mgrwt>
<rscale>  0 0.16354796E+04</rscale>
<asrwt>0</asrwt>
<pdfrwt beam="1">  1        1 0.16288282E+00 0.16354796E+04</pdfrwt>
<pdfrwt beam="2">  1       -2 0.97169123E-01 0.16354796E+04</pdfrwt>
<totfact> 0.10104979E+01</totfact>
</mgrwt>
</event>
<event>
12    4  0.4207946E-008  0.1126922E+04  0.7818608E-02  0.9179342E-01
         -2   -1    0    0    0  501 -0.00000000000E+00  0.00000000000E+00  0.32581211525E+03  0.32581211525E+03  0.00000000000E+00 0.  1.
          1   -1    0    0  501    0  0.00000000000E+00 -0.00000000000E+00 -0.97445187566E+03  0.97445187566E+03  0.00000000000E+00 0. -1.
        -24    2    1    2    0    0  0.24467610751E+02  0.70557163778E+02 -0.33533093444E+03  0.35280748909E+03  0.80307605053E+02 0.  0.
        254    2    1    2    0    0 -0.24467610751E+02 -0.70557163778E+02 -0.31330882597E+03  0.94745650182E+03  0.89102997990E+03 0.  0.
         23    2    4    4    0    0 -0.37146944536E+03  0.19945570405E+03 -0.23512978865E+03  0.49137804497E+03  0.91620078872E+02 0.  0.
         23    2    4    4    0    0  0.34700183461E+03 -0.27001286783E+03 -0.78179037317E+02  0.45607845685E+03  0.92619516894E+02 0.  0.
          3    1    3    3  502    0  0.23582178133E+02  0.66010249222E+01 -0.21628052415E+03  0.21766248593E+03  0.00000000000E+00 0. -1.
         -4    1    3    3    0  502  0.88543261822E+00  0.63956138856E+02 -0.11905041029E+03  0.13514500315E+03  0.00000000000E+00 0.  1.
         11    1    5    5    0    0 -0.33506044097E+03  0.19712116626E+03 -0.18811373846E+03  0.43186691456E+03  0.00000000000E+00 0.  1.
        -11    1    5    5    0    0 -0.36409004395E+02  0.23345377849E+01 -0.47016050190E+02  0.59511130414E+02  0.00000000000E+00 0. -1.
          3    1    6    6  503    0  0.71672368534E+02 -0.49886283952E+02  0.21137946861E+02  0.89846438635E+02  0.00000000000E+00 0. -1.
         -3    1    6    6    0  503  0.27532946608E+03 -0.22012658387E+03 -0.99316984178E+02  0.36623201822E+03  0.00000000000E+00 0.  1.
<mgrwt>
<rscale>  0 0.11269219E+04</rscale>
<asrwt>0</asrwt>
<pdfrwt beam="1">  1        1 0.14991567E+00 0.11269219E+04</pdfrwt>
<pdfrwt beam="2">  1       -2 0.50124941E-01 0.11269219E+04</pdfrwt>
<totfact> 0.52024795E+01</totfact>
</mgrwt>
</event>
<event>
12    4  0.4207946E-008  0.1469672E+04  0.7818608E-02  0.8904875E-01
          1   -1    0    0  501    0  0.00000000000E+00  0.00000000000E+00  0.59671785820E+03  0.59671785820E+03  0.00000000000E+00 0. -1.
         -2   -1    0    0    0  501 -0.00000000000E+00 -0.00000000000E+00 -0.90492384806E+03  0.90492384806E+03  0.00000000000E+00 0.  1.
        -24    2    1    2    0    0  0.90205616660E+02  0.10671189563E+03  0.34250236511E+03  0.37928596618E+03  0.83818208555E+02 0.  0.
        254    2    1    2    0    0 -0.90205616660E+02 -0.10671189563E+03 -0.65070835497E+03  0.11223557401E+04  0.90373478528E+03 0.  0.
         23    2    4    4    0    0  0.20784684072E+03  0.12322372247E+03 -0.68556796459E+03  0.73289177929E+03  0.93501503228E+02 0.  0.
         23    2    4    4    0    0 -0.29805245738E+03 -0.22993561810E+03  0.34859609618E+02  0.38946396079E+03  0.93601968754E+02 0.  0.
          1    1    3    3  502    0  0.25494112951E+02  0.63125613341E+02  0.78073864768E+02  0.10358726377E+03  0.00000000000E+00 0. -1.
         -2    1    3    3    0  502  0.64711503709E+02  0.43586282284E+02  0.26442850035E+03  0.27569870241E+03  0.00000000000E+00 0.  1.
         11    1    5    5    0    0  0.32127955388E+02  0.53585690997E+02 -0.10342319966E+03  0.12083041846E+03  0.00000000000E+00 0.  1.
        -11    1    5    5    0    0  0.17571888533E+03  0.69638031473E+02 -0.58214476493E+03  0.61206136083E+03  0.00000000000E+00 0. -1.
          2    1    6    6  503    0 -0.28410274024E+03 -0.23700031514E+03  0.24667952608E+02  0.37079916974E+03  0.00000000000E+00 0. -1.
         -2    1    6    6    0  503 -0.13949717135E+02  0.70646970470E+01  0.10191657010E+02  0.18664791055E+02  0.00000000000E+00 0.  1.
<mgrwt>
<rscale>  0 0.14696724E+04</rscale>
<asrwt>0</asrwt>
<pdfrwt beam="1">  1        1 0.91802748E-01 0.14696724E+04</pdfrwt>
<pdfrwt beam="2">  1       -2 0.13921905E+00 0.14696724E+04</pdfrwt>
<totfact> 0.10669384E+01</totfact>
</mgrwt>
</event>
<event>
12    4  0.4207946E-008  0.1259529E+04  0.7818608E-02  0.9062289E-01
          1   -1    0    0  501    0  0.00000000000E+00  0.00000000000E+00  0.19811609420E+04  0.19811609420E+04  0.00000000000E+00 0. -1.
         -2   -1    0    0    0  501 -0.00000000000E+00 -0.00000000000E+00 -0.20018732686E+03  0.20018732686E+03  0.00000000000E+00 0.  1.
        -24    2    1    2    0    0 -0.52430309240E+02 -0.41621862451E+01 -0.71640065556E+02  0.11962983268E+03  0.80079565144E+02 0.  0.
        254    2    1    2    0    0  0.52430309240E+02  0.41621862451E+01  0.18526136807E+04  0.20617184362E+04  0.90318281599E+03 0.  0.
         23    2    4    4    0    0 -0.30995516640E+03 -0.61798701004E+02  0.24594752170E+03  0.41094054079E+03  0.92144777475E+02 0.  0.
         23    2    4    4    0    0  0.36238547564E+03  0.65960887249E+02  0.16066661590E+04  0.16507778954E+04  0.89540168972E+02 0.  0.
          3    1    3    3  502    0 -0.25818057878E+02  0.88205183516E+01  0.12808796230E+02  0.30140320460E+02  0.00000000000E+00 0. -1.
         -4    1    3    3    0  502 -0.26612251363E+02 -0.12982704597E+02 -0.84448861785E+02  0.89489512224E+02  0.00000000000E+00 0.  1.
         11    1    5    5    0    0 -0.31372365744E+03 -0.59725285681E+02  0.22777024011E+03  0.39226129718E+03  0.00000000000E+00 0.  1.
        -11    1    5    5    0    0  0.37684910431E+01 -0.20734153228E+01  0.18177281595E+02  0.18679243615E+02  0.00000000000E+00 0. -1.
          4    1    6    6  503    0  0.25846096954E+03  0.32195655448E+02  0.94889254688E+03  0.98398968416E+03  0.00000000000E+00 0. -1.
         -4    1    6    6    0  503  0.10392450609E+03  0.33765231802E+02  0.65777361215E+03  0.66678821127E+03  0.00000000000E+00 0.  1.
<mgrwt>
<rscale>  0 0.12595290E+04</rscale>
<asrwt>0</asrwt>
<pdfrwt beam="1">  1        1 0.30479398E+00 0.12595290E+04</pdfrwt>
<pdfrwt beam="2">  1       -2 0.30798052E-01 0.12595290E+04</pdfrwt>
<totfact> 0.25955846E+01</totfact>
</mgrwt>
</event>
<event>
12    4  0.4207946E-008  0.1941034E+04  0.7818608E-02  0.8634696E-01
          1   -1    0    0  501    0  0.00000000000E+00  0.00000000000E+00  0.14124761849E+04  0.14124761849E+04  0.00000000000E+00 0. -1.
         -2   -1    0    0    0  501 -0.00000000000E+00 -0.00000000000E+00 -0.66684537328E+03  0.66684537328E+03  0.00000000000E+00 0.  1.
        -24    2    1    2    0    0  0.61330335366E+03 -0.33870143473E+03  0.67770645454E+03  0.97803472231E+03  0.80038828193E+02 0.  0.
        254    2    1    2    0    0 -0.61330335366E+03  0.33870143473E+03  0.67924357063E+02  0.11012868359E+04  0.84697066717E+03 0.  0.
         23    2    4    4    0    0 -0.66113357601E+03 -0.75681048091E+02  0.30086154373E+02  0.67234193735E+03  0.91177177384E+02 0.  0.
         23    2    4    4    0    0  0.47830222343E+02  0.41438248282E+03  0.37838202690E+02  0.42894489850E+03  0.92527964055E+02 0.  0.
          1    1    3    3  502    0  0.53382683861E+03 -0.31564005363E+03  0.57096430398E+03  0.84297092090E+03  0.00000000000E+00 0. -1.
         -2    1    3    3    0  502  0.79476515057E+02 -0.23061381097E+02  0.10674215056E+03  0.13506380141E+03  0.00000000000E+00 0.  1.
         11    1    5    5    0    0 -0.10773472722E+03  0.20729572014E+02  0.11334400252E+02  0.11029485588E+03  0.00000000000E+00 0.  1.
        -11    1    5    5    0    0 -0.55339884879E+03 -0.96410620105E+02  0.18751754121E+02  0.56204708147E+03  0.00000000000E+00 0. -1.
          1    1    6    6  503    0  0.46524416696E+02  0.35527874836E+03 -0.81299851390E+00  0.35831295170E+03  0.00000000000E+00 0. -1.
         -1    1    6    6    0  503  0.13058056469E+01  0.59103734455E+02  0.38651201204E+02  0.70631946805E+02  0.00000000000E+00 0.  1.
<mgrwt>
<rscale>  0 0.19410340E+04</rscale>
<asrwt>0</asrwt>
<pdfrwt beam="1">  1        1 0.21730403E+00 0.19410340E+04</pdfrwt>
<pdfrwt beam="2">  1       -2 0.10259160E+00 0.19410340E+04</pdfrwt>
<totfact> 0.47875543E+00</totfact>
</mgrwt>
</event>
<event>
12    4  0.4207946E-008  0.1211186E+04  0.7818608E-02  0.9103122E-01
         -2   -1    0    0    0  501 -0.00000000000E+00  0.00000000000E+00  0.66753077768E+03  0.66753077768E+03  0.00000000000E+00 0.  1.
          1   -1    0    0  501    0  0.00000000000E+00 -0.00000000000E+00 -0.54940190547E+03  0.54940190547E+03  0.00000000000E+00 0. -1.
        -24    2    1    2    0    0 -0.14886904329E+03 -0.15774631498E+03  0.15473255150E+02  0.23260146007E+03  0.82571942360E+02 0.  0.
        254    2    1    2    0    0  0.14886904329E+03  0.15774631498E+03  0.10265561706E+03  0.98433122307E+03  0.95463285563E+03 0.  0.
         23    2    4    4    0    0  0.34473224848E+02 -0.40714195391E+02  0.50293363946E+03  0.51430051850E+03  0.93363422653E+02 0.  0.
         23    2    4    4    0    0  0.11439581844E+03  0.19846051037E+03 -0.40027802240E+03  0.47003070457E+03  0.90738032677E+02 0.  0.
          1    1    3    3  502    0 -0.15119181379E+03 -0.11782486351E+03  0.75157567541E+01  0.19182843798E+03  0.00000000000E+00 0. -1.
         -2    1    3    3    0  502  0.23227704983E+01 -0.39921451469E+02  0.79574983964E+01  0.40773022097E+02  0.00000000000E+00 0.  1.
         11    1    5    5    0    0  0.49965708962E+02 -0.52967243638E+02  0.47210152038E+03  0.47768393998E+03  0.00000000000E+00 0. -1.
        -11    1    5    5    0    0 -0.15492484114E+02  0.12253048247E+02  0.30832119081E+02  0.36616578519E+02  0.00000000000E+00 0.  1.
          1    1    6    6  503    0  0.11681947130E+03  0.19365769877E+03 -0.40433739853E+03  0.46329129607E+03  0.00000000000E+00 0. -1.
         -1    1    6    6    0  503 -0.24236528578E+01  0.48028115911E+01  0.40593761293E+01  0.67394084989E+01  0.00000000000E+00 0.  1.
<mgrwt>
<rscale>  0 0.12111857E+04</rscale>
<asrwt>0</asrwt>
<pdfrwt beam="1">  1        1 0.84523371E-01 0.12111857E+04</pdfrwt>
<pdfrwt beam="2">  1       -2 0.10269704E+00 0.12111857E+04</pdfrwt>
<totfact> 0.26058194E+01</totfact>
</mgrwt>
</event>
<event>
12    4  0.4207946E-008  0.1417505E+04  0.7818608E-02  0.8941244E-01
         -2   -1    0    0    0  501 -0.00000000000E+00  0.00000000000E+00  0.70376093436E+03  0.70376093436E+03  0.00000000000E+00 0.  1.
          1   -1    0    0  501    0  0.00000000000E+00 -0.00000000000E+00 -0.71377936921E+03  0.71377936921E+03  0.00000000000E+00 0. -1.
        -24    2    1    2    0    0 -0.17289858703E+03  0.37226778627E+03 -0.82379689498E+02  0.42597884209E+03  0.78704095027E+02 0.  0.
        254    2    1    2    0    0  0.17289858703E+03 -0.37226778627E+03  0.72361254645E+02  0.99156146148E+03  0.89971148410E+03 0.  0.
         23    2    4    4    0    0 -0.39197343456E+02 -0.55287324765E+03  0.28793368528E+03  0.63023506513E+03  0.84173454864E+02 0.  0.
         23    2    4    4    0    0  0.21209593049E+03  0.18060546138E+03 -0.21557243064E+03  0.36132639635E+03  0.80512579372E+02 0.  0.
          1    1    3    3  502    0 -0.56664922737E+02  0.51053616691E+02 -0.18014428721E+02  0.78370306163E+02  0.00000000000E+00 0. -1.
         -2    1    3    3    0  502 -0.11623366429E+03  0.32121416958E+03 -0.64365260776E+02  0.34760853592E+03  0.00000000000E+00 0.  1.
         11    1    5    5    0    0  0.26483548635E+01 -0.11242362086E+03  0.96418167189E+02  0.14813017003E+03  0.00000000000E+00 0.  1.
        -11    1    5    5    0    0 -0.41845698319E+02 -0.44044962679E+03  0.19151551810E+03  0.48210489510E+03  0.00000000000E+00 0. -1.
          2    1    6    6  503    0  0.25955775791E+02  0.63987483050E+02 -0.37622316027E+02  0.78635481478E+02  0.00000000000E+00 0. -1.
         -2    1    6    6    0  503  0.18614015469E+03  0.11661797833E+03 -0.17795011461E+03  0.28269091487E+03  0.00000000000E+00 0.  1.
<mgrwt>
<rscale>  0 0.14175049E+04</rscale>
<asrwt>0</asrwt>
<pdfrwt beam="1">  1        1 0.10981221E+00 0.14175049E+04</pdfrwt>
<pdfrwt beam="2">  1       -2 0.10827091E+00 0.14175049E+04</pdfrwt>
<totfact> 0.15393016E+01</totfact>
</mgrwt>
</event>
<event>
12    4  0.4207946E-008  0.1427194E+04  0.7818608E-02  0.8934366E-01
         -2   -1    0    0    0  501 -0.00000000000E+00  0.00000000000E+00  0.86723191050E+03  0.86723191050E+03  0.00000000000E+00 0.  1.
          1   -1    0    0  501    0  0.00000000000E+00 -0.00000000000E+00 -0.58717905534E+03  0.58717905534E+03  0.00000000000E+00 0. -1.
        -24    2    1    2    0    0 -0.24748885542E+02  0.48019963629E+02  0.50884511068E+03  0.51807192250E+03  0.80973736322E+02 0.  0.
        254    2    1    2    0    0  0.24748885542E+02 -0.48019963629E+02 -0.22879225553E+03  0.93633904334E+03  0.90634788225E+03 0.  0.
         23    2    4    4    0    0  0.12470170207E+03 -0.43798492693E+02  0.32812990476E+03  0.36325610129E+03  0.82564751956E+02 0.  0.
         23    2    4    4    0    0 -0.99952816529E+02 -0.42214709355E+01 -0.55692216029E+03  0.57308294205E+03  0.90848112260E+02 0.  0.
          3    1    3    3  502    0  0.19873149819E+02  0.22314406837E+02  0.68602154982E+02  0.74827337949E+02  0.00000000000E+00 0. -1.
         -4    1    3    3    0  502 -0.44622035361E+02  0.25705556791E+02  0.44024295570E+03  0.44324458455E+03  0.00000000000E+00 0.  1.
         11    1    5    5    0    0  0.13512712922E+03 -0.36193907286E+02  0.27443453888E+03  0.30803190761E+03  0.00000000000E+00 0. -1.
        -11    1    5    5    0    0 -0.10425427151E+02 -0.76045854077E+01  0.53695365886E+02  0.55224193685E+02  0.00000000000E+00 0.  1.
          1    1    6    6  503    0 -0.89038654732E+02 -0.36459672909E+02 -0.33416057205E+03  0.34773621856E+03  0.00000000000E+00 0. -1.
         -1    1    6    6    0  503 -0.10914161798E+02  0.32238201974E+02 -0.22276158824E+03  0.22534672349E+03  0.00000000000E+00 0.  1.
<mgrwt>
<rscale>  0 0.14271936E+04</rscale>
<asrwt>0</asrwt>
<pdfrwt beam="1">  1        1 0.90335239E-01 0.14271936E+04</pdfrwt>
<pdfrwt beam="2">  1       -2 0.13342029E+00 0.14271936E+04</pdfrwt>
<totfact> 0.12224117E+01</totfact>
</mgrwt>
</event>
<event>
12    4  0.6209418E-008  0.2313666E+04  0.7818608E-02  0.8472552E-01
          1   -1    0    0  501    0  0.00000000000E+00  0.00000000000E+00  0.16472738700E+04  0.16472738700E+04  0.00000000000E+00 0. -1.
         -2   -1    0    0    0  501 -0.00000000000E+00 -0.00000000000E+00 -0.81241084678E+03  0.81241084678E+03  0.00000000000E+00 0.  1.
        -24    2    1    2    0    0 -0.66620442624E+03 -0.11476170665E+03  0.11011053442E+04  0.12945582809E+04  0.80309256967E+02 0.  0.
        254    2    1    2    0    0  0.66620442624E+03  0.11476170665E+03 -0.26624232096E+03  0.11651264359E+04  0.91084359324E+03 0.  0.
         23    2    4    4    0    0  0.68180746094E+03  0.34068000869E+03  0.47900450685E+02  0.76875841271E+03  0.88151924649E+02 0.  0.
         23    2    4    4    0    0 -0.15603034699E+02 -0.22591830205E+03 -0.31414277164E+03  0.39636802320E+03  0.84494940396E+02 0.  0.
          3    1    3    3  502    0 -0.61157374296E+03 -0.10666733668E+03  0.96233960406E+03  0.11452064780E+04  0.00000000000E+00 0. -1.
         -4    1    3    3    0  502 -0.54630683282E+02 -0.80943699648E+01  0.13876574014E+03  0.14935180286E+03  0.00000000000E+00 0.  1.
         11    1    5    5    0    0  0.49945471092E+03  0.25404002144E+03  0.73904693182E+02  0.56520195013E+03  0.00000000000E+00 0. -1.
        -11    1    5    5    0    0  0.18235275002E+03  0.86639987250E+02 -0.26004242497E+02  0.20355646258E+03  0.00000000000E+00 0.  1.
          4    1    6    6  503    0 -0.13092321965E+02 -0.23341926647E+03 -0.30320347309E+03  0.38286852698E+03  0.00000000000E+00 0.  1.
         -4    1    6    6    0  503 -0.25107127339E+01  0.75009644213E+01 -0.10939298546E+02  0.13499496226E+02  0.00000000000E+00 0. -1.
<mgrwt>
<rscale>  0 0.23136665E+04</rscale>
<asrwt>0</asrwt>
<pdfrwt beam="1">  1        1 0.25342675E+00 0.23136665E+04</pdfrwt>
<pdfrwt beam="2">  1       -2 0.12498628E+00 0.23136665E+04</pdfrwt>
<totfact> 0.19692455E+00</totfact>
</mgrwt>
</event>
<event>
12    4  0.4207946E-008  0.1897508E+04  0.7818608E-02  0.8656098E-01
         -2   -1    0    0    0  501 -0.00000000000E+00  0.00000000000E+00  0.46131288603E+03  0.46131288603E+03  0.00000000000E+00 0.  1.
          1   -1    0    0  501    0  0.00000000000E+00 -0.00000000000E+00 -0.19512435472E+04  0.19512435472E+04  0.00000000000E+00 0. -1.
        -24    2    1    2    0    0 -0.26791577259E+03  0.56738135020E+03 -0.86677357444E+02  0.63863510259E+03  0.81494614591E+02 0.  0.
        254    2    1    2    0    0  0.26791577259E+03 -0.56738135020E+03 -0.14032533038E+04  0.17739213307E+04  0.88542452818E+03 0.  0.
         23    2    4    4    0    0  0.22528990139E+03 -0.71058519896E+03 -0.14122652500E+04  0.15995399852E+04  0.91368285062E+02 0.  0.
         23    2    4    4    0    0  0.42625871199E+02  0.14320384876E+03  0.90119461973E+01  0.17438134541E+03  0.89461339464E+02 0.  0.
          3    1    3    3  502    0 -0.27474071530E+02  0.12192040319E+03  0.47424850709E+00  0.12497853508E+03  0.00000000000E+00 0. -1.
         -4    1    3    3    0  502 -0.24044170106E+03  0.44546094702E+03 -0.87151605951E+02  0.51365656751E+03  0.00000000000E+00 0.  1.
         11    1    5    5    0    0  0.18719451718E+03 -0.64272088502E+03 -0.12102733267E+04  0.13830739130E+04  0.00000000000E+00 0. -1.
        -11    1    5    5    0    0  0.38095384212E+02 -0.67864313942E+02 -0.20199192320E+03  0.21646607227E+03  0.00000000000E+00 0.  1.
          2    1    6    6  503    0  0.53611988952E+02  0.11207301105E+03 -0.25279237723E+02  0.12678187972E+03  0.00000000000E+00 0. -1.
         -2    1    6    6    0  503 -0.10986117753E+02  0.31130837715E+02  0.34291183920E+02  0.47599465698E+02  0.00000000000E+00 0.  1.
<mgrwt>
<rscale>  0 0.18975076E+04</rscale>
<asrwt>0</asrwt>
<pdfrwt beam="1">  1        1 0.30019132E+00 0.18975076E+04</pdfrwt>
<pdfrwt beam="2">  1       -2 0.70971212E-01 0.18975076E+04</pdfrwt>
<totfact> 0.47665551E+00</totfact>
</mgrwt>
</event>
<event>
12    4  0.4207946E-008  0.1832439E+04  0.7818608E-02  0.8689236E-01
         -2   -1    0    0    0  501 -0.00000000000E+00  0.00000000000E+00  0.85114868544E+03  0.85114868544E+03  0.00000000000E+00 0.  1.
          1   -1    0    0  501    0  0.00000000000E+00 -0.00000000000E+00 -0.98626520112E+03  0.98626520112E+03  0.00000000000E+00 0. -1.
        -24    2    1    2    0    0  0.43015309135E+03 -0.42796008611E+03 -0.38652868087E+03  0.72336840964E+03  0.75338686145E+02 0.  0.
        254    2    1    2    0    0 -0.43015309135E+03  0.42796008611E+03  0.25141216519E+03  0.11140454769E+04  0.89983761341E+03 0.  0.
         23    2    4    4    0    0 -0.56108210021E+03  0.36994772560E+02 -0.81882475956E+02  0.57567711019E+03  0.92291163995E+02 0.  0.
         23    2    4    4    0    0  0.13092900886E+03  0.39096531355E+03  0.33329464115E+03  0.53836836672E+03  0.93588988187E+02 0.  0.
          3    1    3    3  502    0  0.15819119751E+03 -0.12101421467E+03 -0.15542000700E+03  0.25263466448E+03  0.00000000000E+00 0. -1.
         -4    1    3    3    0  502  0.27196189385E+03 -0.30694587144E+03 -0.23110867388E+03  0.47073374517E+03  0.00000000000E+00 0.  1.
         11    1    5    5    0    0 -0.61313996256E+02 -0.15102699822E+00 -0.39072021100E+02  0.72705239006E+02  0.00000000000E+00 0. -1.
        -11    1    5    5    0    0 -0.49976810395E+03  0.37145799558E+02 -0.42810454856E+02  0.50297187118E+03  0.00000000000E+00 0.  1.
          3    1    6    6  503    0  0.15039900844E+01  0.63934823045E+02  0.91210909874E+02  0.11139727853E+03  0.00000000000E+00 0. -1.
         -3    1    6    6    0  503  0.12942501877E+03  0.32703049051E+03  0.24208373127E+03  0.42697108819E+03  0.00000000000E+00 0.  1.
<mgrwt>
<rscale>  0 0.18324392E+04</rscale>
<asrwt>0</asrwt>
<pdfrwt beam="1">  1        1 0.15173311E+00 0.18324392E+04</pdfrwt>
<pdfrwt beam="2">  1       -2 0.13094595E+00 0.18324392E+04</pdfrwt>
<totfact> 0.54552649E+00</totfact>
</mgrwt>
</event>
<event>
12    4  0.4207946E-008  0.1331086E+04  0.7818608E-02  0.9005271E-01
         -2   -1    0    0    0  501 -0.00000000000E+00  0.00000000000E+00  0.13994378254E+03  0.13994378254E+03  0.00000000000E+00 0.  1.
          1   -1    0    0  501    0  0.00000000000E+00 -0.00000000000E+00 -0.31651805362E+04  0.31651805362E+04  0.00000000000E+00 0. -1.
        -24    2    1    2    0    0 -0.34946779339E+03  0.32149946795E+02 -0.95440152606E+03  0.10199714471E+04  0.79360710332E+02 0.  0.
        254    2    1    2    0    0  0.34946779339E+03 -0.32149946795E+02 -0.20708352276E+04  0.22851528716E+04  0.90022427705E+03 0.  0.
         23    2    4    4    0    0  0.56949559120E+03 -0.16063030869E+03 -0.88613337213E+03  0.10694906573E+04  0.91927082347E+02 0.  0.
         23    2    4    4    0    0 -0.22002779780E+03  0.12848036190E+03 -0.11847018555E+04  0.12156622143E+04  0.96936564885E+02 0.  0.
          3    1    3    3  502    0 -0.27068349389E+03  0.25367626584E+02 -0.82156798138E+03  0.86538258497E+03  0.00000000000E+00 0. -1.
         -4    1    3    3    0  502 -0.78784299503E+02  0.67823202112E+01 -0.13283354469E+03  0.15458886218E+03  0.00000000000E+00 0.  1.
         11    1    5    5    0    0  0.41082236244E+03 -0.87350623295E+02 -0.67979766318E+03  0.79908072667E+03  0.00000000000E+00 0. -1.
        -11    1    5    5    0    0  0.15867322876E+03 -0.73279685398E+02 -0.20633570895E+03  0.27040993067E+03  0.00000000000E+00 0.  1.
          1    1    6    6  503    0 -0.16217430774E+03  0.97877472336E+02 -0.65211107197E+03  0.67906506011E+03  0.00000000000E+00 0. -1.
         -1    1    6    6    0  503 -0.57853490067E+02  0.30602889562E+02 -0.53259078352E+03  0.53659715416E+03  0.00000000000E+00 0.  1.
<mgrwt>
<rscale>  0 0.13310858E+04</rscale>
<asrwt>0</asrwt>
<pdfrwt beam="1">  1        1 0.48695081E+00 0.13310858E+04</pdfrwt>
<pdfrwt beam="2">  1       -2 0.21529814E-01 0.13310858E+04</pdfrwt>
<totfact> 0.73742183E+00</totfact>
</mgrwt>
</event>
<event>
12    4  0.4207946E-008  0.3623695E+04  0.7818608E-02  0.8085085E-01
         -2   -1    0    0    0  501 -0.00000000000E+00  0.00000000000E+00  0.25195512647E+04  0.25195512647E+04  0.00000000000E+00 0.  1.
          1   -1    0    0  501    0  0.00000000000E+00 -0.00000000000E+00 -0.13029272062E+04  0.13029272062E+04  0.00000000000E+00 0. -1.
        -24    2    1    2    0    0  0.44607885923E+03  0.14042581747E+04  0.14711861290E+04  0.20837332803E+04  0.81414908537E+02 0.  0.
        254    2    1    2    0    0 -0.44607885923E+03 -0.14042581747E+04 -0.25456207052E+03  0.17387451906E+04  0.88741513416E+03 0.  0.
         23    2    4    4    0    0  0.14624189180E+03 -0.65979859141E+03  0.15452973187E+03  0.69916472809E+03  0.90724896422E+02 0.  0.
         23    2    4    4    0    0 -0.59232075103E+03 -0.74445958328E+03 -0.40909180240E+03  0.10395804625E+04  0.91145444495E+02 0.  0.
          3    1    3    3  502    0  0.99881481591E+02  0.42331258945E+03  0.45803632630E+03  0.63163845273E+03  0.00000000000E+00 0. -1.
         -4    1    3    3    0  502  0.34619737764E+03  0.98094558525E+03  0.10131498027E+04  0.14520948275E+04  0.00000000000E+00 0.  1.
         11    1    5    5    0    0  0.28897322876E+01 -0.13862511578E+03  0.68482486964E+01  0.13882424784E+03  0.00000000000E+00 0. -1.
        -11    1    5    5    0    0  0.14335215951E+03 -0.52117347563E+03  0.14768148317E+03  0.56034048025E+03  0.00000000000E+00 0.  1.
          2    1    6    6  503    0 -0.14184736948E+02 -0.17474606056E+02 -0.27175014503E+02  0.35285266505E+02  0.00000000000E+00 0. -1.
         -2    1    6    6    0  503 -0.57813601408E+03 -0.72698497723E+03 -0.38191678789E+03  0.10042951960E+04  0.00000000000E+00 0.  1.
<mgrwt>
<rscale>  0 0.36236953E+04</rscale>
<asrwt>0</asrwt>
<pdfrwt beam="1">  1        1 0.20045034E+00 0.36236953E+04</pdfrwt>
<pdfrwt beam="2">  1       -2 0.38762327E+00 0.36236953E+04</pdfrwt>
<totfact> 0.56989964E-02</totfact>
</mgrwt>
</event>
<event>
12    4  0.4207946E-008  0.1291851E+04  0.7818608E-02  0.9036053E-01
         -2   -1    0    0    0  501 -0.00000000000E+00  0.00000000000E+00  0.16378676044E+03  0.16378676044E+03  0.00000000000E+00 0.  1.
          1   -1    0    0  501    0  0.00000000000E+00 -0.00000000000E+00 -0.25473336741E+04  0.25473336741E+04  0.00000000000E+00 0. -1.
        -24    2    1    2    0    0  0.77516716169E+02 -0.18160055421E+02  0.44263476041E+02  0.12095759007E+03  0.79579233388E+02 0.  0.
        254    2    1    2    0    0 -0.77516716169E+02  0.18160055421E+02 -0.24278103897E+04  0.25901628445E+04  0.89907821887E+03 0.  0.
         23    2    4    4    0    0 -0.39289693142E+03 -0.23167497049E+03 -0.15757639982E+04  0.16435896609E+04  0.10155542655E+03 0.  0.
         23    2    4    4    0    0  0.31538021525E+03  0.24983502591E+03 -0.85204639153E+03  0.94657318361E+03  0.90197107927E+02 0.  0.
          3    1    3    3  502    0  0.28843202419E+02  0.22762566711E+02 -0.92012673952E+01  0.37877804725E+02  0.00000000000E+00 0. -1.
         -4    1    3    3    0  502  0.48673513749E+02 -0.40922622132E+02  0.53464743437E+02  0.83079785349E+02  0.00000000000E+00 0.  1.
         11    1    5    5    0    0 -0.19690433034E+03 -0.10563581026E+03 -0.94784187498E+03  0.97382465551E+03  0.00000000000E+00 0. -1.
        -11    1    5    5    0    0 -0.19599260108E+03 -0.12603916023E+03 -0.62792212324E+03  0.66976500539E+03  0.00000000000E+00 0.  1.
          4    1    6    6  503    0  0.21587892688E+03  0.19644444374E+03 -0.68866878200E+03  0.74796980009E+03  0.00000000000E+00 0.  1.
         -4    1    6    6    0  503  0.99501288368E+02  0.53390582173E+02 -0.16337760953E+03  0.19860338352E+03  0.00000000000E+00 0. -1.
<mgrwt>
<rscale>  0 0.12918507E+04</rscale>
<asrwt>0</asrwt>
<pdfrwt beam="1">  1        1 0.39189747E+00 0.12918507E+04</pdfrwt>
<pdfrwt beam="2">  1       -2 0.25197964E-01 0.12918507E+04</pdfrwt>
<totfact> 0.15409792E+01</totfact>
</mgrwt>
</event>
<event>
12    4  0.4207946E-008  0.1959678E+04  0.7818608E-02  0.8625708E-01
         -2   -1    0    0    0  501 -0.00000000000E+00  0.00000000000E+00  0.73972333289E+03  0.73972333289E+03  0.00000000000E+00 0.  1.
          1   -1    0    0  501    0  0.00000000000E+00 -0.00000000000E+00 -0.12978964300E+04  0.12978964300E+04  0.00000000000E+00 0. -1.
        -24    2    1    2    0    0 -0.15151417787E+03  0.75413020976E+03 -0.47703362022E+03  0.90859765693E+03  0.79496591054E+02 0.  0.
        254    2    1    2    0    0  0.15151417787E+03 -0.75413020976E+03 -0.81139476861E+02  0.11290221059E+04  0.82245874158E+03 0.  0.
         23    2    4    4    0    0 -0.10544938900E+03 -0.38077833668E+03  0.32025596899E+03  0.51679303110E+03  0.91648436969E+02 0.  0.
         23    2    4    4    0    0  0.25696356688E+03 -0.37335187307E+03 -0.40139544585E+03  0.61222907482E+03  0.91017801991E+02 0.  0.
          1    1    3    3  502    0 -0.12823614866E+03  0.65077908276E+03 -0.44176710217E+03  0.79694171489E+03  0.00000000000E+00 0. -1.
         -2    1    3    3    0  502 -0.23278029213E+02  0.10335112700E+03 -0.35266518051E+02  0.11165594204E+03  0.00000000000E+00 0.  1.
         11    1    5    5    0    0 -0.94735719296E+02 -0.20550400696E+03  0.21454838061E+03  0.31182969873E+03  0.00000000000E+00 0.  1.
        -11    1    5    5    0    0 -0.10713669707E+02 -0.17527432972E+03  0.10570758838E+03  0.20496333237E+03  0.00000000000E+00 0. -1.
          1    1    6    6  503    0  0.12521900888E+03 -0.20000732254E+03 -0.26714602089E+03  0.35644035368E+03  0.00000000000E+00 0. -1.
         -1    1    6    6    0  503  0.13174455800E+03 -0.17334455054E+03 -0.13424942496E+03  0.25578872114E+03  0.00000000000E+00 0.  1.
<mgrwt>
<rscale>  0 0.19596778E+04</rscale>
<asrwt>0</asrwt>
<pdfrwt beam="1">  1        1 0.19967637E+00 0.19596778E+04</pdfrwt>
<pdfrwt beam="2">  1       -2 0.11380359E+00 0.19596778E+04</pdfrwt>
<totfact> 0.44844784E+00</totfact>
</mgrwt>
</event>
<event>
12    4  0.4207946E-008  0.1948011E+04  0.7818608E-02  0.8631321E-01
         -2   -1    0    0    0  501 -0.00000000000E+00  0.00000000000E+00  0.48431006817E+03  0.48431006817E+03  0.00000000000E+00 0.  1.
          1   -1    0    0  501    0  0.00000000000E+00 -0.00000000000E+00 -0.19588415622E+04  0.19588415622E+04  0.00000000000E+00 0. -1.
        -24    2    1    2    0    0  0.42158723183E+03 -0.44361377179E+03 -0.96058554344E+03  0.11418431872E+04  0.80946311692E+02 0.  0.
        254    2    1    2    0    0 -0.42158723183E+03  0.44361377179E+03 -0.51394595059E+03  0.13013084431E+04  0.10270025567E+04 0.  0.
         23    2    4    4    0    0 -0.10901753890E+03 -0.77515211697E+02  0.26488473366E+03  0.30938511992E+03  0.87531699809E+02 0.  0.
         23    2    4    4    0    0 -0.31256969293E+03  0.52112898349E+03 -0.77883068425E+03  0.99192332322E+03  0.89774239348E+02 0.  0.
          3    1    3    3  502    0  0.41910947513E+03 -0.44109826365E+03 -0.96180491243E+03  0.11381076926E+04  0.00000000000E+00 0. -1.
         -4    1    3    3    0  502  0.24777567060E+01 -0.25155081405E+01  0.12193689897E+01  0.37354946435E+01  0.00000000000E+00 0.  1.
         11    1    5    5    0    0 -0.84516188343E+02 -0.54379091917E+02  0.25527149735E+03  0.27434213874E+03  0.00000000000E+00 0. -1.
        -11    1    5    5    0    0 -0.24501350561E+02 -0.23136119780E+02  0.96132363075E+01  0.35042981181E+02  0.00000000000E+00 0.  1.
          1    1    6    6  503    0 -0.31615370163E+03  0.49653818398E+03 -0.75629268335E+03  0.95837464182E+03  0.00000000000E+00 0. -1.
         -1    1    6    6    0  503  0.35840086990E+01  0.24590799514E+02 -0.22538000903E+02  0.33548681402E+02  0.00000000000E+00 0.  1.
<mgrwt>
<rscale>  0 0.19480110E+04</rscale>
<asrwt>0</asrwt>
<pdfrwt beam="1">  1        1 0.30136024E+00 0.19480110E+04</pdfrwt>
<pdfrwt beam="2">  1       -2 0.74509241E-01 0.19480110E+04</pdfrwt>
<totfact> 0.42132037E+00</totfact>
</mgrwt>
</event>
<event>
12    4  0.4207946E-008  0.2326948E+04  0.7818608E-02  0.8467371E-01
         -2   -1    0    0    0  501 -0.00000000000E+00  0.00000000000E+00  0.69553524466E+03  0.69553524466E+03  0.00000000000E+00 0.  1.
          1   -1    0    0  501    0  0.00000000000E+00 -0.00000000000E+00 -0.19462306758E+04  0.19462306758E+04  0.00000000000E+00 0. -1.
        -24    2    1    2    0    0 -0.46671669795E+03 -0.60362453167E+03  0.17580270568E+03  0.78722797680E+03  0.81450873253E+02 0.  0.
        254    2    1    2    0    0  0.46671669795E+03  0.60362453167E+03 -0.14264981369E+04  0.18545379437E+04  0.90676733439E+03 0.  0.
         23    2    4    4    0    0 -0.20155323723E+03  0.43284958702E+03 -0.65037310632E+03  0.81219683643E+03  0.93252620658E+02 0.  0.
         23    2    4    4    0    0  0.66826993518E+03  0.17077494466E+03 -0.77612503053E+03  0.10423411072E+04  0.91411885748E+02 0.  0.
          1    1    3    3  502    0 -0.12309262400E+03 -0.20948757164E+03  0.78608231934E+02  0.25537441313E+03  0.00000000000E+00 0. -1.
         -4    1    3    3    0  502 -0.34362407395E+03 -0.39413696003E+03  0.97194473751E+02  0.53185356367E+03  0.00000000000E+00 0.  1.
         11    1    5    5    0    0 -0.32181789469E+02  0.98261485190E+02 -0.85482467393E+02  0.13415751666E+03  0.00000000000E+00 0.  1.
        -11    1    5    5    0    0 -0.16937144776E+03  0.33458810183E+03 -0.56489063893E+03  0.67803931977E+03  0.00000000000E+00 0. -1.
          1    1    6    6  503    0  0.44837829697E+03  0.10040254673E+03 -0.45327068379E+03  0.64542860284E+03  0.00000000000E+00 0. -1.
         -1    1    6    6    0  503  0.21989163821E+03  0.70372397927E+02 -0.32285434674E+03  0.39691250440E+03  0.00000000000E+00 0.  1.
<mgrwt>
<rscale>  0 0.23269482E+04</rscale>
<asrwt>0</asrwt>
<pdfrwt beam="1">  1        1 0.29942010E+00 0.23269482E+04</pdfrwt>
<pdfrwt beam="2">  1       -2 0.10700542E+00 0.23269482E+04</pdfrwt>
<totfact> 0.18034754E+00</totfact>
</mgrwt>
</event>
<event>
12    4  0.4207946E-008  0.1536249E+04  0.7818608E-02  0.8860699E-01
          1   -1    0    0  501    0  0.00000000000E+00  0.00000000000E+00  0.63182433872E+03  0.63182433872E+03  0.00000000000E+00 0. -1.
         -2   -1    0    0    0  501 -0.00000000000E+00 -0.00000000000E+00 -0.93382800698E+03  0.93382800698E+03  0.00000000000E+00 0.  1.
        -24    2    1    2    0    0  0.42309185863E+02 -0.25362618704E+03 -0.57103409528E+03  0.63264646462E+03  0.89695603300E+02 0.  0.
        254    2    1    2    0    0 -0.42309185863E+02  0.25362618704E+03  0.26903042703E+03  0.93300588108E+03  0.85557366340E+03 0.  0.
         23    2    4    4    0    0  0.19638116240E+02  0.55195362961E+03  0.86507890553E+02  0.56671545939E+03  0.92974899484E+02 0.  0.
         23    2    4    4    0    0 -0.61947302103E+02 -0.29832744257E+03  0.18252253647E+03  0.36629042169E+03  0.89540300847E+02 0.  0.
          3    1    3    3  502    0  0.39805855611E+02 -0.43430841183E+02 -0.16897743776E+03  0.17895283898E+03  0.00000000000E+00 0. -1.
         -2    1    3    3    0  502  0.25033302519E+01 -0.21019534586E+03 -0.40205665752E+03  0.45369362563E+03  0.00000000000E+00 0.  1.
         11    1    5    5    0    0 -0.28454841202E+02  0.13531314178E+03  0.44271661926E+02  0.14518713571E+03  0.00000000000E+00 0. -1.
        -11    1    5    5    0    0  0.48092957442E+02  0.41664048783E+03  0.42236228627E+02  0.42152832368E+03  0.00000000000E+00 0.  1.
          2    1    6    6  503    0 -0.77059210687E+02 -0.27342235958E+03  0.14546049180E+03  0.31914990732E+03  0.00000000000E+00 0.  1.
         -2    1    6    6    0  503  0.15111908584E+02 -0.24905082990E+02  0.37062044671E+02  0.47140514369E+02  0.00000000000E+00 0. -1.
<mgrwt>
<rscale>  0 0.15362490E+04</rscale>
<asrwt>0</asrwt>
<pdfrwt beam="1">  1        1 0.97203744E-01 0.15362490E+04</pdfrwt>
<pdfrwt beam="2">  1       -2 0.14366585E+00 0.15362490E+04</pdfrwt>
<totfact> 0.89965265E+00</totfact>
</mgrwt>
</event>
<event>
12    4  0.4207946E-008  0.1501089E+04  0.7818608E-02  0.8883729E-01
         -2   -1    0    0    0  501 -0.00000000000E+00  0.00000000000E+00  0.57489839256E+03  0.57489839256E+03  0.00000000000E+00 0.  1.
          1   -1    0    0  501    0  0.00000000000E+00 -0.00000000000E+00 -0.97985542690E+03  0.97985542690E+03  0.00000000000E+00 0. -1.
        -24    2    1    2    0    0  0.22015416697E+03  0.55036270347E+02  0.30667051305E+03  0.39003246090E+03  0.81127484202E+02 0.  0.
        254    2    1    2    0    0 -0.22015416697E+03 -0.55036270347E+02 -0.71162754739E+03  0.11647213586E+04  0.89368071960E+03 0.  0.
         23    2    4    4    0    0 -0.36776759711E+03 -0.38541664340E+03 -0.33846504208E+03  0.63705558491E+03  0.86499936801E+02 0.  0.
         23    2    4    4    0    0  0.14761343014E+03  0.33038037305E+03 -0.37316250531E+03  0.52766577365E+03  0.90774432831E+02 0.  0.
          1    1    3    3  502    0  0.96184665116E+02  0.26790444292E+02  0.20205822445E+03  0.22538132970E+03  0.00000000000E+00 0. -1.
         -2    1    3    3    0  502  0.12396950185E+03  0.28245826055E+02  0.10461228860E+03  0.16465113120E+03  0.00000000000E+00 0.  1.
         11    1    5    5    0    0 -0.36475825828E+03 -0.37572231494E+03 -0.34294427316E+03  0.62596055740E+03  0.00000000000E+00 0. -1.
        -11    1    5    5    0    0 -0.30093388232E+01 -0.96943284511E+01  0.44792310799E+01  0.11095027505E+02  0.00000000000E+00 0.  1.
          2    1    6    6  503    0  0.12563531306E+02  0.41729975558E+02 -0.10397234716E+02  0.44803299753E+02  0.00000000000E+00 0. -1.
         -2    1    6    6    0  503  0.13504989883E+03  0.28865039749E+03 -0.36276527059E+03  0.48286247389E+03  0.00000000000E+00 0.  1.
<mgrwt>
<rscale>  0 0.15010894E+04</rscale>
<asrwt>0</asrwt>
<pdfrwt beam="1">  1        1 0.15074699E+00 0.15010894E+04</pdfrwt>
<pdfrwt beam="2">  1       -2 0.88445907E-01 0.15010894E+04</pdfrwt>
<totfact> 0.14639062E+01</totfact>
</mgrwt>
</event>
<event>
12    4  0.4207946E-008  0.1606015E+04  0.7818608E-02  0.8816861E-01
         -2   -1    0    0    0  501 -0.00000000000E+00  0.00000000000E+00  0.75320023429E+03  0.75320023429E+03  0.00000000000E+00 0.  1.
          1   -1    0    0  501    0  0.00000000000E+00 -0.00000000000E+00 -0.85610886604E+03  0.85610886604E+03  0.00000000000E+00 0. -1.
        -24    2    1    2    0    0 -0.13618089311E+03  0.52931376420E+03 -0.12132483177E+03  0.56548430198E+03  0.79589473907E+02 0.  0.
        254    2    1    2    0    0  0.13618089311E+03 -0.52931376420E+03  0.18416200024E+02  0.10438247984E+04  0.88910784307E+03 0.  0.
         23    2    4    4    0    0  0.49264198858E+03 -0.25143955005E+03 -0.91062994406E+02  0.56787109031E+03  0.90923759410E+02 0.  0.
         23    2    4    4    0    0 -0.35646109546E+03 -0.27787421415E+03  0.10947919443E+03  0.47595370804E+03  0.10132939710E+03 0.  0.
          1    1    3    3  502    0 -0.10073695259E+03  0.34764826217E+03 -0.11683538622E+03  0.38033900047E+03  0.00000000000E+00 0. -1.
         -2    1    3    3    0  502 -0.35443940523E+02  0.18166550204E+03 -0.44894455510E+01  0.18514530151E+03  0.00000000000E+00 0.  1.
         11    1    5    5    0    0  0.18948298432E+03 -0.78240623635E+02 -0.75219913400E+02  0.21836536334E+03  0.00000000000E+00 0. -1.
        -11    1    5    5    0    0  0.30315900425E+03 -0.17319892641E+03 -0.15843081006E+02  0.34950572697E+03  0.00000000000E+00 0.  1.
          3    1    6    6  503    0 -0.15592039869E+02 -0.51245689555E+02  0.72866453349E+01  0.54058557190E+02  0.00000000000E+00 0. -1.
         -3    1    6    6    0  503 -0.34086905559E+03 -0.22662852460E+03  0.10219254910E+03  0.42189515085E+03  0.00000000000E+00 0.  1.
<mgrwt>
<rscale>  0 0.16060154E+04</rscale>
<asrwt>0</asrwt>
<pdfrwt beam="1">  1        1 0.13170906E+00 0.16060154E+04</pdfrwt>
<pdfrwt beam="2">  1       -2 0.11587696E+00 0.16060154E+04</pdfrwt>
<totfact> 0.96252934E+00</totfact>
</mgrwt>
</event>
<event>
12    4  0.4207946E-008  0.2881963E+04  0.7818608E-02  0.8278264E-01
         -2   -1    0    0    0  501 -0.00000000000E+00  0.00000000000E+00  0.60185775692E+03  0.60185775692E+03  0.00000000000E+00 0.  1.
          1   -1    0    0  501    0  0.00000000000E+00 -0.00000000000E+00 -0.34500297482E+04  0.34500297482E+04  0.00000000000E+00 0. -1.
        -24    2    1    2    0    0  0.60858109208E+03  0.11119401942E+04 -0.89446122181E+03  0.15534709666E+04  0.80182452440E+02 0.  0.
        254    2    1    2    0    0 -0.60858109208E+03 -0.11119401942E+04 -0.19537107694E+04  0.24984165384E+04  0.90460902478E+03 0.  0.
         23    2    4    4    0    0 -0.29657446000E+03 -0.97115951546E+03 -0.81330271834E+03  0.13042338363E+04  0.91963978161E+02 0.  0.
         23    2    4    4    0    0 -0.31200663209E+03 -0.14078067878E+03 -0.11404080511E+04  0.11941827022E+04  0.91512103596E+02 0.  0.
          1    1    3    3  502    0  0.11480824859E+03  0.23489164545E+03 -0.14847542364E+03  0.30066587846E+03  0.00000000000E+00 0. -1.
         -2    1    3    3    0  502  0.49377284349E+03  0.87704854880E+03 -0.74598579817E+03  0.12528050882E+04  0.00000000000E+00 0.  1.
         11    1    5    5    0    0 -0.23400813272E+01  0.12749402503E+01  0.23964612880E+00  0.26756090011E+01  0.00000000000E+00 0.  1.
        -11    1    5    5    0    0 -0.29423437867E+03 -0.97243445571E+03 -0.81354236447E+03  0.13015582273E+04  0.00000000000E+00 0. -1.
          2    1    6    6  503    0 -0.16936419019E+03 -0.34140439459E+02 -0.64481981475E+03  0.66756452274E+03  0.00000000000E+00 0. -1.
         -2    1    6    6    0  503 -0.14264244189E+03 -0.10664023932E+03 -0.49558823636E+03  0.52661817941E+03  0.00000000000E+00 0.  1.
<mgrwt>
<rscale>  0 0.28819626E+04</rscale>
<asrwt>0</asrwt>
<pdfrwt beam="1">  1        1 0.53077380E+00 0.28819626E+04</pdfrwt>
<pdfrwt beam="2">  1       -2 0.92593502E-01 0.28819626E+04</pdfrwt>
<totfact> 0.20464279E-01</totfact>
</mgrwt>
</event>
<event>
12    4  0.4207946E-008  0.2083118E+04  0.7818608E-02  0.8568717E-01
          1   -1    0    0  501    0  0.00000000000E+00  0.00000000000E+00  0.17269460392E+04  0.17269460392E+04  0.00000000000E+00 0. -1.
         -2   -1    0    0    0  501 -0.00000000000E+00 -0.00000000000E+00 -0.62818685312E+03  0.62818685312E+03  0.00000000000E+00 0.  1.
        -24    2    1    2    0    0  0.33539016542E+03  0.17355310736E+03 -0.41152726455E+03  0.56415927086E+03  0.79459104519E+02 0.  0.
        254    2    1    2    0    0 -0.33539016542E+03 -0.17355310736E+03  0.15102864506E+04  0.17909736214E+04  0.88544571017E+03 0.  0.
         23    2    4    4    0    0 -0.50170748457E+03  0.74232121867E+02  0.44578198234E+03  0.68201484742E+03  0.95926369280E+02 0.  0.
         23    2    4    4    0    0  0.16631731916E+03 -0.24778522922E+03  0.10645044683E+04  0.11089587740E+04  0.86953027760E+02 0.  0.
          1    1    3    3  502    0  0.98177475509E+01  0.27071856995E+02 -0.34158405858E+02  0.44677402554E+02  0.00000000000E+00 0. -1.
         -2    1    3    3    0  502  0.32557241787E+03  0.14648125036E+03 -0.37736885870E+03  0.51948186830E+03  0.00000000000E+00 0.  1.
         11    1    5    5    0    0 -0.11395729616E+03  0.35489994632E+02  0.15587031374E+03  0.19631953488E+03  0.00000000000E+00 0.  1.
        -11    1    5    5    0    0 -0.38775018841E+03  0.38742127235E+02  0.28991166860E+03  0.48569531254E+03  0.00000000000E+00 0. -1.
          3    1    6    6  503    0  0.13315937621E+03 -0.13701518951E+03  0.74729259540E+03  0.77133054184E+03  0.00000000000E+00 0. -1.
         -3    1    6    6    0  503  0.33157942946E+02 -0.11077003971E+03  0.31721187287E+03  0.33762823218E+03  0.00000000000E+00 0.  1.
<mgrwt>
<rscale>  0 0.20831177E+04</rscale>
<asrwt>0</asrwt>
<pdfrwt beam="1">  1        1 0.26568400E+00 0.20831177E+04</pdfrwt>
<pdfrwt beam="2">  1       -2 0.96644132E-01 0.20831177E+04</pdfrwt>
<totfact> 0.33075640E+00</totfact>
</mgrwt>
</event>
<event>
12    4  0.4207946E-008  0.1910357E+04  0.7818608E-02  0.8649718E-01
          1   -1    0    0  501    0  0.00000000000E+00  0.00000000000E+00  0.11569702123E+04  0.11569702123E+04  0.00000000000E+00 0. -1.
         -2   -1    0    0    0  501 -0.00000000000E+00 -0.00000000000E+00 -0.78858204613E+03  0.78858204613E+03  0.00000000000E+00 0.  1.
        -24    2    1    2    0    0  0.68097776738E+03 -0.26441271855E+03 -0.39773354979E+01  0.73483767502E+03  0.79534797601E+02 0.  0.
        254    2    1    2    0    0 -0.68097776738E+03  0.26441271855E+03  0.37236550171E+03  0.12107145835E+04  0.89080240813E+03 0.  0.
         23    2    4    4    0    0 -0.21933020437E+03  0.55141939490E+03  0.20617081712E+03  0.63481828703E+03  0.91207258949E+02 0.  0.
         23    2    4    4    0    0 -0.46164756301E+03 -0.28700667635E+03  0.16619468459E+03  0.57589629643E+03  0.92436823561E+02 0.  0.
          1    1    3    3  502    0  0.58283995821E+03 -0.23031067673E+03 -0.31087988885E+02  0.62746465060E+03  0.00000000000E+00 0. -1.
         -2    1    3    3    0  502  0.98137809176E+02 -0.34102041822E+02  0.27110653387E+02  0.10737302442E+03  0.00000000000E+00 0.  1.
         11    1    5    5    0    0 -0.17148975523E+03  0.31842417258E+03  0.14115780346E+03  0.38823731829E+03  0.00000000000E+00 0. -1.
        -11    1    5    5    0    0 -0.47840449142E+02  0.23299522232E+03  0.65013013658E+02  0.24658096874E+03  0.00000000000E+00 0.  1.
          2    1    6    6  503    0 -0.56687038282E+02 -0.55664391880E+02 -0.36978899424E+01  0.79533761527E+02  0.00000000000E+00 0. -1.
         -2    1    6    6    0  503 -0.40496052473E+03 -0.23134228447E+03  0.16989257453E+03  0.49636253490E+03  0.00000000000E+00 0.  1.
<mgrwt>
<rscale>  0 0.19103570E+04</rscale>
<asrwt>0</asrwt>
<pdfrwt beam="1">  1        1 0.17799542E+00 0.19103570E+04</pdfrwt>
<pdfrwt beam="2">  1       -2 0.12132032E+00 0.19103570E+04</pdfrwt>
<totfact> 0.48697125E+00</totfact>
</mgrwt>
</event>
<event>
12    4  0.4207946E-008  0.1215214E+04  0.7818608E-02  0.9099643E-01
         -2   -1    0    0    0  501 -0.00000000000E+00  0.00000000000E+00  0.20752520147E+03  0.20752520147E+03  0.00000000000E+00 0.  1.
          1   -1    0    0  501    0  0.00000000000E+00 -0.00000000000E+00 -0.17789958007E+04  0.17789958007E+04  0.00000000000E+00 0. -1.
        -24    2    1    2    0    0 -0.22408517305E+03 -0.12899195105E+03 -0.46020841242E+03  0.53392267470E+03  0.80178248155E+02 0.  0.
        254    2    1    2    0    0  0.22408517305E+03  0.12899195105E+03 -0.11112621868E+04  0.14525983275E+04  0.89904680911E+03 0.  0.
         23    2    4    4    0    0  0.34312736292E+03 -0.96498911479E+02 -0.67253654570E+02  0.37412028252E+03  0.91621529333E+02 0.  0.
         23    2    4    4    0    0 -0.11904218988E+03  0.22549086252E+03 -0.10440085322E+04  0.10784780450E+04  0.90243592695E+02 0.  0.
          1    1    3    3  502    0 -0.10112530937E+03 -0.42271251582E+02 -0.26998613531E+03  0.29138582698E+03  0.00000000000E+00 0. -1.
         -2    1    3    3    0  502 -0.12295986367E+03 -0.86720699464E+02 -0.19022227711E+03  0.24253684772E+03  0.00000000000E+00 0.  1.
         11    1    5    5    0    0  0.76791233786E+02 -0.46291183016E+02  0.14946527332E+02  0.90901957573E+02  0.00000000000E+00 0.  1.
        -11    1    5    5    0    0  0.26633612914E+03 -0.50207728462E+02 -0.82200181902E+02  0.28321832495E+03  0.00000000000E+00 0. -1.
          3    1    6    6  503    0 -0.38091535324E+02  0.14096262246E+02 -0.10529255248E+03  0.11285473531E+03  0.00000000000E+00 0. -1.
         -3    1    6    6    0  503 -0.80950654554E+02  0.21139460028E+03 -0.93871597976E+03  0.96562330966E+03  0.00000000000E+00 0.  1.
<mgrwt>
<rscale>  0 0.12152143E+04</rscale>
<asrwt>0</asrwt>
<pdfrwt beam="1">  1        1 0.27369167E+00 0.12152143E+04</pdfrwt>
<pdfrwt beam="2">  1       -2 0.31926953E-01 0.12152143E+04</pdfrwt>
<totfact> 0.33354128E+01</totfact>
</mgrwt>
</event>
<event>
12    4  0.4207946E-008  0.1151819E+04  0.7818608E-02  0.9156107E-01
          1   -1    0    0  501    0  0.00000000000E+00  0.00000000000E+00  0.19364286189E+04  0.19364286189E+04  0.00000000000E+00 0. -1.
         -2   -1    0    0    0  501 -0.00000000000E+00 -0.00000000000E+00 -0.17128024165E+03  0.17128024165E+03  0.00000000000E+00 0.  1.
        -24    2    1    2    0    0  0.75219684231E+02  0.20869532774E+03  0.41492950387E+03  0.47738444221E+03  0.80732098754E+02 0.  0.
        254    2    1    2    0    0 -0.75219684231E+02 -0.20869532774E+03  0.13502188734E+04  0.16303244183E+04  0.88637179687E+03 0.  0.
         23    2    4    4    0    0  0.30078415810E+03  0.13987571737E+03  0.80739326003E+03  0.87824894265E+03  0.96958768786E+02 0.  0.
         23    2    4    4    0    0 -0.37600384233E+03 -0.34857104511E+03  0.54282561334E+03  0.75207547569E+03  0.89873309107E+02 0.  0.
          1    1    3    3  502    0  0.22044152855E+02  0.16565498776E+03  0.30872209615E+03  0.35105106793E+03  0.00000000000E+00 0. -1.
         -4    1    3    3    0  502  0.53175531375E+02  0.43040339977E+02  0.10620740772E+03  0.12633337428E+03  0.00000000000E+00 0.  1.
         11    1    5    5    0    0  0.26842910590E+03  0.15380172684E+03  0.70263876573E+03  0.76773067620E+03  0.00000000000E+00 0. -1.
        -11    1    5    5    0    0  0.32355052202E+02 -0.13926009464E+02  0.10475449430E+03  0.11051826645E+03  0.00000000000E+00 0.  1.
          2    1    6    6  503    0 -0.24705351477E+03 -0.19217678367E+03  0.37837965664E+03  0.49105857074E+03  0.00000000000E+00 0. -1.
         -2    1    6    6    0  503 -0.12895032756E+03 -0.15639426144E+03  0.16444595670E+03  0.26101690494E+03  0.00000000000E+00 0.  1.
<mgrwt>
<rscale>  0 0.11518194E+04</rscale>
<asrwt>0</asrwt>
<pdfrwt beam="1">  1        1 0.29791208E+00 0.11518194E+04</pdfrwt>
<pdfrwt beam="2">  1       -2 0.26350808E-01 0.11518194E+04</pdfrwt>
<totfact> 0.37464720E+01</totfact>
</mgrwt>
</event>
<event>
12    4  0.4207946E-008  0.1970396E+04  0.7818608E-02  0.8620588E-01
         -2   -1    0    0    0  501 -0.00000000000E+00  0.00000000000E+00  0.11026957151E+04  0.11026957151E+04  0.00000000000E+00 0.  1.
          1   -1    0    0  501    0  0.00000000000E+00 -0.00000000000E+00 -0.88022044383E+03  0.88022044383E+03  0.00000000000E+00 0. -1.
        -24    2    1    2    0    0 -0.21010223965E+03 -0.62373818779E+03 -0.32137569041E+03  0.73675169967E+03  0.79551584256E+02 0.  0.
        254    2    1    2    0    0  0.21010223965E+03  0.62373818779E+03  0.54385096168E+03  0.12461644593E+04  0.90772226643E+03 0.  0.
         23    2    4    4    0    0  0.20026302372E+02 -0.11714365962E+03 -0.14957334304E+03  0.20960738332E+03  0.86251842986E+02 0.  0.
         23    2    4    4    0    0  0.19007593728E+03  0.74088184742E+03  0.69342430472E+03  0.10365570759E+04  0.92620362361E+02 0.  0.
          3    1    3    3  502    0 -0.20549582341E+03 -0.55934251858E+03 -0.30812597529E+03  0.67084588631E+03  0.00000000000E+00 0. -1.
         -4    1    3    3    0  502 -0.46064162491E+01 -0.64395669211E+02 -0.13249715127E+02  0.65905813360E+02  0.00000000000E+00 0.  1.
         11    1    5    5    0    0  0.37116006120E+02 -0.46487381880E+02 -0.23265362892E+02  0.63874499566E+02  0.00000000000E+00 0.  1.
        -11    1    5    5    0    0 -0.17089703748E+02 -0.70656277742E+02 -0.12630798015E+03  0.14573288376E+03  0.00000000000E+00 0. -1.
          4    1    6    6  503    0  0.51599463662E+02  0.37266274059E+03  0.31468368640E+03  0.49047512206E+03  0.00000000000E+00 0.  1.
         -4    1    6    6    0  503  0.13847647362E+03  0.36821910683E+03  0.37874061833E+03  0.54608195387E+03  0.00000000000E+00 0. -1.
<mgrwt>
<rscale>  0 0.19703962E+04</rscale>
<asrwt>0</asrwt>
<pdfrwt beam="1">  1        1 0.13541853E+00 0.19703962E+04</pdfrwt>
<pdfrwt beam="2">  1       -2 0.16964549E+00 0.19703962E+04</pdfrwt>
<totfact> 0.33000995E+00</totfact>
</mgrwt>
</event>
<event>
12    4  0.4207946E-008  0.2440877E+04  0.7818608E-02  0.8424357E-01
         -2   -1    0    0    0  501 -0.00000000000E+00  0.00000000000E+00  0.13016426232E+04  0.13016426232E+04  0.00000000000E+00 0.  1.
          1   -1    0    0  501    0  0.00000000000E+00 -0.00000000000E+00 -0.11443001742E+04  0.11443001742E+04  0.00000000000E+00 0. -1.
        -24    2    1    2    0    0  0.10185059777E+04  0.21033337075E+03  0.21503161050E+03  0.10646566305E+04  0.75236918918E+02 0.  0.
        254    2    1    2    0    0 -0.10185059777E+04 -0.21033337075E+03 -0.57689161492E+02  0.13812861668E+04  0.90720939250E+03 0.  0.
         23    2    4    4    0    0 -0.18561566806E+02 -0.15982250668E+01 -0.31070692506E+03  0.32495227364E+03  0.93317205156E+02 0.  0.
         23    2    4    4    0    0 -0.99994441089E+03 -0.20873514569E+03  0.25301776357E+03  0.10563338932E+04  0.91455559057E+02 0.  0.
          3    1    3    3  502    0  0.73127480150E+03  0.12946089944E+03  0.18049618219E+03  0.76426555043E+03  0.00000000000E+00 0. -1.
         -2    1    3    3    0  502  0.28723117620E+03  0.80872471319E+02  0.34535428315E+02  0.30039108010E+03  0.00000000000E+00 0.  1.
         11    1    5    5    0    0 -0.33229891703E+02 -0.40513670632E+02 -0.14752408355E+03  0.15655330861E+03  0.00000000000E+00 0. -1.
        -11    1    5    5    0    0  0.14668324897E+02  0.38915445565E+02 -0.16318284151E+03  0.16839896503E+03  0.00000000000E+00 0.  1.
          3    1    6    6  503    0 -0.75329392322E+03 -0.11854590362E+03  0.20098850659E+03  0.78860715556E+03  0.00000000000E+00 0. -1.
         -3    1    6    6    0  503 -0.24665048767E+03 -0.90189242066E+02  0.52029256978E+02  0.26772673762E+03  0.00000000000E+00 0.  1.
<mgrwt>
<rscale>  0 0.24408768E+04</rscale>
<asrwt>0</asrwt>
<pdfrwt beam="1">  1        1 0.17604618E+00 0.24408768E+04</pdfrwt>
<pdfrwt beam="2">  1       -2 0.20025271E+00 0.24408768E+04</pdfrwt>
<totfact> 0.12191122E+00</totfact>
</mgrwt>
</event>
<event>
12    4  0.4207946E-008  0.1362484E+04  0.7818608E-02  0.8981431E-01
          3   -1    0    0  501    0  0.00000000000E+00  0.00000000000E+00  0.73692184938E+03  0.73692184938E+03  0.00000000000E+00 0. -1.
         -4   -1    0    0    0  501 -0.00000000000E+00 -0.00000000000E+00 -0.62976935128E+03  0.62976935128E+03  0.00000000000E+00 0.  1.
        -24    2    1    2    0    0  0.13001444846E+03 -0.29354227185E+03 -0.16868079901E+03  0.37106017228E+03  0.78495970114E+02 0.  0.
        254    2    1    2    0    0 -0.13001444846E+03  0.29354227185E+03  0.27583329711E+03  0.99563102838E+03  0.90118051172E+03 0.  0.
         23    2    4    4    0    0 -0.10906762857E+03  0.60880396347E+03  0.21810890812E+03  0.66231872697E+03  0.92501820278E+02 0.  0.
         23    2    4    4    0    0 -0.20946819886E+02 -0.31526169162E+03  0.57724388984E+02  0.33331230141E+03  0.89085810984E+02 0.  0.
          1    1    3    3  502    0 -0.10045396573E+02 -0.25220897070E+02 -0.76091397426E+01  0.28194017963E+02  0.00000000000E+00 0. -1.
         -2    1    3    3    0  502  0.14005984503E+03 -0.26832137478E+03 -0.16107165927E+03  0.34286615431E+03  0.00000000000E+00 0.  1.
         11    1    5    5    0    0 -0.95052569511E+02  0.59960773797E+03  0.21935810025E+03  0.64550941631E+03  0.00000000000E+00 0. -1.
        -11    1    5    5    0    0 -0.14015059059E+02  0.91962255072E+01 -0.12491921284E+01  0.16809310663E+02  0.00000000000E+00 0.  1.
          1    1    6    6  503    0 -0.27941555490E+02 -0.14317703084E+03  0.67647723374E+02  0.16079989789E+03  0.00000000000E+00 0. -1.
         -1    1    6    6    0  503  0.69947356045E+01 -0.17208466078E+03 -0.99233343900E+01  0.17251240352E+03  0.00000000000E+00 0.  1.
<mgrwt>
<rscale>  0 0.13624842E+04</rscale>
<asrwt>0</asrwt>
<pdfrwt beam="1">  1        3 0.11337259E+00 0.13624842E+04</pdfrwt>
<pdfrwt beam="2">  1       -4 0.96887593E-01 0.13624842E+04</pdfrwt>
<totfact> 0.12920529E+00</totfact>
</mgrwt>
</event>
<event>
12    4  0.4207946E-008  0.1500756E+04  0.7818608E-02  0.8883950E-01
         -2   -1    0    0    0  501 -0.00000000000E+00  0.00000000000E+00  0.23168400161E+03  0.23168400161E+03  0.00000000000E+00 0.  1.
          1   -1    0    0  501    0  0.00000000000E+00 -0.00000000000E+00 -0.24303252997E+04  0.24303252997E+04  0.00000000000E+00 0. -1.
        -24    2    1    2    0    0 -0.17225795327E+03  0.33958561537E+03 -0.12208868976E+04  0.12814127533E+04  0.80390516224E+02 0.  0.
        254    2    1    2    0    0  0.17225795327E+03 -0.33958561537E+03 -0.97775440046E+03  0.13805965479E+04  0.89724688236E+03 0.  0.
         23    2    4    4    0    0 -0.16295101738E+03 -0.36174222972E+03 -0.94880851346E+03  0.10317662342E+04  0.83027056381E+02 0.  0.
         23    2    4    4    0    0  0.33520897065E+03  0.22156614353E+02 -0.28945887001E+02  0.34883031368E+03  0.89379828862E+02 0.  0.
          1    1    3    3  502    0 -0.17491938437E+03  0.31782993241E+03 -0.10922657971E+04  0.11509375433E+04  0.00000000000E+00 0. -1.
         -4    1    3    3    0  502  0.26614311008E+01  0.21755682961E+02 -0.12862110047E+03  0.13047521007E+03  0.00000000000E+00 0.  1.
         11    1    5    5    0    0 -0.45626864512E+02 -0.36576767306E+02 -0.16702845178E+03  0.17696941650E+03  0.00000000000E+00 0.  1.
        -11    1    5    5    0    0 -0.11732415286E+03 -0.32516546242E+03 -0.78178006167E+03  0.85479681774E+03  0.00000000000E+00 0. -1.
          2    1    6    6  503    0  0.11784368007E+03  0.18800753917E+02  0.31059277286E+02  0.12330969137E+03  0.00000000000E+00 0. -1.
         -2    1    6    6    0  503  0.21736529057E+03  0.33558604360E+01 -0.60005164287E+02  0.22552062231E+03  0.00000000000E+00 0.  1.
<mgrwt>
<rscale>  0 0.15007565E+04</rscale>
<asrwt>0</asrwt>
<pdfrwt beam="1">  1        1 0.37389616E+00 0.15007565E+04</pdfrwt>
<pdfrwt beam="2">  1       -2 0.35643696E-01 0.15007565E+04</pdfrwt>
<totfact> 0.95338095E+00</totfact>
</mgrwt>
</event>
<event>
12    4  0.4207946E-008  0.1529656E+04  0.7818608E-02  0.8864968E-01
         -2   -1    0    0    0  501 -0.00000000000E+00  0.00000000000E+00  0.20415923283E+03  0.20415923283E+03  0.00000000000E+00 0.  1.
          1   -1    0    0  501    0  0.00000000000E+00 -0.00000000000E+00 -0.28652232805E+04  0.28652232805E+04  0.00000000000E+00 0. -1.
        -24    2    1    2    0    0 -0.27903903536E+02  0.23865142631E+03 -0.24798585469E+01  0.25269415329E+03  0.78198812632E+02 0.  0.
        254    2    1    2    0    0  0.27903903536E+02 -0.23865142631E+03 -0.26585841891E+04  0.28166883600E+04  0.89884942889E+03 0.  0.
         23    2    4    4    0    0 -0.20825771611E+03 -0.54728329838E+02 -0.12769856774E+03  0.26662498590E+03  0.91735993460E+02 0.  0.
         23    2    4    4    0    0  0.23616161965E+03 -0.18392309647E+03 -0.25308856213E+04  0.25500633741E+04  0.88550367571E+02 0.  0.
          1    1    3    3  502    0 -0.17350869524E+02  0.10842889232E+02 -0.13269055186E+02  0.24386240909E+02  0.00000000000E+00 0. -1.
         -2    1    3    3    0  502 -0.10553034012E+02  0.22780853708E+03  0.10789196639E+02  0.22830791238E+03  0.00000000000E+00 0.  1.
         11    1    5    5    0    0 -0.51457613104E+02 -0.55975017716E+02 -0.29187064574E+02  0.81443067803E+02  0.00000000000E+00 0.  1.
        -11    1    5    5    0    0 -0.15680010301E+03  0.12466878781E+01 -0.98511503167E+02  0.18518191810E+03  0.00000000000E+00 0. -1.
          4    1    6    6  503    0  0.59222477060E+02 -0.72140755414E+02 -0.10999817688E+04  0.11039345461E+04  0.00000000000E+00 0.  1.
         -4    1    6    6    0  503  0.17693914259E+03 -0.11178234106E+03 -0.14309038526E+04  0.14461288281E+04  0.00000000000E+00 0. -1.
<mgrwt>
<rscale>  0 0.15296559E+04</rscale>
<asrwt>0</asrwt>
<pdfrwt beam="1">  1        1 0.44080356E+00 0.15296559E+04</pdfrwt>
<pdfrwt beam="2">  1       -2 0.31409114E-01 0.15296559E+04</pdfrwt>
<totfact> 0.59957757E+00</totfact>
</mgrwt>
</event>
<event>
12    4  0.4207946E-008  0.1177102E+04  0.7818608E-02  0.9133139E-01
         -2   -1    0    0    0  501 -0.00000000000E+00  0.00000000000E+00  0.21244822661E+03  0.21244822661E+03  0.00000000000E+00 0.  1.
          1   -1    0    0  501    0  0.00000000000E+00 -0.00000000000E+00 -0.16304776233E+04  0.16304776233E+04  0.00000000000E+00 0. -1.
        -24    2    1    2    0    0  0.51324813527E+02  0.13154561737E+03 -0.58336247891E+03  0.60710460947E+03  0.91245488172E+02 0.  0.
        254    2    1    2    0    0 -0.51324813527E+02 -0.13154561737E+03 -0.83466691777E+03  0.12358212404E+04  0.90035925536E+03 0.  0.
         23    2    4    4    0    0  0.37497074109E+03 -0.29748803470E+02 -0.14451093155E+03  0.41318876332E+03  0.91397466153E+02 0.  0.
         23    2    4    4    0    0 -0.42629555461E+03 -0.10179681390E+03 -0.69015598622E+03  0.82263247709E+03  0.91205349935E+02 0.  0.
          3    1    3    3  502    0  0.52856012741E+02  0.88933859452E+02 -0.24333766136E+03  0.26441672957E+03  0.00000000000E+00 0. -1.
         -4    1    3    3    0  502 -0.15311992140E+01  0.42611757922E+02 -0.34002481755E+03  0.34268787991E+03  0.00000000000E+00 0.  1.
         11    1    5    5    0    0  0.13951860844E+03 -0.41597730217E+02 -0.90193911986E+02  0.17126224050E+03  0.00000000000E+00 0. -1.
        -11    1    5    5    0    0  0.23545213264E+03  0.11848926748E+02 -0.54317019566E+02  0.24192652282E+03  0.00000000000E+00 0.  1.
          1    1    6    6  503    0 -0.32438935068E+03 -0.42953878839E+02 -0.54600808771E+03  0.63655189764E+03  0.00000000000E+00 0. -1.
         -1    1    6    6    0  503 -0.10190620393E+03 -0.58842935066E+02 -0.14414789851E+03  0.18608057945E+03  0.00000000000E+00 0.  1.
<mgrwt>
<rscale>  0 0.11771017E+04</rscale>
<asrwt>0</asrwt>
<pdfrwt beam="1">  1        1 0.25084271E+00 0.11771017E+04</pdfrwt>
<pdfrwt beam="2">  1       -2 0.32684343E-01 0.11771017E+04</pdfrwt>
<totfact> 0.40385600E+01</totfact>
</mgrwt>
</event>
<event>
12    4  0.4207946E-008  0.1222226E+04  0.7818608E-02  0.9093622E-01
         -2   -1    0    0    0  501 -0.00000000000E+00  0.00000000000E+00  0.12568239422E+03  0.12568239422E+03  0.00000000000E+00 0.  1.
          1   -1    0    0  501    0  0.00000000000E+00 -0.00000000000E+00 -0.29714499418E+04  0.29714499418E+04  0.00000000000E+00 0. -1.
        -24    2    1    2    0    0  0.74713630278E+01  0.11826993248E+03 -0.13323686263E+04  0.13399929153E+04  0.79569205175E+02 0.  0.
        254    2    1    2    0    0 -0.74713630278E+01 -0.11826993248E+03 -0.15133989213E+04  0.17571394208E+04  0.88494013971E+03 0.  0.
         23    2    4    4    0    0  0.36869326908E+03 -0.26557105613E+03 -0.95885074876E+03  0.10649184940E+04  0.90520317618E+02 0.  0.
         23    2    4    4    0    0 -0.37616463211E+03  0.14730112366E+03 -0.55454817254E+03  0.69222092680E+03  0.91916725079E+02 0.  0.
          3    1    3    3  502    0  0.57854264561E+01 -0.57412794789E+01 -0.31317434221E+03  0.31328038890E+03  0.00000000000E+00 0. -1.
         -4    1    3    3    0  502  0.16859365717E+01  0.12401121195E+03 -0.10191942841E+04  0.10267125264E+04  0.00000000000E+00 0.  1.
         11    1    5    5    0    0  0.53481966290E+02 -0.14990304626E+02 -0.17629423506E+03  0.18483692073E+03  0.00000000000E+00 0. -1.
        -11    1    5    5    0    0  0.31521130279E+03 -0.25058075151E+03 -0.78255651370E+03  0.88008157325E+03  0.00000000000E+00 0.  1.
          3    1    6    6  503    0 -0.16623817026E+03  0.34101724666E+02 -0.29025844511E+03  0.33622614686E+03  0.00000000000E+00 0. -1.
         -3    1    6    6    0  503 -0.20992646185E+03  0.11319939899E+03 -0.26428972744E+03  0.35599477994E+03  0.00000000000E+00 0.  1.
<mgrwt>
<rscale>  0 0.12222257E+04</rscale>
<asrwt>0</asrwt>
<pdfrwt beam="1">  1        1 0.45714615E+00 0.12222257E+04</pdfrwt>
<pdfrwt beam="2">  1       -2 0.19335753E-01 0.12222257E+04</pdfrwt>
<totfact> 0.12487763E+01</totfact>
</mgrwt>
</event>
<event>
12    4  0.4207946E-008  0.2548223E+04  0.7818608E-02  0.8386004E-01
         -2   -1    0    0    0  501 -0.00000000000E+00  0.00000000000E+00  0.81863309315E+03  0.81863309315E+03  0.00000000000E+00 0.  1.
          1   -1    0    0  501    0  0.00000000000E+00 -0.00000000000E+00 -0.19830135768E+04  0.19830135768E+04  0.00000000000E+00 0. -1.
        -24    2    1    2    0    0  0.53173037990E+02  0.67492171735E+03  0.46134795959E+03  0.82320258942E+03  0.80460343555E+02 0.  0.
        254    2    1    2    0    0 -0.53173037990E+02 -0.67492171735E+03 -0.16257284432E+04  0.19784440805E+04  0.90161039928E+03 0.  0.
         23    2    4    4    0    0  0.33842592383E+03 -0.48127861093E+03 -0.53756640414E+03  0.80226047867E+03  0.92103363182E+02 0.  0.
         23    2    4    4    0    0 -0.39159896182E+03 -0.19364310642E+03 -0.10881620391E+04  0.11761836018E+04  0.91999143501E+02 0.  0.
          1    1    3    3  502    0 -0.45322845665E+01  0.35049718482E+03  0.26709130663E+03  0.44068876120E+03  0.00000000000E+00 0. -1.
         -2    1    3    3    0  502  0.57705322556E+02  0.32442453253E+03  0.19425665296E+03  0.38251382822E+03  0.00000000000E+00 0.  1.
         11    1    5    5    0    0  0.23407684244E+03 -0.32836181423E+03 -0.30843159490E+03  0.50768444722E+03  0.00000000000E+00 0.  1.
        -11    1    5    5    0    0  0.10434908139E+03 -0.15291679670E+03 -0.22913480924E+03  0.29457603145E+03  0.00000000000E+00 0. -1.
          1    1    6    6  503    0 -0.21991645663E+03 -0.70471018346E+02 -0.48724442504E+03  0.53919990917E+03  0.00000000000E+00 0. -1.
         -1    1    6    6    0  503 -0.17168250519E+03 -0.12317208808E+03 -0.60091761403E+03  0.63698369267E+03  0.00000000000E+00 0.  1.
<mgrwt>
<rscale>  0 0.25482233E+04</rscale>
<asrwt>0</asrwt>
<pdfrwt beam="1">  1        1 0.30507901E+00 0.25482233E+04</pdfrwt>
<pdfrwt beam="2">  1       -2 0.12594355E+00 0.25482233E+04</pdfrwt>
<totfact> 0.11193702E+00</totfact>
</mgrwt>
</event>
<event>
12    4  0.4207946E-008  0.1131759E+04  0.7818608E-02  0.9174778E-01
          1   -1    0    0  501    0  0.00000000000E+00  0.00000000000E+00  0.61093059200E+03  0.61093059200E+03  0.00000000000E+00 0. -1.
         -2   -1    0    0    0  501 -0.00000000000E+00 -0.00000000000E+00 -0.52415079057E+03  0.52415079057E+03  0.00000000000E+00 0.  1.
        -24    2    1    2    0    0  0.11496744439E+03 -0.79815854175E+01  0.12641678088E+03  0.18894712268E+03  0.80240848109E+02 0.  0.
        254    2    1    2    0    0 -0.11496744439E+03  0.79815854175E+01 -0.39636979447E+02  0.94613425989E+03  0.93825248661E+03 0.  0.
         23    2    4    4    0    0  0.29213025205E+03  0.12020624418E+01  0.28507585861E+03  0.41880082219E+03  0.93724886677E+02 0.  0.
         23    2    4    4    0    0 -0.40709769644E+03  0.67795229757E+01 -0.32471283806E+03  0.52733343770E+03  0.82871170750E+02 0.  0.
          3    1    3    3  502    0  0.11278820733E+03  0.16226268607E+02  0.11567490403E+03  0.16237350439E+03  0.00000000000E+00 0. -1.
         -4    1    3    3    0  502  0.21792370588E+01 -0.24207854024E+02  0.10741876848E+02  0.26573618286E+02  0.00000000000E+00 0.  1.
         11    1    5    5    0    0  0.15255765156E+03  0.22905611736E+01  0.84415970429E+02  0.17437069646E+03  0.00000000000E+00 0.  1.
        -11    1    5    5    0    0  0.13957260049E+03 -0.10884987318E+01  0.20065988818E+03  0.24443012573E+03  0.00000000000E+00 0. -1.
          2    1    6    6  503    0 -0.84699407386E+02 -0.30191166385E+02 -0.86547075469E+02  0.12480341506E+03  0.00000000000E+00 0. -1.
         -2    1    6    6    0  503 -0.32239828906E+03  0.36970689360E+02 -0.23816576259E+03  0.40253002264E+03  0.00000000000E+00 0.  1.
<mgrwt>
<rscale>  0 0.11317593E+04</rscale>
<asrwt>0</asrwt>
<pdfrwt beam="1">  1        1 0.93989322E-01 0.11317593E+04</pdfrwt>
<pdfrwt beam="2">  1       -2 0.80638583E-01 0.11317593E+04</pdfrwt>
<totfact> 0.39440609E+01</totfact>
</mgrwt>
</event>
<event>
12    4  0.4207946E-008  0.1070691E+04  0.7818608E-02  0.9234239E-01
          1   -1    0    0  501    0  0.00000000000E+00  0.00000000000E+00  0.12874748066E+04  0.12874748066E+04  0.00000000000E+00 0. -1.
         -2   -1    0    0    0  501 -0.00000000000E+00 -0.00000000000E+00 -0.22260229100E+03  0.22260229100E+03  0.00000000000E+00 0.  1.
        -24    2    1    2    0    0 -0.13319487464E+03 -0.21886124371E+02  0.17538700941E+03  0.23529390209E+03  0.79892053565E+02 0.  0.
        254    2    1    2    0    0  0.13319487464E+03  0.21886124371E+02  0.88948550618E+03  0.12747831955E+04  0.90314331793E+03 0.  0.
         23    2    4    4    0    0  0.34773986716E+02 -0.13058260915E+03  0.10206114091E+04  0.10338173536E+04  0.94178683168E+02 0.  0.
         23    2    4    4    0    0  0.98420887921E+02  0.15246873352E+03 -0.13112590290E+03  0.24096584186E+03  0.89090676567E+02 0.  0.
          3    1    3    3  502    0 -0.61790442254E+01  0.39277076965E+01  0.63934241340E+02  0.64352114891E+02  0.00000000000E+00 0. -1.
         -4    1    3    3    0  502 -0.12701583041E+03 -0.25813832067E+02  0.11145276807E+03  0.17094178720E+03  0.00000000000E+00 0.  1.
         11    1    5    5    0    0 -0.29078420824E+02 -0.54146635141E+02  0.28941384705E+03  0.29586785483E+03  0.00000000000E+00 0.  1.
        -11    1    5    5    0    0  0.63852407540E+02 -0.76435974011E+02  0.73119756203E+03  0.73794949881E+03  0.00000000000E+00 0. -1.
          2    1    6    6  503    0  0.36356968711E+02  0.68629514677E+01 -0.26290828733E+01  0.37092335509E+02  0.00000000000E+00 0.  1.
         -2    1    6    6    0  503  0.62063919210E+02  0.14560578206E+03 -0.12849682002E+03  0.20387350635E+03  0.00000000000E+00 0. -1.
<mgrwt>
<rscale>  0 0.10706911E+04</rscale>
<asrwt>0</asrwt>
<pdfrwt beam="1">  1        1 0.19807304E+00 0.10706911E+04</pdfrwt>
<pdfrwt beam="2">  1       -2 0.34246507E-01 0.10706911E+04</pdfrwt>
<totfact> 0.64554850E+01</totfact>
</mgrwt>
</event>
<event>
12    4  0.4207946E-008  0.3386890E+04  0.7818608E-02  0.8141132E-01
          1   -1    0    0  501    0  0.00000000000E+00  0.00000000000E+00  0.28632885544E+04  0.28632885544E+04  0.00000000000E+00 0. -1.
         -2   -1    0    0    0  501 -0.00000000000E+00 -0.00000000000E+00 -0.10015599917E+04  0.10015599917E+04  0.00000000000E+00 0.  1.
        -24    2    1    2    0    0 -0.13284037836E+04  0.68856795494E+03  0.14753847709E+04  0.21029580221E+04  0.83004696311E+02 0.  0.
        254    2    1    2    0    0  0.13284037836E+04 -0.68856795494E+03  0.38634379182E+03  0.17618905240E+04  0.84629442413E+03 0.  0.
         23    2    4    4    0    0  0.83983141986E+03 -0.31947885677E+03  0.62442669139E+03  0.10982247909E+04  0.93837331495E+02 0.  0.
         23    2    4    4    0    0  0.48857236377E+03 -0.36908909817E+03 -0.23808289957E+03  0.66366573312E+03  0.94016068925E+02 0.  0.
          1    1    3    3  502    0 -0.69994600060E+03  0.35681010616E+03  0.83224019232E+03  0.11444918494E+04  0.00000000000E+00 0. -1.
         -2    1    3    3    0  502 -0.62845778304E+03  0.33175784878E+03  0.64314457854E+03  0.95846617269E+03  0.00000000000E+00 0.  1.
         11    1    5    5    0    0  0.45502515038E+03 -0.18800105602E+03  0.28748625669E+03  0.57012334835E+03  0.00000000000E+00 0. -1.
        -11    1    5    5    0    0  0.38480626948E+03 -0.13147780074E+03  0.33694043471E+03  0.52810144258E+03  0.00000000000E+00 0.  1.
          4    1    6    6  503    0  0.35204658086E+03 -0.29784475559E+03 -0.21176006623E+03  0.50743533497E+03  0.00000000000E+00 0. -1.
         -4    1    6    6    0  503  0.13652578292E+03 -0.71244342585E+02 -0.26322833338E+02  0.15623039815E+03  0.00000000000E+00 0.  1.
<mgrwt>
<rscale>  0 0.33868896E+04</rscale>
<asrwt>0</asrwt>
<pdfrwt beam="1">  1        1 0.44050593E+00 0.33868896E+04</pdfrwt>
<pdfrwt beam="2">  1       -2 0.15408615E+00 0.33868896E+04</pdfrwt>
<totfact> 0.15174574E-01</totfact>
</mgrwt>
</event>
<event>
12    4  0.4207946E-008  0.2218163E+04  0.7818608E-02  0.8510906E-01
          1   -1    0    0  501    0  0.00000000000E+00  0.00000000000E+00  0.61928535688E+03  0.61928535688E+03  0.00000000000E+00 0. -1.
         -2   -1    0    0    0  501 -0.00000000000E+00 -0.00000000000E+00 -0.19862598376E+04  0.19862598376E+04  0.00000000000E+00 0.  1.
        -24    2    1    2    0    0  0.63502505039E+03 -0.14941083214E+02  0.23132977121E+03  0.68085191145E+03  0.81029696348E+02 0.  0.
        254    2    1    2    0    0 -0.63502505039E+03  0.14941083214E+02 -0.15983042519E+04  0.19246932830E+04  0.86393732490E+03 0.  0.
         23    2    4    4    0    0 -0.78921397549E+03  0.19537530147E+03 -0.11983614209E+04  0.14509402146E+04  0.90151004357E+02 0.  0.
         23    2    4    4    0    0  0.15418892510E+03 -0.18043421825E+03 -0.39994283097E+03  0.47375306842E+03  0.90315945693E+02 0.  0.
          3    1    3    3  502    0  0.36120111058E+03  0.53831447796E+01  0.17125670479E+03  0.39978003885E+03  0.00000000000E+00 0. -1.
         -4    1    3    3    0  502  0.27382393981E+03 -0.20324227993E+02  0.60073066426E+02  0.28107187260E+03  0.00000000000E+00 0.  1.
         11    1    5    5    0    0 -0.48712681916E+03  0.15524633306E+03 -0.79929453697E+03  0.94882333377E+03  0.00000000000E+00 0.  1.
        -11    1    5    5    0    0 -0.30208715632E+03  0.40128968407E+02 -0.39906688396E+03  0.50211688081E+03  0.00000000000E+00 0. -1.
          4    1    6    6  503    0  0.13602083472E+03 -0.13771463702E+03 -0.37259567617E+03  0.41987441769E+03  0.00000000000E+00 0. -1.
         -4    1    6    6    0  503  0.18168090376E+02 -0.42719581231E+02 -0.27347154807E+02  0.53878650730E+02  0.00000000000E+00 0.  1.
<mgrwt>
<rscale>  0 0.22181629E+04</rscale>
<asrwt>0</asrwt>
<pdfrwt beam="1">  1        1 0.95274671E-01 0.22181629E+04</pdfrwt>
<pdfrwt beam="2">  1       -2 0.30557844E+00 0.22181629E+04</pdfrwt>
<totfact> 0.76670415E-01</totfact>
</mgrwt>
</event>
<event>
12    4  0.4207946E-008  0.2067940E+04  0.7818608E-02  0.8575499E-01
         -4   -1    0    0    0  501 -0.00000000000E+00  0.00000000000E+00  0.25928226573E+04  0.25928226573E+04  0.00000000000E+00 0.  1.
          3   -1    0    0  501    0  0.00000000000E+00 -0.00000000000E+00 -0.41232813062E+03  0.41232813062E+03  0.00000000000E+00 0. -1.
        -24    2    1    2    0    0 -0.77164119435E+03  0.30636163742E+03  0.84188827535E+03  0.11851146603E+04  0.80207880783E+02 0.  0.
        254    2    1    2    0    0  0.77164119435E+03 -0.30636163742E+03  0.13386062513E+04  0.18200361276E+04  0.91179889454E+03 0.  0.
         23    2    4    4    0    0  0.12885684548E+03  0.15063793943E+03  0.87256663568E+03  0.89954178922E+03  0.92233515745E+02 0.  0.
         23    2    4    4    0    0  0.64278434887E+03 -0.45699957685E+03  0.46603961562E+03  0.92049433839E+03  0.89980949580E+02 0.  0.
          3    1    3    3  502    0 -0.50186135402E+03  0.22362905309E+03  0.59872949929E+03  0.81262032054E+03  0.00000000000E+00 0. -1.
         -4    1    3    3    0  502 -0.26977984034E+03  0.82732584332E+02  0.24315877605E+03  0.37249433973E+03  0.00000000000E+00 0.  1.
         11    1    5    5    0    0  0.89028078487E+02  0.86160427911E+02  0.70266030488E+03  0.71349920963E+03  0.00000000000E+00 0.  1.
        -11    1    5    5    0    0  0.39828766998E+02  0.64477511522E+02  0.16990633080E+03  0.18604257959E+03  0.00000000000E+00 0. -1.
          4    1    6    6  503    0  0.17677496212E+03 -0.17007296310E+03  0.16826736619E+03  0.29746950522E+03  0.00000000000E+00 0. -1.
         -4    1    6    6    0  503  0.46600938675E+03 -0.28692661375E+03  0.29777224943E+03  0.62302483317E+03  0.00000000000E+00 0.  1.
<mgrwt>
<rscale>  0 0.20679398E+04</rscale>
<asrwt>0</asrwt>
<pdfrwt beam="1">  1        3 0.63435099E-01 0.20679398E+04</pdfrwt>
<pdfrwt beam="2">  1       -4 0.39889578E+00 0.20679398E+04</pdfrwt>
<totfact> 0.35425449E-02</totfact>
</mgrwt>
</event>
<event>
12    4  0.4207946E-008  0.2180304E+04  0.7818608E-02  0.8526671E-01
         -2   -1    0    0    0  501 -0.00000000000E+00  0.00000000000E+00  0.12069674271E+04  0.12069674271E+04  0.00000000000E+00 0.  1.
          1   -1    0    0  501    0  0.00000000000E+00 -0.00000000000E+00 -0.98464212317E+03  0.98464212317E+03  0.00000000000E+00 0. -1.
        -24    2    1    2    0    0 -0.78619419930E+03 -0.20652067679E+03  0.49127162301E+03  0.95312179692E+03  0.79631923555E+02 0.  0.
        254    2    1    2    0    0  0.78619419930E+03  0.20652067679E+03 -0.26894631910E+03  0.12384877533E+04  0.89485623630E+03 0.  0.
         23    2    4    4    0    0  0.37183109864E+03 -0.20304045996E+02 -0.55872938136E+03  0.67718516260E+03  0.87923845818E+02 0.  0.
         23    2    4    4    0    0  0.41436310066E+03  0.22682472278E+03  0.28978306226E+03  0.56130259072E+03  0.89107469546E+02 0.  0.
          1    1    3    3  502    0 -0.98808926268E+02 -0.53097483811E+02  0.58921112259E+02  0.12670534388E+03  0.00000000000E+00 0. -1.
         -2    1    3    3    0  502 -0.68738527303E+03 -0.15342319298E+03  0.43235051075E+03  0.82641645305E+03  0.00000000000E+00 0.  1.
         11    1    5    5    0    0  0.20358218019E+02  0.20345542542E+02 -0.44166640441E+02  0.52717077594E+02  0.00000000000E+00 0.  1.
        -11    1    5    5    0    0  0.35147288062E+03 -0.40649588538E+02 -0.51456274092E+03  0.62446808501E+03  0.00000000000E+00 0. -1.
          3    1    6    6  503    0  0.15013234484E+03  0.11687459940E+03  0.79705841364E+02  0.20628236497E+03  0.00000000000E+00 0. -1.
         -3    1    6    6    0  503  0.26423075582E+03  0.10995012338E+03  0.21007722089E+03  0.35502022575E+03  0.00000000000E+00 0.  1.
<mgrwt>
<rscale>  0 0.21803036E+04</rscale>
<asrwt>0</asrwt>
<pdfrwt beam="1">  1        1 0.15148340E+00 0.21803036E+04</pdfrwt>
<pdfrwt beam="2">  1       -2 0.18568730E+00 0.21803036E+04</pdfrwt>
<totfact> 0.20644692E+00</totfact>
</mgrwt>
</event>
<event>
12    4  0.4207946E-008  0.2941775E+04  0.7818608E-02  0.8260556E-01
          1   -1    0    0  501    0  0.00000000000E+00  0.00000000000E+00  0.17052596120E+04  0.17052596120E+04  0.00000000000E+00 0. -1.
         -2   -1    0    0    0  501 -0.00000000000E+00 -0.00000000000E+00 -0.12687273216E+04  0.12687273216E+04  0.00000000000E+00 0.  1.
        -24    2    1    2    0    0 -0.66588806205E+03 -0.66991868294E+03  0.11472505893E+04  0.14881819339E+04  0.79395218505E+02 0.  0.
        254    2    1    2    0    0  0.66588806205E+03  0.66991868294E+03 -0.71071829885E+03  0.14858049998E+04  0.90016556486E+03 0.  0.
         23    2    4    4    0    0  0.61872732571E+03  0.73486397856E+03 -0.85996522449E+03  0.12927985955E+04  0.94548668442E+02 0.  0.
         23    2    4    4    0    0  0.47160736342E+02 -0.64945295622E+02  0.14924692563E+03  0.19300640427E+03  0.92383985633E+02 0.  0.
          1    1    3    3  502    0 -0.61599964800E+03 -0.59246353716E+03  0.10133892800E+04  0.13256796152E+04  0.00000000000E+00 0. -1.
         -2    1    3    3    0  502 -0.49888414054E+02 -0.77455145779E+02  0.13386130926E+03  0.16250231869E+03  0.00000000000E+00 0.  1.
         11    1    5    5    0    0  0.23942274169E+03  0.30128121010E+03 -0.40549669642E+03  0.55903594483E+03  0.00000000000E+00 0. -1.
        -11    1    5    5    0    0  0.37930458401E+03  0.43358276846E+03 -0.45446852807E+03  0.73376265070E+03  0.00000000000E+00 0.  1.
          1    1    6    6  503    0  0.45914357249E+02 -0.37160951868E+01  0.11254916182E+03  0.12161106608E+03  0.00000000000E+00 0. -1.
         -1    1    6    6    0  503  0.12463790923E+01 -0.61229200435E+02  0.36697763810E+02  0.71395338191E+02  0.00000000000E+00 0.  1.
<mgrwt>
<rscale>  0 0.29417746E+04</rscale>
<asrwt>0</asrwt>
<pdfrwt beam="1">  1        1 0.26234763E+00 0.29417746E+04</pdfrwt>
<pdfrwt beam="2">  1       -2 0.19518882E+00 0.29417746E+04</pdfrwt>
<totfact> 0.50835417E-01</totfact>
</mgrwt>
</event>
<event>
12    4  0.4207946E-008  0.1422586E+04  0.7818608E-02  0.8937630E-01
          1   -1    0    0  501    0  0.00000000000E+00  0.00000000000E+00  0.13119875658E+04  0.13119875658E+04  0.00000000000E+00 0. -1.
         -2   -1    0    0    0  501 -0.00000000000E+00 -0.00000000000E+00 -0.38562690010E+03  0.38562690010E+03  0.00000000000E+00 0.  1.
        -24    2    1    2    0    0  0.11014704728E+03  0.40279028317E+03  0.32458745341E+03  0.53499778768E+03  0.80580603586E+02 0.  0.
        254    2    1    2    0    0 -0.11014704728E+03 -0.40279028317E+03  0.60177321229E+03  0.11626166782E+04  0.90286995586E+03 0.  0.
         23    2    4    4    0    0 -0.17068367212E+02 -0.14598061005E+03  0.79636708398E+03  0.81480306917E+03  0.90010229530E+02 0.  0.
         23    2    4    4    0    0 -0.93078680066E+02 -0.25680967312E+03 -0.19459387168E+03  0.34781360904E+03  0.92155753200E+02 0.  0.
          3    1    3    3  502    0  0.34474478640E+02  0.96142562134E+02  0.39473280497E+02  0.10949895801E+03  0.00000000000E+00 0. -1.
         -4    1    3    3    0  502  0.75672568638E+02  0.30664772103E+03  0.28511417291E+03  0.42549882967E+03  0.00000000000E+00 0.  1.
         11    1    5    5    0    0  0.88469137105E+01 -0.14560669537E+03  0.65100416608E+03  0.66714766122E+03  0.00000000000E+00 0. -1.
        -11    1    5    5    0    0 -0.25915280922E+02 -0.37391467596E+00  0.14536291790E+03  0.14765540795E+03  0.00000000000E+00 0.  1.
          2    1    6    6  503    0 -0.10867407774E+03 -0.23294755647E+03 -0.15915492557E+03  0.30233244876E+03  0.00000000000E+00 0. -1.
         -2    1    6    6    0  503  0.15595397672E+02 -0.23862116653E+02 -0.35438946111E+02  0.45481160288E+02  0.00000000000E+00 0.  1.
<mgrwt>
<rscale>  0 0.14225860E+04</rscale>
<asrwt>0</asrwt>
<pdfrwt beam="1">  1        1 0.20184424E+00 0.14225860E+04</pdfrwt>
<pdfrwt beam="2">  1       -2 0.59327216E-01 0.14225860E+04</pdfrwt>
<totfact> 0.20085029E+01</totfact>
</mgrwt>
</event>
<event>
12    4  0.4207946E-008  0.2509752E+04  0.7818608E-02  0.8399520E-01
         -2   -1    0    0    0  501 -0.00000000000E+00  0.00000000000E+00  0.56501180611E+03  0.56501180611E+03  0.00000000000E+00 0.  1.
          1   -1    0    0  501    0  0.00000000000E+00 -0.00000000000E+00 -0.27870457151E+04  0.27870457151E+04  0.00000000000E+00 0. -1.
        -24    2    1    2    0    0 -0.80782678505E+03 -0.33609234287E+03 -0.91701682465E+02  0.88335991347E+03  0.79833329943E+02 0.  0.
        254    2    1    2    0    0  0.80782678505E+03  0.33609234287E+03 -0.21303322266E+04  0.24686976078E+04  0.88916269914E+03 0.  0.
         23    2    4    4    0    0 -0.87322053150E+02 -0.17272536357E+03 -0.39711103568E+03  0.45064743469E+03  0.89032261317E+02 0.  0.
         23    2    4    4    0    0  0.89514883820E+03  0.50881770644E+03 -0.17332211909E+04  0.20180501731E+04  0.91015952591E+02 0.  0.
          1    1    3    3  502    0 -0.35739528635E+02 -0.34535483366E+02 -0.52463855081E+01  0.49975374729E+02  0.00000000000E+00 0. -1.
         -2    1    3    3    0  502 -0.77208725642E+03 -0.30155685951E+03 -0.86455296957E+02  0.83338453874E+03  0.00000000000E+00 0.  1.
         11    1    5    5    0    0 -0.10170958477E+03 -0.14635718375E+03 -0.29949925805E+03  0.34851839326E+03  0.00000000000E+00 0.  1.
        -11    1    5    5    0    0  0.14387531617E+02 -0.26368179817E+02 -0.97611777622E+02  0.10212904143E+03  0.00000000000E+00 0. -1.
          1    1    6    6  503    0  0.24364112854E+03  0.17157247393E+03 -0.44437898122E+03  0.53504279481E+03  0.00000000000E+00 0. -1.
         -1    1    6    6    0  503  0.65150770966E+03  0.33724523250E+03 -0.12888422097E+04  0.14830073783E+04  0.00000000000E+00 0.  1.
<mgrwt>
<rscale>  0 0.25097520E+04</rscale>
<asrwt>0</asrwt>
<pdfrwt beam="1">  1        1 0.42877627E+00 0.25097520E+04</pdfrwt>
<pdfrwt beam="2">  1       -2 0.86924893E-01 0.25097520E+04</pdfrwt>
<totfact> 0.76051106E-01</totfact>
</mgrwt>
</event>
<event>
12    4  0.4207946E-008  0.1779443E+04  0.7818608E-02  0.8717308E-01
          1   -1    0    0  501    0  0.00000000000E+00  0.00000000000E+00  0.19665946126E+04  0.19665946126E+04  0.00000000000E+00 0. -1.
         -2   -1    0    0    0  501 -0.00000000000E+00 -0.00000000000E+00 -0.40252557550E+03  0.40252557550E+03  0.00000000000E+00 0.  1.
        -24    2    1    2    0    0  0.22660497941E+03  0.94356988227E+02 -0.22981765712E+03  0.34590347735E+03  0.81117212699E+02 0.  0.
        254    2    1    2    0    0 -0.22660497941E+03 -0.94356988227E+02  0.17938866942E+04  0.20232167107E+04  0.90284180732E+03 0.  0.
         23    2    4    4    0    0  0.16203396030E+03 -0.21267254247E+03  0.13549323900E+03  0.31340943727E+03  0.91555682202E+02 0.  0.
         23    2    4    4    0    0 -0.38863893971E+03  0.11831555424E+03  0.16583934552E+04  0.17098072734E+04  0.90184612427E+02 0.  0.
          1    1    3    3  502    0  0.16633705516E+02 -0.11100340886E+02 -0.47909423176E+01  0.20563337649E+02  0.00000000000E+00 0. -1.
         -2    1    3    3    0  502  0.20997127389E+03  0.10545732911E+03 -0.22502671480E+03  0.32534013970E+03  0.00000000000E+00 0.  1.
         11    1    5    5    0    0  0.90949868443E+02 -0.14853861021E+03  0.41085309772E+02  0.17895138997E+03  0.00000000000E+00 0.  1.
        -11    1    5    5    0    0  0.71084091856E+02 -0.64133932258E+02  0.94407929228E+02  0.13445804730E+03  0.00000000000E+00 0. -1.
          1    1    6    6  503    0 -0.30732998573E+03  0.10291503489E+03  0.11531159208E+04  0.11977977923E+04  0.00000000000E+00 0. -1.
         -1    1    6    6    0  503 -0.81308953977E+02  0.15400519352E+02  0.50527753440E+03  0.51200948113E+03  0.00000000000E+00 0.  1.
<mgrwt>
<rscale>  0 0.17794433E+04</rscale>
<asrwt>0</asrwt>
<pdfrwt beam="1">  1        1 0.30255301E+00 0.17794433E+04</pdfrwt>
<pdfrwt beam="2">  1       -2 0.61927013E-01 0.17794433E+04</pdfrwt>
<totfact> 0.63114529E+00</totfact>
</mgrwt>
</event>
<event>
12    4  0.4207946E-008  0.2312271E+04  0.7818608E-02  0.8473098E-01
         -2   -1    0    0    0  501 -0.00000000000E+00  0.00000000000E+00  0.92767389406E+03  0.92767389406E+03  0.00000000000E+00 0.  1.
          1   -1    0    0  501    0  0.00000000000E+00 -0.00000000000E+00 -0.14408616833E+04  0.14408616833E+04  0.00000000000E+00 0. -1.
        -24    2    1    2    0    0  0.14194485602E+03 -0.27748484786E+03 -0.11800381612E+04  0.12233277750E+04  0.83033730182E+02 0.  0.
        254    2    1    2    0    0 -0.14194485602E+03  0.27748484786E+03  0.66685037195E+03  0.11452078023E+04  0.87730571012E+03 0.  0.
         23    2    4    4    0    0  0.33656035194E+03  0.27380551539E+03  0.30296310767E+03  0.53745662585E+03  0.93971534556E+02 0.  0.
         23    2    4    4    0    0 -0.47850520796E+03  0.36793324675E+01  0.36388726428E+03  0.60775117648E+03  0.89256819796E+02 0.  0.
          1    1    3    3  502    0  0.15027412648E+03 -0.23885001794E+03 -0.10036883631E+04  0.10426034598E+04  0.00000000000E+00 0. -1.
         -2    1    3    3    0  502 -0.83292704568E+01 -0.38634829919E+02 -0.17634979810E+03  0.18072431524E+03  0.00000000000E+00 0.  1.
         11    1    5    5    0    0  0.27772953007E+03  0.23076330271E+03  0.20459648155E+03  0.41502423305E+03  0.00000000000E+00 0. -1.
        -11    1    5    5    0    0  0.58830821864E+02  0.43042212676E+02  0.98366626118E+02  0.12243239280E+03  0.00000000000E+00 0.  1.
          3    1    6    6  503    0 -0.36309990696E+03  0.30114114830E+02  0.23943169540E+03  0.43597699378E+03  0.00000000000E+00 0. -1.
         -3    1    6    6    0  503 -0.11540530100E+03 -0.26434782362E+02  0.12445556887E+03  0.17177418270E+03  0.00000000000E+00 0.  1.
<mgrwt>
<rscale>  0 0.23122714E+04</rscale>
<asrwt>0</asrwt>
<pdfrwt beam="1">  1        1 0.22167103E+00 0.23122714E+04</pdfrwt>
<pdfrwt beam="2">  1       -2 0.14271906E+00 0.23122714E+04</pdfrwt>
<totfact> 0.19474622E+00</totfact>
</mgrwt>
</event>
<event>
12    4  0.4207946E-008  0.2237518E+04  0.7818608E-02  0.8502973E-01
         -2   -1    0    0    0  501 -0.00000000000E+00  0.00000000000E+00  0.59005780759E+03  0.59005780759E+03  0.00000000000E+00 0.  1.
          1   -1    0    0  501    0  0.00000000000E+00 -0.00000000000E+00 -0.21211848773E+04  0.21211848773E+04  0.00000000000E+00 0. -1.
        -24    2    1    2    0    0 -0.17586873786E+03  0.52848682324E+03 -0.15790599366E+04  0.16757192244E+04  0.66155122061E+02 0.  0.
        254    2    1    2    0    0  0.17586873786E+03 -0.52848682324E+03  0.47932866895E+02  0.10355234605E+04  0.87165540343E+03 0.  0.
         23    2    4    4    0    0  0.62093900920E+02  0.15043760479E+02  0.37040621308E+03  0.38689607128E+03  0.91683368296E+02 0.  0.
         23    2    4    4    0    0  0.11377483694E+03 -0.54353058371E+03 -0.32247334618E+03  0.64862738927E+03  0.91423312999E+02 0.  0.
          3    1    3    3  502    0 -0.16839816427E+03  0.51161840002E+03 -0.15532928909E+04  0.16440286293E+04  0.00000000000E+00 0. -1.
         -4    1    3    3    0  502 -0.74705735822E+01  0.16868423218E+02 -0.25767045695E+02  0.31690595062E+02  0.00000000000E+00 0.  1.
         11    1    5    5    0    0  0.79589003868E+02  0.20262542248E+02  0.35003645821E+03  0.35954207297E+03  0.00000000000E+00 0. -1.
        -11    1    5    5    0    0 -0.17495102948E+02 -0.52187817689E+01  0.20369754865E+02  0.27353998310E+02  0.00000000000E+00 0.  1.
          3    1    6    6  503    0  0.11814634367E+03 -0.52473934803E+03 -0.32608348539E+03  0.62899950821E+03  0.00000000000E+00 0. -1.
         -3    1    6    6    0  503 -0.43715067322E+01 -0.18791235686E+02  0.36101392021E+01  0.19627881056E+02  0.00000000000E+00 0.  1.
<mgrwt>
<rscale>  0 0.22375180E+04</rscale>
<asrwt>0</asrwt>
<pdfrwt beam="1">  1        1 0.32633613E+00 0.22375180E+04</pdfrwt>
<pdfrwt beam="2">  1       -2 0.90778124E-01 0.22375180E+04</pdfrwt>
<totfact> 0.20389536E+00</totfact>
</mgrwt>
</event>
<event>
12    4  0.4207946E-008  0.1413390E+04  0.7818608E-02  0.8944182E-01
         -2   -1    0    0    0  501 -0.00000000000E+00  0.00000000000E+00  0.12658322615E+03  0.12658322615E+03  0.00000000000E+00 0.  1.
          1   -1    0    0  501    0  0.00000000000E+00 -0.00000000000E+00 -0.39453738448E+04  0.39453738448E+04  0.00000000000E+00 0. -1.
        -24    2    1    2    0    0 -0.54572047934E+02 -0.44142904405E+02 -0.22927213523E+04  0.22951915775E+04  0.80040449654E+02 0.  0.
        254    2    1    2    0    0  0.54572047934E+02  0.44142904405E+02 -0.15260692663E+04  0.17767654935E+04  0.90723839684E+03 0.  0.
         23    2    4    4    0    0 -0.36350809837E+03 -0.18235232991E+03 -0.83236409888E+03  0.93081009518E+03  0.90481657744E+02 0.  0.
         23    2    4    4    0    0  0.41808014631E+03  0.22649523432E+03 -0.69370516744E+03  0.84595539827E+03  0.91228156976E+02 0.  0.
          3    1    3    3  502    0 -0.47904339067E+02  0.39201278437E+01 -0.16244420212E+04  0.16251529385E+04  0.00000000000E+00 0. -1.
         -4    1    3    3    0  502 -0.66677088672E+01 -0.48063032248E+02 -0.66827933110E+03  0.67003863903E+03  0.00000000000E+00 0.  1.
         11    1    5    5    0    0 -0.20158528610E+03 -0.14518914646E+03 -0.45260954563E+03  0.51630603000E+03  0.00000000000E+00 0.  1.
        -11    1    5    5    0    0 -0.16192281227E+03 -0.37163183451E+02 -0.37975455325E+03  0.41450406518E+03  0.00000000000E+00 0. -1.
          2    1    6    6  503    0  0.47352578591E+02  0.17011948103E+02 -0.13072415307E+03  0.14007311402E+03  0.00000000000E+00 0. -1.
         -2    1    6    6    0  503  0.37072756772E+03  0.20948328622E+03 -0.56298101438E+03  0.70588228425E+03  0.00000000000E+00 0.  1.
<mgrwt>
<rscale>  0 0.14133905E+04</rscale>
<asrwt>0</asrwt>
<pdfrwt beam="1">  1        1 0.60698048E+00 0.14133905E+04</pdfrwt>
<pdfrwt beam="2">  1       -2 0.19474346E-01 0.14133905E+04</pdfrwt>
<totfact> 0.20972577E+00</totfact>
</mgrwt>
</event>
<event>
12    4  0.4207946E-008  0.1429379E+04  0.7818608E-02  0.8932823E-01
         -2   -1    0    0    0  501 -0.00000000000E+00  0.00000000000E+00  0.33785844197E+03  0.33785844197E+03  0.00000000000E+00 0.  1.
          1   -1    0    0  501    0  0.00000000000E+00 -0.00000000000E+00 -0.15118197288E+04  0.15118197288E+04  0.00000000000E+00 0. -1.
        -24    2    1    2    0    0  0.13441664858E+03 -0.40281193228E+03 -0.39083117701E+03  0.58183804383E+03  0.73900014416E+02 0.  0.
        254    2    1    2    0    0 -0.13441664858E+03  0.40281193228E+03 -0.78313010979E+03  0.12678401269E+04  0.90210893485E+03 0.  0.
         23    2    4    4    0    0  0.31928829068E+03  0.11785372196E+03 -0.59794314083E+03  0.69375192061E+03  0.89001209737E+02 0.  0.
         23    2    4    4    0    0 -0.45370493927E+03  0.28495821032E+03 -0.18518696896E+03  0.57408820630E+03  0.90739746505E+02 0.  0.
          1    1    3    3  502    0 -0.93229715960E+01 -0.21291855773E+02 -0.23790787097E+02  0.33260524234E+02  0.00000000000E+00 0. -1.
         -2    1    3    3    0  502  0.14373962018E+03 -0.38152007650E+03 -0.36704038991E+03  0.54857751960E+03  0.00000000000E+00 0.  1.
         11    1    5    5    0    0  0.84634780005E+02  0.17498763805E+01 -0.98725734028E+02  0.13004952369E+03  0.00000000000E+00 0. -1.
        -11    1    5    5    0    0  0.23465351068E+03  0.11610384558E+03 -0.49921740680E+03  0.56370239691E+03  0.00000000000E+00 0.  1.
          3    1    6    6  503    0 -0.11161265239E+03  0.11907787019E+03 -0.54798880300E+02  0.17216225087E+03  0.00000000000E+00 0. -1.
         -3    1    6    6    0  503 -0.34209228688E+03  0.16588034013E+03 -0.13038808866E+03  0.40192595543E+03  0.00000000000E+00 0.  1.
<mgrwt>
<rscale>  0 0.14293790E+04</rscale>
<asrwt>0</asrwt>
<pdfrwt beam="1">  1        1 0.23258765E+00 0.14293790E+04</pdfrwt>
<pdfrwt beam="2">  1       -2 0.51978222E-01 0.14293790E+04</pdfrwt>
<totfact> 0.19149974E+01</totfact>
</mgrwt>
</event>
<event>
12    4  0.4207946E-008  0.9879862E+03  0.7818608E-02  0.9321820E-01
         -2   -1    0    0    0  501 -0.00000000000E+00  0.00000000000E+00  0.40159783264E+03  0.40159783264E+03  0.00000000000E+00 0.  1.
          1   -1    0    0  501    0  0.00000000000E+00 -0.00000000000E+00 -0.60764567962E+03  0.60764567962E+03  0.00000000000E+00 0. -1.
        -24    2    1    2    0    0  0.15441026534E+02 -0.13561818337E+02  0.19639179263E+02  0.82984968108E+02  0.77964474941E+02 0.  0.
        254    2    1    2    0    0 -0.15441026534E+02  0.13561818337E+02 -0.22568702625E+03  0.92625854415E+03  0.89810796042E+03 0.  0.
         23    2    4    4    0    0  0.35107425121E+03  0.18179025181E+03 -0.30220364588E+03  0.50597772885E+03  0.91572883498E+02 0.  0.
         23    2    4    4    0    0 -0.36651527774E+03 -0.16822843348E+03  0.76516619629E+02  0.42028081530E+03  0.90260268010E+02 0.  0.
          3    1    3    3  502    0  0.26100664114E+02 -0.29313537270E+01 -0.24764489483E+02  0.36098718000E+02  0.00000000000E+00 0. -1.
         -4    1    3    3    0  502 -0.10659637580E+02 -0.10630464610E+02  0.44403668746E+02  0.46886250109E+02  0.00000000000E+00 0.  1.
         11    1    5    5    0    0  0.18244876977E+03  0.13280300551E+03 -0.20704366584E+03  0.30625360639E+03  0.00000000000E+00 0. -1.
        -11    1    5    5    0    0  0.16862548144E+03  0.48987246307E+02 -0.95159980043E+02  0.19972412246E+03  0.00000000000E+00 0.  1.
          3    1    6    6  503    0 -0.70460587995E+02 -0.43714262920E+02  0.52649340659E+02  0.98222117240E+02  0.00000000000E+00 0. -1.
         -3    1    6    6    0  503 -0.29605468975E+03 -0.12451417056E+03  0.23867278970E+02  0.32205869806E+03  0.00000000000E+00 0.  1.
<mgrwt>
<rscale>  0 0.98798621E+03</rscale>
<asrwt>0</asrwt>
<pdfrwt beam="1">  1        1 0.93483951E-01 0.98798621E+03</pdfrwt>
<pdfrwt beam="2">  1       -2 0.61784282E-01 0.98798621E+03</pdfrwt>
<totfact> 0.71907338E+01</totfact>
</mgrwt>
</event>
<event>
12    4  0.4207946E-008  0.1451369E+04  0.7818608E-02  0.8917452E-01
         -2   -1    0    0    0  501 -0.00000000000E+00  0.00000000000E+00  0.31639592404E+03  0.31639592404E+03  0.00000000000E+00 0.  1.
          1   -1    0    0  501    0  0.00000000000E+00 -0.00000000000E+00 -0.16644263598E+04  0.16644263598E+04  0.00000000000E+00 0. -1.
        -24    2    1    2    0    0  0.12755903096E+03  0.29736786226E+03 -0.41421311827E+01  0.33028071233E+03  0.66100225444E+02 0.  0.
        254    2    1    2    0    0 -0.12755903096E+03 -0.29736786226E+03 -0.13438883046E+04  0.16505415715E+04  0.90197159171E+03 0.  0.
         23    2    4    4    0    0  0.89639830466E+02  0.25557732559E+03 -0.76234282584E+03  0.81424040596E+03  0.92009706111E+02 0.  0.
         23    2    4    4    0    0 -0.21719886143E+03 -0.55294518785E+03 -0.58154547874E+03  0.83630116556E+03  0.90998733579E+02 0.  0.
          1    1    3    3  502    0  0.15508313136E+02  0.37660423547E+02 -0.23053879130E+02  0.46800604921E+02  0.00000000000E+00 0. -1.
         -2    1    3    3    0  502  0.11205071782E+03  0.25970743871E+03  0.18911747947E+02  0.28348010741E+03  0.00000000000E+00 0.  1.
         11    1    5    5    0    0 -0.11543131005E+02  0.28561498978E+01 -0.17046024946E+02  0.20783850271E+02  0.00000000000E+00 0.  1.
        -11    1    5    5    0    0  0.10118296147E+03  0.25272117569E+03 -0.74529680090E+03  0.79345655569E+03  0.00000000000E+00 0. -1.
          2    1    6    6  503    0 -0.20116718852E+03 -0.51368640672E+03 -0.56793339039E+03  0.79176404194E+03  0.00000000000E+00 0. -1.
         -2    1    6    6    0  503 -0.16031672904E+02 -0.39258781125E+02 -0.13612088351E+02  0.44537123625E+02  0.00000000000E+00 0.  1.
<mgrwt>
<rscale>  0 0.14513686E+04</rscale>
<asrwt>0</asrwt>
<pdfrwt beam="1">  1        1 0.25606559E+00 0.14513686E+04</pdfrwt>
<pdfrwt beam="2">  1       -2 0.48676297E-01 0.14513686E+04</pdfrwt>
<totfact> 0.17172070E+01</totfact>
</mgrwt>
</event>
<event>
12    4  0.4207946E-008  0.1455035E+04  0.7818608E-02  0.8914917E-01
         -2   -1    0    0    0  501 -0.00000000000E+00  0.00000000000E+00  0.33024019615E+03  0.33024019615E+03  0.00000000000E+00 0.  1.
          1   -1    0    0  501    0  0.00000000000E+00 -0.00000000000E+00 -0.16027183496E+04  0.16027183496E+04  0.00000000000E+00 0. -1.
        -24    2    1    2    0    0 -0.29307777453E+03 -0.19100310281E+03 -0.75167791140E+03  0.83290270732E+03  0.79564251790E+02 0.  0.
        254    2    1    2    0    0  0.29307777453E+03  0.19100310281E+03 -0.52080024208E+03  0.11000558385E+04  0.90361119314E+03 0.  0.
         23    2    4    4    0    0  0.57222137734E+03  0.30125620490E+03 -0.34886456141E+03  0.74054209465E+03  0.92214456965E+02 0.  0.
         23    2    4    4    0    0 -0.27914360280E+03 -0.11025310209E+03 -0.17193568067E+03  0.35951374380E+03  0.98037524383E+02 0.  0.
          3    1    3    3  502    0 -0.21652378981E+03 -0.15508716366E+03 -0.48734251431E+03  0.55537132276E+03  0.00000000000E+00 0. -1.
         -4    1    3    3    0  502 -0.76553984721E+02 -0.35915939148E+02 -0.26433539709E+03  0.27753138456E+03  0.00000000000E+00 0.  1.
         11    1    5    5    0    0  0.40018499104E+03  0.20371909202E+03 -0.28861577667E+03  0.53380573438E+03  0.00000000000E+00 0. -1.
        -11    1    5    5    0    0  0.17203638629E+03  0.97537112878E+02 -0.60248784738E+02  0.20673636028E+03  0.00000000000E+00 0.  1.
          2    1    6    6  503    0 -0.27617942987E+03 -0.88758000752E+02 -0.14321407162E+03  0.32351712550E+03  0.00000000000E+00 0. -1.
         -2    1    6    6    0  503 -0.29641729349E+01 -0.21495101340E+02 -0.28721609053E+02  0.35996618305E+02  0.00000000000E+00 0.  1.
<mgrwt>
<rscale>  0 0.14550354E+04</rscale>
<asrwt>0</asrwt>
<pdfrwt beam="1">  1        1 0.24657206E+00 0.14550354E+04</pdfrwt>
<pdfrwt beam="2">  1       -2 0.50806183E-01 0.14550354E+04</pdfrwt>
<totfact> 0.17337513E+01</totfact>
</mgrwt>
</event>
<event>
12    4  0.4207946E-008  0.1490776E+04  0.7818608E-02  0.8890610E-01
          3   -1    0    0  501    0  0.00000000000E+00  0.00000000000E+00  0.10906944121E+04  0.10906944121E+04  0.00000000000E+00 0. -1.
         -4   -1    0    0    0  501 -0.00000000000E+00 -0.00000000000E+00 -0.50940354936E+03  0.50940354936E+03  0.00000000000E+00 0.  1.
        -24    2    1    2    0    0  0.16726536888E+03 -0.26216642711E+03  0.56139540784E+03  0.64669250814E+03  0.79608146595E+02 0.  0.
        254    2    1    2    0    0 -0.16726536888E+03  0.26216642711E+03  0.19895454895E+02  0.95340545331E+03  0.90104227989E+03 0.  0.
         23    2    4    4    0    0 -0.21546991987E+03  0.56280294424E+03  0.11838656253E+03  0.62068817947E+03  0.89799763532E+02 0.  0.
         23    2    4    4    0    0  0.48204550988E+02 -0.30063651713E+03 -0.98491107638E+02  0.33271727384E+03  0.91073002921E+02 0.  0.
          3    1    3    3  502    0  0.10408561664E+03 -0.21627847979E+03  0.45847032466E+03  0.51749901932E+03  0.00000000000E+00 0. -1.
         -4    1    3    3    0  502  0.63179752246E+02 -0.45887947327E+02  0.10292508318E+03  0.12919348882E+03  0.00000000000E+00 0.  1.
         11    1    5    5    0    0 -0.50315327493E+02  0.61476580137E+02 -0.13275049358E+01  0.79452906526E+02  0.00000000000E+00 0. -1.
        -11    1    5    5    0    0 -0.16515459238E+03  0.50132636410E+03  0.11971406747E+03  0.54123527294E+03  0.00000000000E+00 0.  1.
          4    1    6    6  503    0  0.21518887033E+02 -0.27744604139E+03 -0.69071196353E+02  0.28672320894E+03  0.00000000000E+00 0.  1.
         -4    1    6    6    0  503  0.26685663955E+02 -0.23190475741E+02 -0.29419911285E+02  0.45994064898E+02  0.00000000000E+00 0. -1.
<mgrwt>
<rscale>  0 0.14907764E+04</rscale>
<asrwt>0</asrwt>
<pdfrwt beam="1">  1        3 0.16779914E+00 0.14907764E+04</pdfrwt>
<pdfrwt beam="2">  1       -4 0.78369777E-01 0.14907764E+04</pdfrwt>
<totfact> 0.77486633E-01</totfact>
</mgrwt>
</event>
<event>
12    4  0.4207946E-008  0.1747809E+04  0.7818608E-02  0.8734557E-01
         -2   -1    0    0    0  501 -0.00000000000E+00  0.00000000000E+00  0.13356957801E+04  0.13356957801E+04  0.00000000000E+00 0.  1.
          1   -1    0    0  501    0  0.00000000000E+00 -0.00000000000E+00 -0.57176899059E+03  0.57176899059E+03  0.00000000000E+00 0. -1.
        -24    2    1    2    0    0 -0.13164659630E+03 -0.61733436466E+03  0.16152431568E+03  0.65599781029E+03  0.76226494347E+02 0.  0.
        254    2    1    2    0    0  0.13164659630E+03  0.61733436466E+03  0.60240247388E+03  0.12514669604E+04  0.89713336157E+03 0.  0.
         23    2    4    4    0    0  0.28128667036E+02  0.24974007291E+03 -0.21603914504E+03  0.34374579914E+03  0.91252048262E+02 0.  0.
         23    2    4    4    0    0  0.10351792927E+03  0.36759429175E+03  0.81844161892E+03  0.90772116131E+03  0.90936780819E+02 0.  0.
          3    1    3    3  502    0 -0.29538024865E+01 -0.14814189786E+03  0.21471059109E+02  0.14971891407E+03  0.00000000000E+00 0. -1.
         -4    1    3    3    0  502 -0.12869279382E+03 -0.46919246680E+03  0.14005325657E+03  0.50627889622E+03  0.00000000000E+00 0.  1.
         11    1    5    5    0    0 -0.11694906405E+02  0.14384201659E+03 -0.74087543215E+02  0.16222287333E+03  0.00000000000E+00 0.  1.
        -11    1    5    5    0    0  0.39823573441E+02  0.10589805631E+03 -0.14195160182E+03  0.18152292580E+03  0.00000000000E+00 0. -1.
          1    1    6    6  503    0  0.12042184225E+03  0.31124617940E+03  0.69335656130E+03  0.76949264154E+03  0.00000000000E+00 0. -1.
         -1    1    6    6    0  503 -0.16903912979E+02  0.56348112352E+02  0.12508505762E+03  0.13822851978E+03  0.00000000000E+00 0.  1.
<mgrwt>
<rscale>  0 0.17478094E+04</rscale>
<asrwt>0</asrwt>
<pdfrwt beam="1">  1        1 0.87964460E-01 0.17478094E+04</pdfrwt>
<pdfrwt beam="2">  1       -2 0.20549166E+00 0.17478094E+04</pdfrwt>
<totfact> 0.37258875E+00</totfact>
</mgrwt>
</event>
<event>
12    4  0.4207946E-008  0.1850987E+04  0.7818608E-02  0.8679646E-01
          1   -1    0    0  501    0  0.00000000000E+00  0.00000000000E+00  0.24464620564E+04  0.24464620564E+04  0.00000000000E+00 0. -1.
         -2   -1    0    0    0  501 -0.00000000000E+00 -0.00000000000E+00 -0.35011288187E+03  0.35011288187E+03  0.00000000000E+00 0.  1.
        -24    2    1    2    0    0  0.15269818491E+03  0.68719252563E+03  0.73209584113E+03  0.10187247435E+04  0.79281015827E+02 0.  0.
        254    2    1    2    0    0 -0.15269818491E+03 -0.68719252563E+03  0.13642533334E+04  0.17778501948E+04  0.89666819638E+03 0.  0.
         23    2    4    4    0    0 -0.50864587565E+03 -0.53208901418E+03  0.89562486090E+03  0.11629102027E+04  0.91525418678E+02 0.  0.
         23    2    4    4    0    0  0.35594769073E+03 -0.15510351145E+03  0.46862847254E+03  0.61493999210E+03  0.88219560212E+02 0.  0.
          1    1    3    3  502    0  0.79403053897E+02  0.39655134574E+03  0.36477943826E+03  0.54463001511E+03  0.00000000000E+00 0. -1.
         -2    1    3    3    0  502  0.73295131014E+02  0.29064117989E+03  0.36731640287E+03  0.47409472840E+03  0.00000000000E+00 0.  1.
         11    1    5    5    0    0 -0.35716699649E+03 -0.42428114235E+03  0.69915801407E+03  0.89241508267E+03  0.00000000000E+00 0. -1.
        -11    1    5    5    0    0 -0.15147887916E+03 -0.10780787183E+03  0.19646684683E+03  0.27049512003E+03  0.00000000000E+00 0.  1.
          1    1    6    6  503    0  0.27973920147E+03 -0.96695957237E+02  0.30352911131E+03  0.42395052825E+03  0.00000000000E+00 0. -1.
         -1    1    6    6    0  503  0.76208489263E+02 -0.58407554215E+02  0.16509936123E+03  0.19098946385E+03  0.00000000000E+00 0.  1.
<mgrwt>
<rscale>  0 0.18509866E+04</rscale>
<asrwt>0</asrwt>
<pdfrwt beam="1">  1        1 0.37637877E+00 0.18509866E+04</pdfrwt>
<pdfrwt beam="2">  1       -2 0.53863522E-01 0.18509866E+04</pdfrwt>
<totfact> 0.39563447E+00</totfact>
</mgrwt>
</event>
<event>
12    4  0.4207946E-008  0.1679112E+04  0.7818608E-02  0.8773368E-01
         -2   -1    0    0    0  501 -0.00000000000E+00  0.00000000000E+00  0.79212426340E+03  0.79212426340E+03  0.00000000000E+00 0.  1.
          1   -1    0    0  501    0  0.00000000000E+00 -0.00000000000E+00 -0.88982786861E+03  0.88982786861E+03  0.00000000000E+00 0. -1.
        -24    2    1    2    0    0 -0.46203850871E+03 -0.36607112858E+03 -0.13381221908E+03  0.60990375354E+03  0.81174034641E+02 0.  0.
        254    2    1    2    0    0  0.46203850871E+03  0.36607112858E+03  0.36108613870E+02  0.10720483785E+04  0.89470455408E+03 0.  0.
         23    2    4    4    0    0  0.62485232900E+03  0.41827604782E+03 -0.17965882315E+03  0.77834756512E+03  0.90290387989E+02 0.  0.
         23    2    4    4    0    0 -0.16281382028E+03 -0.52204919242E+02  0.21576743701E+03  0.29370081335E+03  0.10232735324E+03 0.  0.
          1    1    3    3  502    0 -0.46501423491E+03 -0.36591522337E+03 -0.13155981119E+03  0.60616843640E+03  0.00000000000E+00 0. -1.
         -2    1    3    3    0  502  0.29757262004E+01 -0.15590520784E+00 -0.22524078958E+01  0.37353171462E+01  0.00000000000E+00 0.  1.
         11    1    5    5    0    0  0.53901590938E+01 -0.29091371277E+01 -0.75891452084E+01  0.97525390990E+01  0.00000000000E+00 0.  1.
        -11    1    5    5    0    0  0.61946216990E+03  0.42118518495E+03 -0.17206967794E+03  0.76859502602E+03  0.00000000000E+00 0. -1.
          1    1    6    6  503    0 -0.91219584398E+02  0.24241617511E+02  0.10773024177E+03  0.14322874568E+03  0.00000000000E+00 0. -1.
         -1    1    6    6    0  503 -0.71594235887E+02 -0.76446536753E+02  0.10803719525E+03  0.15047206768E+03  0.00000000000E+00 0.  1.
<mgrwt>
<rscale>  0 0.16791120E+04</rscale>
<asrwt>0</asrwt>
<pdfrwt beam="1">  1        1 0.13689660E+00 0.16791120E+04</pdfrwt>
<pdfrwt beam="2">  1       -2 0.12186527E+00 0.16791120E+04</pdfrwt>
<totfact> 0.79175800E+00</totfact>
</mgrwt>
</event>
<event>
12    4  0.4207946E-008  0.1992930E+04  0.7818608E-02  0.8609933E-01
          1   -1    0    0  501    0  0.00000000000E+00  0.00000000000E+00  0.16645810563E+04  0.16645810563E+04  0.00000000000E+00 0. -1.
         -2   -1    0    0    0  501 -0.00000000000E+00 -0.00000000000E+00 -0.59651178103E+03  0.59651178103E+03  0.00000000000E+00 0.  1.
        -24    2    1    2    0    0 -0.41939083038E+03  0.27942192680E+03  0.10915466434E+04  0.12049187329E+04  0.79936202510E+02 0.  0.
        254    2    1    2    0    0  0.41939083038E+03 -0.27942192680E+03 -0.23477368102E+02  0.10561741044E+04  0.92789399732E+03 0.  0.
         23    2    4    4    0    0 -0.24926130507E+03 -0.14084619122E+03  0.16389455259E+03  0.34224707551E+03  0.91119638605E+02 0.  0.
         23    2    4    4    0    0  0.66865213545E+03 -0.13857573559E+03 -0.18737192069E+03  0.71392702892E+03  0.91020070477E+02 0.  0.
          1    1    3    3  502    0 -0.17480888194E+03  0.98605816680E+02  0.52176604826E+03  0.55903583195E+03  0.00000000000E+00 0. -1.
         -2    1    3    3    0  502 -0.24458194844E+03  0.18081611012E+03  0.56978059511E+03  0.64588290095E+03  0.00000000000E+00 0.  1.
         11    1    5    5    0    0 -0.19356474193E+03 -0.64881706033E+02  0.92894930134E+02  0.22429091185E+03  0.00000000000E+00 0. -1.
        -11    1    5    5    0    0 -0.55696563141E+02 -0.75964485183E+02  0.70999622457E+02  0.11795616365E+03  0.00000000000E+00 0.  1.
          1    1    6    6  503    0  0.50067017435E+03 -0.14262741758E+03 -0.15035736851E+03  0.54186764250E+03  0.00000000000E+00 0. -1.
         -1    1    6    6    0  503  0.16798196110E+03  0.40516819890E+01 -0.37014552181E+02  0.17205938642E+03  0.00000000000E+00 0.  1.
<mgrwt>
<rscale>  0 0.19929297E+04</rscale>
<asrwt>0</asrwt>
<pdfrwt beam="1">  1        1 0.25608939E+00 0.19929297E+04</pdfrwt>
<pdfrwt beam="2">  1       -2 0.91771044E-01 0.19929297E+04</pdfrwt>
<totfact> 0.41481954E+00</totfact>
</mgrwt>
</event>
<event>
12    4  0.5755587E-008  0.1401793E+04  0.7818608E-02  0.8952522E-01
         -2   -1    0    0    0  501 -0.00000000000E+00  0.00000000000E+00  0.26494245263E+03  0.26494245263E+03  0.00000000000E+00 0.  1.
          1   -1    0    0  501    0  0.00000000000E+00 -0.00000000000E+00 -0.18541991986E+04  0.18541991986E+04  0.00000000000E+00 0. -1.
        -24    2    1    2    0    0 -0.10351759422E+03 -0.32948948831E+02  0.12471900863E+03  0.18120523500E+03  0.74020136029E+02 0.  0.
        254    2    1    2    0    0  0.10351759422E+03  0.32948948831E+02 -0.17139757546E+04  0.19379364162E+04  0.89782132990E+03 0.  0.
         23    2    4    4    0    0 -0.12512512826E+03 -0.14362632445E+03 -0.14873585258E+02  0.21202982678E+03  0.91927172860E+02 0.  0.
         23    2    4    4    0    0  0.22864272248E+03  0.17657527328E+03 -0.16991021693E+04  0.17259065894E+04  0.91373146739E+02 0.  0.
          3    1    3    3  502    0  0.50049181448E+00  0.13933602428E+02  0.27900853195E+01  0.14219013495E+02  0.00000000000E+00 0. -1.
         -4    1    3    3    0  502 -0.10401808603E+03 -0.46882551260E+02  0.12192892331E+03  0.16698622151E+03  0.00000000000E+00 0.  1.
         11    1    5    5    0    0 -0.53657047938E+02 -0.62837033786E+01 -0.18669344569E+02  0.57158622693E+02  0.00000000000E+00 0. -1.
        -11    1    5    5    0    0 -0.71468080325E+02 -0.13734262107E+03  0.37957593106E+01  0.15487120409E+03  0.00000000000E+00 0.  1.
          4    1    6    6  503    0  0.79956564415E+01 -0.86635854534E+01 -0.32173941793E+02  0.34265883402E+02  0.00000000000E+00 0. -1.
         -4    1    6    6    0  503  0.22064706604E+03  0.18523885873E+03 -0.16669282275E+04  0.16916407060E+04  0.00000000000E+00 0.  1.
<mgrwt>
<rscale>  0 0.14017933E+04</rscale>
<asrwt>0</asrwt>
<pdfrwt beam="1">  1        1 0.28526141E+00 0.14017933E+04</pdfrwt>
<pdfrwt beam="2">  1       -2 0.40760378E-01 0.14017933E+04</pdfrwt>
<totfact> 0.18263931E+01</totfact>
</mgrwt>
</event>
<event>
12    4  0.4207946E-008  0.1981968E+04  0.7818608E-02  0.8615098E-01
          1   -1    0    0  501    0  0.00000000000E+00  0.00000000000E+00  0.16674075109E+04  0.16674075109E+04  0.00000000000E+00 0. -1.
         -2   -1    0    0    0  501 -0.00000000000E+00 -0.00000000000E+00 -0.58896803074E+03  0.58896803074E+03  0.00000000000E+00 0.  1.
        -24    2    1    2    0    0 -0.26283234403E+03  0.70205987092E+03  0.70362032039E+03  0.10311110862E+04  0.78355685149E+02 0.  0.
        254    2    1    2    0    0  0.26283234403E+03 -0.70205987092E+03  0.37481915981E+03  0.12252644555E+04  0.89376433128E+03 0.  0.
         23    2    4    4    0    0 -0.92139965031E+02 -0.77902576688E+03  0.21283733863E+03  0.81741328891E+03  0.86566931007E+02 0.  0.
         23    2    4    4    0    0  0.35497230907E+03  0.76965895962E+02  0.16198182118E+03  0.40785116657E+03  0.90417776669E+02 0.  0.
          3    1    3    3  502    0 -0.17892815865E+02  0.13149118200E+03  0.11740995247E+03  0.17718685263E+03  0.00000000000E+00 0. -1.
         -4    1    3    3    0  502 -0.24493952817E+03  0.57056868891E+03  0.58621036792E+03  0.85392423358E+03  0.00000000000E+00 0.  1.
         11    1    5    5    0    0 -0.47420805330E+02 -0.66128173891E+03  0.18689235532E+03  0.68881857079E+03  0.00000000000E+00 0. -1.
        -11    1    5    5    0    0 -0.44719159701E+02 -0.11774402797E+03  0.25944983310E+02  0.12859471811E+03  0.00000000000E+00 0.  1.
          2    1    6    6  503    0  0.13036221955E+02  0.19238224115E+02  0.27271921228E+02  0.35830294967E+02  0.00000000000E+00 0. -1.
         -2    1    6    6    0  503  0.34193608711E+03  0.57727671848E+02  0.13470989995E+03  0.37202087161E+03  0.00000000000E+00 0.  1.
<mgrwt>
<rscale>  0 0.19819684E+04</rscale>
<asrwt>0</asrwt>
<pdfrwt beam="1">  1        1 0.25652423E+00 0.19819684E+04</pdfrwt>
<pdfrwt beam="2">  1       -2 0.90610467E-01 0.19819684E+04</pdfrwt>
<totfact> 0.42573098E+00</totfact>
</mgrwt>
</event>
<event>
12    4  0.4207946E-008  0.1384668E+04  0.7818608E-02  0.8964992E-01
          1   -1    0    0  501    0  0.00000000000E+00  0.00000000000E+00  0.13666035661E+04  0.13666035661E+04  0.00000000000E+00 0. -1.
         -2   -1    0    0    0  501 -0.00000000000E+00 -0.00000000000E+00 -0.35074271303E+03  0.35074271303E+03  0.00000000000E+00 0.  1.
        -24    2    1    2    0    0 -0.20379175345E+03  0.11939629905E+03  0.80844920315E+03  0.84599342139E+03  0.79549984016E+02 0.  0.
        254    2    1    2    0    0  0.20379175345E+03 -0.11939629905E+03  0.20741164992E+03  0.87135285773E+03  0.81268053696E+03 0.  0.
         23    2    4    4    0    0 -0.10547966882E+03 -0.34695705630E+03 -0.83575523754E+02  0.38105741610E+03  0.81943436244E+02 0.  0.
         23    2    4    4    0    0  0.30927142228E+03  0.22756075725E+03  0.29098717368E+03  0.49029544163E+03  0.91013042820E+02 0.  0.
          1    1    3    3  502    0 -0.10139161187E+03  0.45807056927E+02  0.51005606476E+03  0.52204955188E+03  0.00000000000E+00 0. -1.
         -4    1    3    3    0  502 -0.10240014159E+03  0.73589242123E+02  0.29839313839E+03  0.32394386951E+03  0.00000000000E+00 0.  1.
         11    1    5    5    0    0 -0.11737522844E+03 -0.32835268522E+03 -0.71743513949E+02  0.35600500268E+03  0.00000000000E+00 0.  1.
        -11    1    5    5    0    0  0.11895559620E+02 -0.18604371083E+02 -0.11832009804E+02  0.25052413418E+02  0.00000000000E+00 0. -1.
          3    1    6    6  503    0  0.16279868490E+03  0.10285245125E+03  0.19950581308E+03  0.27728073858E+03  0.00000000000E+00 0. -1.
         -3    1    6    6    0  503  0.14647273738E+03  0.12470830600E+03  0.91481360593E+02  0.21301470305E+03  0.00000000000E+00 0.  1.
<mgrwt>
<rscale>  0 0.13846678E+04</rscale>
<asrwt>0</asrwt>
<pdfrwt beam="1">  1        1 0.21024670E+00 0.13846678E+04</pdfrwt>
<pdfrwt beam="2">  1       -2 0.53960418E-01 0.13846678E+04</pdfrwt>
<totfact> 0.22468443E+01</totfact>
</mgrwt>
</event>
<event>
12    4  0.4207946E-008  0.1608271E+04  0.7818608E-02  0.8815483E-01
          1   -1    0    0  501    0  0.00000000000E+00  0.00000000000E+00  0.28973643322E+03  0.28973643322E+03  0.00000000000E+00 0. -1.
         -2   -1    0    0    0  501 -0.00000000000E+00 -0.00000000000E+00 -0.22317998182E+04  0.22317998182E+04  0.00000000000E+00 0.  1.
        -24    2    1    2    0    0  0.46710210508E+03 -0.20554208584E+02 -0.21612402978E+03  0.52122444728E+03  0.79740053535E+02 0.  0.
        254    2    1    2    0    0 -0.46710210508E+03  0.20554208584E+02 -0.17259393552E+04  0.20003118041E+04  0.89653432943E+03 0.  0.
         23    2    4    4    0    0 -0.23548152492E+03  0.35017940674E+03 -0.14253247512E+04  0.14896833322E+04  0.97614642064E+02 0.  0.
         23    2    4    4    0    0 -0.23162058016E+03 -0.32962519816E+03 -0.30061460399E+03  0.51062847193E+03  0.89841147593E+02 0.  0.
          3    1    3    3  502    0  0.39217062310E+03 -0.20352963312E+02 -0.14709573826E+03  0.41934376942E+03  0.00000000000E+00 0. -1.
         -4    1    3    3    0  502  0.74931481976E+02 -0.20124527216E+00 -0.69028291522E+02  0.10188067786E+03  0.00000000000E+00 0.  1.
         11    1    5    5    0    0 -0.15518259177E+03  0.26302074087E+03 -0.11516210676E+04  0.11914246221E+04  0.00000000000E+00 0. -1.
        -11    1    5    5    0    0 -0.80298933152E+02  0.87158665877E+02 -0.27370368358E+03  0.29825871003E+03  0.00000000000E+00 0.  1.
          2    1    6    6  503    0 -0.22450674934E+03 -0.31111180363E+03 -0.30523118354E+03  0.49026514282E+03  0.00000000000E+00 0. -1.
         -2    1    6    6    0  503 -0.71138308210E+01 -0.18513394533E+02  0.46165795474E+01  0.20363329119E+02  0.00000000000E+00 0.  1.
<mgrwt>
<rscale>  0 0.16082708E+04</rscale>
<asrwt>0</asrwt>
<pdfrwt beam="1">  1        1 0.44574838E-01 0.16082708E+04</pdfrwt>
<pdfrwt beam="2">  1       -2 0.34335380E+00 0.16082708E+04</pdfrwt>
<totfact> 0.13234870E+00</totfact>
</mgrwt>
</event>
<event>
12    4  0.4207946E-008  0.1472078E+04  0.7818608E-02  0.8903236E-01
          1   -1    0    0  501    0  0.00000000000E+00  0.00000000000E+00  0.19504612799E+04  0.19504612799E+04  0.00000000000E+00 0. -1.
         -4   -1    0    0    0  501 -0.00000000000E+00 -0.00000000000E+00 -0.27775661029E+03  0.27775661029E+03  0.00000000000E+00 0.  1.
        -24    2    1    2    0    0  0.32094311818E+03  0.26709425444E+03  0.73949481145E+03  0.85302065710E+03  0.80298439655E+02 0.  0.
        254    2    1    2    0    0 -0.32094311818E+03 -0.26709425444E+03  0.93320985812E+03  0.13751972331E+04  0.91975157768E+03 0.  0.
         23    2    4    4    0    0 -0.31845560670E+03  0.19422705988E+03  0.79859162480E+03  0.88623551309E+03  0.92340008798E+02 0.  0.
         23    2    4    4    0    0 -0.24875114840E+01 -0.46132131432E+03  0.13461823332E+03  0.48896171997E+03  0.90210598562E+02 0.  0.
          1    1    3    3  502    0  0.16417624021E+03  0.12336492625E+03  0.28559317866E+03  0.35176157632E+03  0.00000000000E+00 0. -1.
         -2    1    3    3    0  502  0.15676687797E+03  0.14372932818E+03  0.45390163280E+03  0.50125908078E+03  0.00000000000E+00 0.  1.
         11    1    5    5    0    0  0.33988310452E+01  0.14819813815E+02  0.42408120614E+02  0.45051388746E+02  0.00000000000E+00 0.  1.
        -11    1    5    5    0    0 -0.32185443774E+03  0.17940724607E+03  0.75618350419E+03  0.84118412434E+03  0.00000000000E+00 0. -1.
          1    1    6    6  503    0  0.26007039106E+02 -0.41372239092E+03  0.12102686846E+03  0.43184497881E+03  0.00000000000E+00 0. -1.
         -1    1    6    6    0  503 -0.28494550590E+02 -0.47598923401E+02  0.13591364863E+02  0.57116741163E+02  0.00000000000E+00 0.  1.
<mgrwt>
<rscale>  0 0.14720781E+04</rscale>
<asrwt>0</asrwt>
<pdfrwt beam="1">  1        1 0.30007096E+00 0.14720781E+04</pdfrwt>
<pdfrwt beam="2">  1       -4 0.42731787E-01 0.14720781E+04</pdfrwt>
<totfact> 0.82407124E+00</totfact>
</mgrwt>
</event>
<event>
12    4  0.4207946E-008  0.3033767E+04  0.7818608E-02  0.8234154E-01
         -2   -1    0    0    0  501 -0.00000000000E+00  0.00000000000E+00  0.13530376281E+04  0.13530376281E+04  0.00000000000E+00 0.  1.
          1   -1    0    0  501    0  0.00000000000E+00 -0.00000000000E+00 -0.17005699554E+04  0.17005699554E+04  0.00000000000E+00 0. -1.
        -24    2    1    2    0    0  0.13413908942E+04  0.30696248546E+03 -0.10320308140E+03  0.13822747783E+04  0.80480980376E+02 0.  0.
        254    2    1    2    0    0 -0.13413908942E+04 -0.30696248546E+03 -0.24432924590E+03  0.16713328052E+04  0.91657027383E+03 0.  0.
         23    2    4    4    0    0 -0.74982135751E+01  0.17249547927E+03 -0.15320742781E+03  0.24807383869E+03  0.90869136302E+02 0.  0.
         23    2    4    4    0    0 -0.13338926806E+04 -0.47945796474E+03 -0.91121818098E+02  0.14232589665E+04  0.90627130037E+02 0.  0.
          3    1    3    3  502    0  0.36220690531E+03  0.71763016718E+02  0.63166937933E+01  0.36930160227E+03  0.00000000000E+00 0. -1.
         -4    1    3    3    0  502  0.97918398887E+03  0.23519946875E+03 -0.10951977519E+03  0.10129731760E+04  0.00000000000E+00 0.  1.
         11    1    5    5    0    0  0.18905247720E+02  0.45615116695E+02 -0.26905752791E+01  0.49450848908E+02  0.00000000000E+00 0. -1.
        -11    1    5    5    0    0 -0.26403461295E+02  0.12688036258E+03 -0.15051685253E+03  0.19862298978E+03  0.00000000000E+00 0.  1.
          1    1    6    6  503    0 -0.88605297667E+03 -0.33620012092E+03 -0.10021567819E+03  0.95297617018E+03  0.00000000000E+00 0. -1.
         -1    1    6    6    0  503 -0.44783970393E+03 -0.14325784382E+03  0.90938600885E+01  0.47028279633E+03  0.00000000000E+00 0.  1.
<mgrwt>
<rscale>  0 0.30337667E+04</rscale>
<asrwt>0</asrwt>
<pdfrwt beam="1">  1        1 0.26162615E+00 0.30337667E+04</pdfrwt>
<pdfrwt beam="2">  1       -2 0.20815964E+00 0.30337667E+04</pdfrwt>
<totfact> 0.41784719E-01</totfact>
</mgrwt>
</event>
<event>
12    4  0.4207946E-008  0.1802232E+04  0.7818608E-02  0.8705113E-01
         -2   -1    0    0    0  501 -0.00000000000E+00  0.00000000000E+00  0.43031927778E+03  0.43031927778E+03  0.00000000000E+00 0.  1.
          1   -1    0    0  501    0  0.00000000000E+00 -0.00000000000E+00 -0.18869952931E+04  0.18869952931E+04  0.00000000000E+00 0. -1.
        -24    2    1    2    0    0 -0.20460410294E+03 -0.64193122473E+03 -0.47464749423E+03  0.82789813356E+03  0.78654558283E+02 0.  0.
        254    2    1    2    0    0  0.20460410294E+03  0.64193122473E+03 -0.98202852105E+03  0.14894164373E+04  0.89445110056E+03 0.  0.
         23    2    4    4    0    0  0.53086587483E+03  0.44712542939E+03 -0.45977798053E+03  0.83733224930E+03  0.89385556272E+02 0.  0.
         23    2    4    4    0    0 -0.32626177189E+03  0.19480579534E+03 -0.52225054052E+03  0.65208418799E+03  0.89844974619E+02 0.  0.
          1    1    3    3  502    0 -0.14767194593E+03 -0.49132227597E+03 -0.39939570150E+03  0.65017036910E+03  0.00000000000E+00 0. -1.
         -2    1    3    3    0  502 -0.56932157010E+02 -0.15060894876E+03 -0.75251792731E+02  0.17772776445E+03  0.00000000000E+00 0.  1.
         11    1    5    5    0    0  0.45310932114E+03  0.35568327540E+03 -0.41166633599E+03  0.70801682289E+03  0.00000000000E+00 0. -1.
        -11    1    5    5    0    0  0.77756553684E+02  0.91442153991E+02 -0.48111644545E+02  0.12931542641E+03  0.00000000000E+00 0.  1.
          3    1    6    6  503    0 -0.30982929830E+03  0.18901024543E+03 -0.45184294642E+03  0.57955251289E+03  0.00000000000E+00 0. -1.
         -3    1    6    6    0  503 -0.16432473587E+02  0.57955499047E+01 -0.70407594093E+02  0.72531675100E+02  0.00000000000E+00 0.  1.
<mgrwt>
<rscale>  0 0.18022325E+04</rscale>
<asrwt>0</asrwt>
<pdfrwt beam="1">  1        1 0.29030697E+00 0.18022325E+04</pdfrwt>
<pdfrwt beam="2">  1       -2 0.66202966E-01 0.18022325E+04</pdfrwt>
<totfact> 0.61806705E+00</totfact>
</mgrwt>
</event>
<event>
12    4  0.4207946E-008  0.1358269E+04  0.7818608E-02  0.8984592E-01
         -2   -1    0    0    0  501 -0.00000000000E+00  0.00000000000E+00  0.94125790168E+03  0.94125790168E+03  0.00000000000E+00 0.  1.
          1   -1    0    0  501    0  0.00000000000E+00 -0.00000000000E+00 -0.49000793341E+03  0.49000793341E+03  0.00000000000E+00 0. -1.
        -24    2    1    2    0    0 -0.33779521888E+03 -0.14020725552E+03  0.30005471584E+03  0.47986359718E+03  0.80452190823E+02 0.  0.
        254    2    1    2    0    0  0.33779521888E+03  0.14020725552E+03  0.15119525243E+03  0.95140223791E+03  0.86518352362E+03 0.  0.
         23    2    4    4    0    0  0.47693516971E+03 -0.25496599318E+02 -0.20161892684E+03  0.52718294910E+03  0.95678824638E+02 0.  0.
         23    2    4    4    0    0 -0.13913995083E+03  0.16570385484E+03  0.35281417927E+03  0.42421928880E+03  0.93093858410E+02 0.  0.
          3    1    3    3  502    0 -0.10378981235E+03 -0.76100406594E+01  0.65278110829E+02  0.12284734274E+03  0.00000000000E+00 0. -1.
         -4    1    3    3    0  502 -0.23400540653E+03 -0.13259721486E+03  0.23477660501E+03  0.35701625444E+03  0.00000000000E+00 0.  1.
         11    1    5    5    0    0  0.34864435557E+03 -0.35038219637E+02 -0.10342733897E+03  0.36534610707E+03  0.00000000000E+00 0. -1.
        -11    1    5    5    0    0  0.12829081414E+03  0.95416203195E+01 -0.98191587871E+02  0.16183684204E+03  0.00000000000E+00 0.  1.
          2    1    6    6  503    0 -0.18863578658E+00  0.42128654210E+02  0.11407770696E+03  0.12160831515E+03  0.00000000000E+00 0.  1.
         -2    1    6    6    0  503 -0.13895131504E+03  0.12357520063E+03  0.23873647231E+03  0.30261097365E+03  0.00000000000E+00 0. -1.
<mgrwt>
<rscale>  0 0.13582693E+04</rscale>
<asrwt>0</asrwt>
<pdfrwt beam="1">  1        1 0.75385836E-01 0.13582693E+04</pdfrwt>
<pdfrwt beam="2">  1       -2 0.14480891E+00 0.13582693E+04</pdfrwt>
<totfact> 0.12808333E+01</totfact>
</mgrwt>
</event>
<event>
12    4  0.4207946E-008  0.1630176E+04  0.7818608E-02  0.8802221E-01
         -2   -1    0    0    0  501 -0.00000000000E+00  0.00000000000E+00  0.52143507379E+03  0.52143507379E+03  0.00000000000E+00 0.  1.
          1   -1    0    0  501    0  0.00000000000E+00 -0.00000000000E+00 -0.12741157775E+04  0.12741157775E+04  0.00000000000E+00 0. -1.
        -24    2    1    2    0    0  0.44390088959E+03  0.25254965047E+03 -0.55258733084E+03  0.75660237549E+03  0.79152199320E+02 0.  0.
        254    2    1    2    0    0 -0.44390088959E+03 -0.25254965047E+03 -0.20009337291E+03  0.10389484758E+04  0.88235324661E+03 0.  0.
         23    2    4    4    0    0  0.10041602672E+03  0.24145999389E+03 -0.79796350427E+02  0.28845876701E+03  0.91949418972E+02 0.  0.
         23    2    4    4    0    0 -0.54431691631E+03 -0.49400964437E+03 -0.12029702248E+03  0.75048970882E+03  0.91853118154E+02 0.  0.
          3    1    3    3  502    0  0.35679556301E+03  0.20442245638E+03 -0.48714366287E+03  0.63749553938E+03  0.00000000000E+00 0. -1.
         -4    1    3    3    0  502  0.87105326585E+02  0.48127194099E+02 -0.65443667970E+02  0.11910683611E+03  0.00000000000E+00 0.  1.
         11    1    5    5    0    0  0.44235225085E+02  0.11108873520E+03  0.10790169458E+02  0.12005786098E+03  0.00000000000E+00 0. -1.
        -11    1    5    5    0    0  0.56180801636E+02  0.13037125869E+03 -0.90586519884E+02  0.16840090602E+03  0.00000000000E+00 0.  1.
          3    1    6    6  503    0 -0.33844311787E+03 -0.26335951966E+03 -0.10189199731E+03  0.44077654173E+03  0.00000000000E+00 0. -1.
         -3    1    6    6    0  503 -0.20587379844E+03 -0.23065012471E+03 -0.18405025165E+02  0.30971316708E+03  0.00000000000E+00 0.  1.
<mgrwt>
<rscale>  0 0.16301763E+04</rscale>
<asrwt>0</asrwt>
<pdfrwt beam="1">  1        1 0.19601781E+00 0.16301763E+04</pdfrwt>
<pdfrwt beam="2">  1       -2 0.80220781E-01 0.16301763E+04</pdfrwt>
<totfact> 0.10889342E+01</totfact>
</mgrwt>
</event>
<event>
12    4  0.4207946E-008  0.1494457E+04  0.7818608E-02  0.8888147E-01
         -2   -1    0    0    0  501 -0.00000000000E+00  0.00000000000E+00  0.10443261409E+04  0.10443261409E+04  0.00000000000E+00 0.  1.
          1   -1    0    0  501    0  0.00000000000E+00 -0.00000000000E+00 -0.53465162003E+03  0.53465162003E+03  0.00000000000E+00 0. -1.
        -24    2    1    2    0    0  0.20571412360E+03  0.34264263849E+03  0.42683930795E+03  0.58943183204E+03  0.74268509152E+02 0.  0.
        254    2    1    2    0    0 -0.20571412360E+03 -0.34264263849E+03  0.82835212954E+02  0.98954592893E+03  0.90145282439E+03 0.  0.
         23    2    4    4    0    0  0.11377925238E+03 -0.53565349268E+03 -0.10007415959E+03  0.56487246605E+03  0.95894123870E+02 0.  0.
         23    2    4    4    0    0 -0.31949337598E+03  0.19301085419E+03  0.18290937254E+03  0.42467346289E+03  0.86962660875E+02 0.  0.
          3    1    3    3  502    0  0.36444940301E+02  0.38403456347E+02  0.27587750097E+02  0.59700444625E+02  0.00000000000E+00 0. -1.
         -4    1    3    3    0  502  0.16926918330E+03  0.30423918214E+03  0.39925155785E+03  0.52973138742E+03  0.00000000000E+00 0.  1.
         11    1    5    5    0    0  0.69730580010E+02 -0.33765804971E+03 -0.15560653791E+02  0.34513395409E+03  0.00000000000E+00 0. -1.
        -11    1    5    5    0    0  0.44048672366E+02 -0.19799544297E+03 -0.84513505800E+02  0.21973851195E+03  0.00000000000E+00 0.  1.
          3    1    6    6  503    0 -0.61328220658E+02  0.35657858311E+02  0.76060200075E+02  0.10400859361E+03  0.00000000000E+00 0. -1.
         -3    1    6    6    0  503 -0.25816515532E+03  0.15735299588E+03  0.10684917247E+03  0.32066486928E+03  0.00000000000E+00 0.  1.
<mgrwt>
<rscale>  0 0.14944573E+04</rscale>
<asrwt>0</asrwt>
<pdfrwt beam="1">  1        1 0.82254096E-01 0.14944573E+04</pdfrwt>
<pdfrwt beam="2">  1       -2 0.16066556E+00 0.14944573E+04</pdfrwt>
<totfact> 0.85045412E+00</totfact>
</mgrwt>
</event>
<event>
12    4  0.4207946E-008  0.2072579E+04  0.7818608E-02  0.8573420E-01
          1   -1    0    0  501    0  0.00000000000E+00  0.00000000000E+00  0.18065015531E+04  0.18065015531E+04  0.00000000000E+00 0. -1.
         -2   -1    0    0    0  501 -0.00000000000E+00 -0.00000000000E+00 -0.59446185655E+03  0.59446185655E+03  0.00000000000E+00 0.  1.
        -24    2    1    2    0    0 -0.81697243082E+02  0.44528548737E+03  0.13130774688E+04  0.13913392874E+04  0.81847227934E+02 0.  0.
        254    2    1    2    0    0  0.81697243082E+02 -0.44528548737E+03 -0.10103777232E+03  0.10096241222E+04  0.89676007490E+03 0.  0.
         23    2    4    4    0    0  0.80069119436E+02  0.17383390752E+03  0.22224372134E+03  0.30533885469E+03  0.84913209908E+02 0.  0.
         23    2    4    4    0    0  0.16281236459E+01 -0.61911939488E+03 -0.32328149366E+03  0.70428526753E+03  0.90528106183E+02 0.  0.
          1    1    3    3  502    0 -0.59400089882E+02  0.21006748670E+03  0.52422427863E+03  0.56786249564E+03  0.00000000000E+00 0. -1.
         -2    1    3    3    0  502 -0.22297153200E+02  0.23521800066E+03  0.78885319020E+03  0.82347679175E+03  0.00000000000E+00 0.  1.
         11    1    5    5    0    0  0.91898788331E+02  0.15972034547E+03  0.21970163731E+03  0.28674864514E+03  0.00000000000E+00 0. -1.
        -11    1    5    5    0    0 -0.11829668895E+02  0.14113562046E+02  0.25420840328E+01  0.18590209547E+02  0.00000000000E+00 0.  1.
          2    1    6    6  503    0 -0.10247907177E+02 -0.61135107086E+03 -0.31755776519E+03  0.68898337112E+03  0.00000000000E+00 0. -1.
         -2    1    6    6    0  503  0.11876030823E+02 -0.77683240261E+01 -0.57237284618E+01  0.15301896411E+02  0.00000000000E+00 0.  1.
<mgrwt>
<rscale>  0 0.20725793E+04</rscale>
<asrwt>0</asrwt>
<pdfrwt beam="1">  1        1 0.27792331E+00 0.20725793E+04</pdfrwt>
<pdfrwt beam="2">  1       -2 0.91455671E-01 0.20725793E+04</pdfrwt>
<totfact> 0.33242034E+00</totfact>
</mgrwt>
</event>
<event>
12    4  0.4207946E-008  0.1173856E+04  0.7818608E-02  0.9136053E-01
         -2   -1    0    0    0  501 -0.00000000000E+00  0.00000000000E+00  0.42282805613E+03  0.42282805613E+03  0.00000000000E+00 0.  1.
          1   -1    0    0  501    0  0.00000000000E+00 -0.00000000000E+00 -0.81471593350E+03  0.81471593350E+03  0.00000000000E+00 0. -1.
        -24    2    1    2    0    0 -0.17753942601E+02 -0.20607619627E+03  0.59806032899E+02  0.22905741344E+03  0.78153284866E+02 0.  0.
        254    2    1    2    0    0  0.17753942601E+02  0.20607619627E+03 -0.45169391027E+03  0.10084865762E+04  0.87763043739E+03 0.  0.
         23    2    4    4    0    0 -0.39466814052E+03 -0.29542131309E+02 -0.28739651328E+03  0.49769674609E+03  0.92030519714E+02 0.  0.
         23    2    4    4    0    0  0.41242208312E+03  0.23561832758E+03 -0.16429739699E+03  0.51078983010E+03  0.91129824660E+02 0.  0.
          1    1    3    3  502    0  0.28818994651E+02 -0.11330112635E+03  0.38497574274E+02  0.12308429189E+03  0.00000000000E+00 0. -1.
         -2    1    3    3    0  502 -0.46572937253E+02 -0.92775069923E+02  0.21308458625E+02  0.10597312156E+03  0.00000000000E+00 0.  1.
         11    1    5    5    0    0 -0.36650994607E+03 -0.21974288776E+01 -0.26704491305E+03  0.45348357726E+03  0.00000000000E+00 0. -1.
        -11    1    5    5    0    0 -0.28158194449E+02 -0.27344702431E+02 -0.20351600233E+02  0.44213168827E+02  0.00000000000E+00 0.  1.
          4    1    6    6  503    0  0.24093018917E+03  0.17235223538E+03 -0.13548415107E+03  0.32574315692E+03  0.00000000000E+00 0. -1.
         -4    1    6    6    0  503  0.17149189395E+03  0.63266092199E+02 -0.28813245923E+02  0.18504667318E+03  0.00000000000E+00 0.  1.
<mgrwt>
<rscale>  0 0.11738565E+04</rscale>
<asrwt>0</asrwt>
<pdfrwt beam="1">  1        1 0.12534091E+00 0.11738565E+04</pdfrwt>
<pdfrwt beam="2">  1       -2 0.65050470E-01 0.11738565E+04</pdfrwt>
<totfact> 0.40657790E+01</totfact>
</mgrwt>
</event>
<event>
12    4  0.4207946E-008  0.1708494E+04  0.7818608E-02  0.8756535E-01
          1   -1    0    0  501    0  0.00000000000E+00  0.00000000000E+00  0.11839057166E+04  0.11839057166E+04  0.00000000000E+00 0. -1.
         -2   -1    0    0    0  501 -0.00000000000E+00 -0.00000000000E+00 -0.61638156761E+03  0.61638156761E+03  0.00000000000E+00 0.  1.
        -24    2    1    2    0    0  0.22740285069E+03  0.52965671407E+02  0.80257828230E+03  0.83971908343E+03  0.80491123813E+02 0.  0.
        254    2    1    2    0    0 -0.22740285069E+03 -0.52965671407E+02 -0.23505413331E+03  0.96056820078E+03  0.90162265051E+03 0.  0.
         23    2    4    4    0    0 -0.22554906297E+03  0.36103282454E+03  0.65838610551E+02  0.44046207331E+03  0.91951265248E+02 0.  0.
         23    2    4    4    0    0 -0.18537877225E+01 -0.41399849595E+03 -0.30089274386E+03  0.52010612747E+03  0.92605341885E+02 0.  0.
          1    1    3    3  502    0  0.68812143673E+02  0.10617599053E+02  0.13080215706E+03  0.14817911060E+03  0.00000000000E+00 0. -1.
         -2    1    3    3    0  502  0.15859070702E+03  0.42348072355E+02  0.67177612524E+03  0.69153997283E+03  0.00000000000E+00 0.  1.
         11    1    5    5    0    0 -0.16376016836E+03  0.25523445019E+03  0.88416817041E+02  0.31587901298E+03  0.00000000000E+00 0. -1.
        -11    1    5    5    0    0 -0.61788894606E+02  0.10579837436E+03 -0.22578206490E+02  0.12458306033E+03  0.00000000000E+00 0.  1.
          3    1    6    6  503    0 -0.44139285492E+02 -0.26728474107E+03 -0.20604869573E+03  0.34036080024E+03  0.00000000000E+00 0. -1.
         -3    1    6    6    0  503  0.42285497769E+02 -0.14671375488E+03 -0.94844048129E+02  0.17974532722E+03  0.00000000000E+00 0.  1.
<mgrwt>
<rscale>  0 0.17084937E+04</rscale>
<asrwt>0</asrwt>
<pdfrwt beam="1">  1        1 0.18213934E+00 0.17084937E+04</pdfrwt>
<pdfrwt beam="2">  1       -2 0.94827934E-01 0.17084937E+04</pdfrwt>
<totfact> 0.85717162E+00</totfact>
</mgrwt>
</event>
<event>
12    4  0.4207946E-008  0.1931097E+04  0.7818608E-02  0.8639530E-01
         -2   -1    0    0    0  501 -0.00000000000E+00  0.00000000000E+00  0.32988820820E+03  0.32988820820E+03  0.00000000000E+00 0.  1.
          1   -1    0    0  501    0  0.00000000000E+00 -0.00000000000E+00 -0.28260596611E+04  0.28260596611E+04  0.00000000000E+00 0. -1.
        -24    2    1    2    0    0  0.62763666286E+03  0.37445079279E+03 -0.69894530313E+03  0.10144961473E+04  0.80849980800E+02 0.  0.
        254    2    1    2    0    0 -0.62763666286E+03 -0.37445079279E+03 -0.17972261498E+04  0.21414517220E+04  0.90645047702E+03 0.  0.
         23    2    4    4    0    0 -0.49611177706E+03 -0.39966227322E+03 -0.45234487317E+03  0.78688774227E+03  0.93378834158E+02 0.  0.
         23    2    4    4    0    0 -0.13152488580E+03  0.25211480431E+02 -0.13448812766E+04  0.13545639797E+04  0.90573244482E+02 0.  0.
          3    1    3    3  502    0  0.30050474782E+03  0.16208970687E+03 -0.27471381029E+03  0.43822808456E+03  0.00000000000E+00 0. -1.
         -4    1    3    3    0  502  0.32713191505E+03  0.21236108592E+03 -0.42423149284E+03  0.57626806277E+03  0.00000000000E+00 0.  1.
         11    1    5    5    0    0 -0.48436093454E+03 -0.36756398870E+03 -0.41443457601E+03  0.73584293058E+03  0.00000000000E+00 0. -1.
        -11    1    5    5    0    0 -0.11750842529E+02 -0.32098284518E+02 -0.37910297161E+02  0.51044811686E+02  0.00000000000E+00 0.  1.
          4    1    6    6  503    0 -0.14086838747E+03  0.13854678812E+02 -0.12901363199E+04  0.12978781062E+04  0.00000000000E+00 0. -1.
         -4    1    6    6    0  503  0.93435016696E+01  0.11356801619E+02 -0.54744956711E+02  0.56685873476E+02  0.00000000000E+00 0.  1.
<mgrwt>
<rscale>  0 0.19310968E+04</rscale>
<asrwt>0</asrwt>
<pdfrwt beam="1">  1        1 0.43477841E+00 0.19310968E+04</pdfrwt>
<pdfrwt beam="2">  1       -2 0.50752032E-01 0.19310968E+04</pdfrwt>
<totfact> 0.24060859E+00</totfact>
</mgrwt>
</event>
<event>
12    4  0.4207946E-008  0.1552123E+04  0.7818608E-02  0.8850513E-01
         -2   -1    0    0    0  501 -0.00000000000E+00  0.00000000000E+00  0.21728239156E+03  0.21728239156E+03  0.00000000000E+00 0.  1.
          1   -1    0    0  501    0  0.00000000000E+00 -0.00000000000E+00 -0.27718377372E+04  0.27718377372E+04  0.00000000000E+00 0. -1.
        -24    2    1    2    0    0 -0.16614908057E+03 -0.49194056575E+03 -0.67569503241E+03  0.85656749860E+03  0.86793234876E+02 0.  0.
        254    2    1    2    0    0  0.16614908057E+03  0.49194056575E+03 -0.18788603132E+04  0.21325526302E+04  0.86490092298E+03 0.  0.
         23    2    4    4    0    0  0.23019237308E+03  0.64811348176E+03 -0.90728293760E+03  0.11422321699E+04  0.92154149532E+02 0.  0.
         23    2    4    4    0    0 -0.64043292509E+02 -0.15617291600E+03 -0.97157737565E+03  0.99032046026E+03  0.90997220448E+02 0.  0.
          3    1    3    3  502    0 -0.13512072761E+03 -0.46640649875E+03 -0.63488474620E+03  0.79929423497E+03  0.00000000000E+00 0. -1.
         -4    1    3    3    0  502 -0.31028352967E+02 -0.25534067005E+02 -0.40810286213E+02  0.57273263626E+02  0.00000000000E+00 0.  1.
         11    1    5    5    0    0  0.92827652003E+02  0.29351937158E+03 -0.33337249229E+03  0.45377066133E+03  0.00000000000E+00 0. -1.
        -11    1    5    5    0    0  0.13736472108E+03  0.35459411017E+03 -0.57391044531E+03  0.68846150859E+03  0.00000000000E+00 0.  1.
          4    1    6    6  503    0  0.14943800306E+02 -0.48339721915E+02 -0.40713247829E+03  0.41026442785E+03  0.00000000000E+00 0. -1.
         -4    1    6    6    0  503 -0.78987092815E+02 -0.10783319409E+03 -0.56444489736E+03  0.58005603241E+03  0.00000000000E+00 0.  1.
<mgrwt>
<rscale>  0 0.15521231E+04</rscale>
<asrwt>0</asrwt>
<pdfrwt beam="1">  1        1 0.42643653E+00 0.15521231E+04</pdfrwt>
<pdfrwt beam="2">  1       -2 0.33428064E-01 0.15521231E+04</pdfrwt>
<totfact> 0.61983001E+00</totfact>
</mgrwt>
</event>
<event>
12    4  0.4207946E-008  0.1572579E+04  0.7818608E-02  0.8837573E-01
         -2   -1    0    0    0  501 -0.00000000000E+00  0.00000000000E+00  0.11438660860E+04  0.11438660860E+04  0.00000000000E+00 0.  1.
          1   -1    0    0  501    0  0.00000000000E+00 -0.00000000000E+00 -0.54049274212E+03  0.54049274212E+03  0.00000000000E+00 0. -1.
        -24    2    1    2    0    0  0.29798523025E+02  0.16426253148E+03 -0.33111734959E+03  0.37951476376E+03  0.80762772922E+02 0.  0.
        254    2    1    2    0    0 -0.29798523025E+02 -0.16426253148E+03  0.93449069343E+03  0.13048440643E+04  0.89525138641E+03 0.  0.
         23    2    4    4    0    0  0.29679185317E+03 -0.39297036243E+03  0.53904018149E+03  0.73589397503E+03  0.92002800865E+02 0.  0.
         23    2    4    4    0    0 -0.32659037620E+03  0.22870783095E+03  0.39545051194E+03  0.56895008929E+03  0.91403232689E+02 0.  0.
          1    1    3    3  502    0 -0.14378273471E+02  0.12616157914E+03 -0.22001585217E+03  0.25402845117E+03  0.00000000000E+00 0. -1.
         -2    1    3    3    0  502  0.44176796496E+02  0.38100952338E+02 -0.11110149742E+03  0.12548631259E+03  0.00000000000E+00 0.  1.
         11    1    5    5    0    0  0.23449014515E+03 -0.24124017917E+03  0.37799597492E+03  0.50602708354E+03  0.00000000000E+00 0.  1.
        -11    1    5    5    0    0  0.62301708021E+02 -0.15173018326E+03  0.16104420657E+03  0.22986689149E+03  0.00000000000E+00 0. -1.
          1    1    6    6  503    0 -0.14031934009E+03  0.45983309391E+02  0.13009704700E+03  0.19679741763E+03  0.00000000000E+00 0. -1.
         -1    1    6    6    0  503 -0.18627103611E+03  0.18272452156E+03  0.26535346493E+03  0.37215267166E+03  0.00000000000E+00 0.  1.
<mgrwt>
<rscale>  0 0.15725792E+04</rscale>
<asrwt>0</asrwt>
<pdfrwt beam="1">  1        1 0.83152730E-01 0.15725792E+04</pdfrwt>
<pdfrwt beam="2">  1       -2 0.17597940E+00 0.15725792E+04</pdfrwt>
<totfact> 0.64631072E+00</totfact>
</mgrwt>
</event>
<event>
12    4  0.4207946E-008  0.1443659E+04  0.7818608E-02  0.8922808E-01
          3   -1    0    0  501    0  0.00000000000E+00  0.00000000000E+00  0.63289109740E+03  0.63289109740E+03  0.00000000000E+00 0. -1.
         -4   -1    0    0    0  501 -0.00000000000E+00 -0.00000000000E+00 -0.82326632063E+03  0.82326632063E+03  0.00000000000E+00 0.  1.
        -24    2    1    2    0    0  0.31422395211E+03  0.11578736727E+03  0.25604437628E+03  0.43189387214E+03  0.93969078285E+02 0.  0.
        254    2    1    2    0    0 -0.31422395211E+03 -0.11578736727E+03 -0.44641959951E+03  0.10242635459E+04  0.85888412845E+03 0.  0.
         23    2    4    4    0    0 -0.42548656019E+03  0.25736769324E+03 -0.34496469223E+03  0.61209456412E+03  0.91554214090E+02 0.  0.
         23    2    4    4    0    0  0.11126260808E+03 -0.37315506052E+03 -0.10145490728E+03  0.41216898176E+03  0.89253034522E+02 0.  0.
          3    1    3    3  502    0  0.31293467343E+03  0.97544900576E+02  0.25121346941E+03  0.41297860075E+03  0.00000000000E+00 0. -1.
         -4    1    3    3    0  502  0.12892786785E+01  0.18242466698E+02  0.48309068612E+01  0.18915271392E+02  0.00000000000E+00 0.  1.
         11    1    5    5    0    0 -0.31066064872E+03  0.23263929052E+03 -0.26092358597E+03  0.46766675729E+03  0.00000000000E+00 0.  1.
        -11    1    5    5    0    0 -0.11482591146E+03  0.24728402721E+02 -0.84041106255E+02  0.14442780683E+03  0.00000000000E+00 0. -1.
          1    1    6    6  503    0 -0.68613918846E+01 -0.11884586607E+03 -0.27587244155E+02  0.12219850499E+03  0.00000000000E+00 0. -1.
         -1    1    6    6    0  503  0.11812399997E+03 -0.25430919444E+03 -0.73867663123E+02  0.28997047677E+03  0.00000000000E+00 0.  1.
<mgrwt>
<rscale>  0 0.14436591E+04</rscale>
<asrwt>0</asrwt>
<pdfrwt beam="1">  1        3 0.97367861E-01 0.14436591E+04</pdfrwt>
<pdfrwt beam="2">  1       -4 0.12665636E+00 0.14436591E+04</pdfrwt>
<totfact> 0.95537713E-01</totfact>
</mgrwt>
</event>
<event>
12    4  0.4207946E-008  0.3137872E+04  0.7818608E-02  0.8205420E-01
         -2   -1    0    0    0  501 -0.00000000000E+00  0.00000000000E+00  0.20755254383E+04  0.20755254383E+04  0.00000000000E+00 0.  1.
          1   -1    0    0  501    0  0.00000000000E+00 -0.00000000000E+00 -0.11859939156E+04  0.11859939156E+04  0.00000000000E+00 0. -1.
        -24    2    1    2    0    0  0.69262973573E+03  0.67224140927E+03  0.15128041327E+04  0.17961318463E+04  0.76608107739E+02 0.  0.
        254    2    1    2    0    0 -0.69262973573E+03 -0.67224140927E+03 -0.62327261000E+03  0.14653875076E+04  0.90953138364E+03 0.  0.
         23    2    4    4    0    0 -0.62279923452E+03 -0.36972166556E+03 -0.81173994298E+03  0.10916234365E+04  0.90260708506E+02 0.  0.
         23    2    4    4    0    0 -0.69830501215E+02 -0.30251974370E+03  0.18846733298E+03  0.37376407111E+03  0.88233502831E+02 0.  0.
          3    1    3    3  502    0  0.91722853347E+02  0.57942946235E+02  0.15322944109E+03  0.18774911042E+03  0.00000000000E+00 0. -1.
         -4    1    3    3    0  502  0.60090688238E+03  0.61429846303E+03  0.13595746916E+04  0.16083827359E+04  0.00000000000E+00 0.  1.
         11    1    5    5    0    0 -0.18401055732E+03 -0.90622284189E+02 -0.28785717673E+03  0.35346009363E+03  0.00000000000E+00 0. -1.
        -11    1    5    5    0    0 -0.43878867720E+03 -0.27909938138E+03 -0.52388276626E+03  0.73816334283E+03  0.00000000000E+00 0.  1.
          2    1    6    6  503    0  0.19209384012E+02 -0.88045775262E+02  0.61454259194E+02  0.10907650961E+03  0.00000000000E+00 0. -1.
         -2    1    6    6    0  503 -0.89039885228E+02 -0.21447396844E+03  0.12701307379E+03  0.26468756150E+03  0.00000000000E+00 0.  1.
<mgrwt>
<rscale>  0 0.31378722E+04</rscale>
<asrwt>0</asrwt>
<pdfrwt beam="1">  1        1 0.18246060E+00 0.31378722E+04</pdfrwt>
<pdfrwt beam="2">  1       -2 0.31931161E+00 0.31378722E+04</pdfrwt>
<totfact> 0.19529372E-01</totfact>
</mgrwt>
</event>
<event>
12    4  0.4207946E-008  0.1823348E+04  0.7818608E-02  0.8693981E-01
          1   -1    0    0  501    0  0.00000000000E+00  0.00000000000E+00  0.72813666621E+03  0.72813666621E+03  0.00000000000E+00 0. -1.
         -2   -1    0    0    0  501 -0.00000000000E+00 -0.00000000000E+00 -0.11414748728E+04  0.11414748728E+04  0.00000000000E+00 0.  1.
        -24    2    1    2    0    0 -0.23476109531E+03 -0.25029058459E+02 -0.83210139624E+03  0.86841164914E+03  0.77503761743E+02 0.  0.
        254    2    1    2    0    0  0.23476109531E+03  0.25029058459E+02  0.41876318961E+03  0.10011998899E+04  0.87823651994E+03 0.  0.
         23    2    4    4    0    0  0.31007581447E+03  0.40955841417E+02  0.65766879395E+03  0.73428352130E+03  0.93913020731E+02 0.  0.
         23    2    4    4    0    0 -0.75314719153E+02 -0.15926782958E+02 -0.23890560433E+03  0.26691636862E+03  0.90788163972E+02 0.  0.
          1    1    3    3  502    0 -0.57537804108E+02 -0.31716865912E+02 -0.31391001421E+03  0.32071179509E+03  0.00000000000E+00 0. -1.
         -2    1    3    3    0  502 -0.17722329120E+03  0.66878074521E+01 -0.51819138203E+03  0.54769985405E+03  0.00000000000E+00 0.  1.
         11    1    5    5    0    0  0.24131198440E+02 -0.74905053368E+00  0.13416972258E+03  0.13632457692E+03  0.00000000000E+00 0. -1.
        -11    1    5    5    0    0  0.28594461603E+03  0.41704891951E+02  0.52349907136E+03  0.59795894438E+03  0.00000000000E+00 0.  1.
          2    1    6    6  503    0 -0.49307957564E+02 -0.14329712471E+02 -0.23503028322E+03  0.24057399977E+03  0.00000000000E+00 0.  1.
         -2    1    6    6    0  503 -0.26006761590E+02 -0.15970704863E+01 -0.38753211174E+01  0.26342368844E+02  0.00000000000E+00 0. -1.
<mgrwt>
<rscale>  0 0.18233482E+04</rscale>
<asrwt>0</asrwt>
<pdfrwt beam="1">  1        1 0.11202103E+00 0.18233482E+04</pdfrwt>
<pdfrwt beam="2">  1       -2 0.17561152E+00 0.18233482E+04</pdfrwt>
<totfact> 0.41126240E+00</totfact>
</mgrwt>
</event>
<event>
12    4  0.4207946E-008  0.1493936E+04  0.7818608E-02  0.8888496E-01
         -2   -1    0    0    0  501 -0.00000000000E+00  0.00000000000E+00  0.91041955485E+03  0.91041955485E+03  0.00000000000E+00 0.  1.
          1   -1    0    0  501    0  0.00000000000E+00 -0.00000000000E+00 -0.61286130467E+03  0.61286130467E+03  0.00000000000E+00 0. -1.
        -24    2    1    2    0    0  0.27924645036E+03 -0.32502509691E+03  0.30740951126E+03  0.53345389190E+03  0.80327787903E+02 0.  0.
        254    2    1    2    0    0 -0.27924645036E+03  0.32502509691E+03 -0.98512610768E+01  0.98982696762E+03  0.89221100914E+03 0.  0.
         23    2    4    4    0    0 -0.26363825567E+03  0.54012564185E+03  0.23354174313E+03  0.65181725004E+03  0.95305523561E+02 0.  0.
         23    2    4    4    0    0 -0.15608194684E+02 -0.21510054494E+03 -0.24339300421E+03  0.33800971758E+03  0.92187604959E+02 0.  0.
          1    1    3    3  502    0 -0.44296593535E+00 -0.24886285237E+02  0.10419064336E+02  0.26982963391E+02  0.00000000000E+00 0. -1.
         -2    1    3    3    0  502  0.27968941629E+03 -0.30013881167E+03  0.29699044692E+03  0.50647092850E+03  0.00000000000E+00 0.  1.
         11    1    5    5    0    0 -0.25420157671E+03  0.54103496310E+03  0.22400324004E+03  0.63836879971E+03  0.00000000000E+00 0.  1.
        -11    1    5    5    0    0 -0.94366789628E+01 -0.90932124603E+00  0.95385030890E+01  0.13448450325E+02  0.00000000000E+00 0. -1.
          1    1    6    6  503    0 -0.25524736878E+02 -0.16296882104E+02 -0.60669489664E+02  0.67807724745E+02  0.00000000000E+00 0. -1.
         -1    1    6    6    0  503  0.99165421938E+01 -0.19880366284E+03 -0.18272351454E+03  0.27020199284E+03  0.00000000000E+00 0.  1.
<mgrwt>
<rscale>  0 0.14939356E+04</rscale>
<asrwt>0</asrwt>
<pdfrwt beam="1">  1        1 0.94286354E-01 0.14939356E+04</pdfrwt>
<pdfrwt beam="2">  1       -2 0.14006455E+00 0.14939356E+04</pdfrwt>
<totfact> 0.10085062E+01</totfact>
</mgrwt>
</event>
<event>
12    4  0.4207946E-008  0.3720502E+04  0.7818608E-02  0.8063433E-01
         -2   -1    0    0    0  501 -0.00000000000E+00  0.00000000000E+00  0.13434169872E+04  0.13434169872E+04  0.00000000000E+00 0.  1.
          1   -1    0    0  501    0  0.00000000000E+00 -0.00000000000E+00 -0.25759195101E+04  0.25759195101E+04  0.00000000000E+00 0. -1.
        -24    2    1    2    0    0 -0.11403060680E+04  0.54107356186E+03 -0.18610895198E+04  0.22498292557E+04  0.70844554740E+02 0.  0.
        254    2    1    2    0    0  0.11403060680E+04 -0.54107356186E+03  0.62858699680E+03  0.16695072416E+04  0.89390955308E+03 0.  0.
         23    2    4    4    0    0  0.24269303605E+03 -0.47475547189E+03 -0.43497644066E+02  0.54260095066E+03  0.90725292924E+02 0.  0.
         23    2    4    4    0    0  0.89761303199E+03 -0.66318089969E+02  0.67208464086E+03  0.11269062910E+04  0.90070971193E+02 0.  0.
          3    1    3    3  502    0 -0.11237943237E+04  0.52372343640E+03 -0.18179508448E+04  0.22004874901E+04  0.00000000000E+00 0. -1.
         -4    1    3    3    0  502 -0.16511744293E+02  0.17350125468E+02 -0.43138674949E+02  0.49341765572E+02  0.00000000000E+00 0.  1.
         11    1    5    5    0    0  0.16602985435E+02 -0.32681708048E+01 -0.73838415406E+01  0.18462426213E+02  0.00000000000E+00 0.  1.
        -11    1    5    5    0    0  0.22609005062E+03 -0.47148730109E+03 -0.36113802525E+02  0.52413852445E+03  0.00000000000E+00 0. -1.
          1    1    6    6  503    0  0.61614605841E+03 -0.42488188748E+02  0.51190577769E+03  0.80217749702E+03  0.00000000000E+00 0. -1.
         -1    1    6    6    0  503  0.28146697357E+03 -0.23829901221E+02  0.16017886317E+03  0.32472879394E+03  0.00000000000E+00 0.  1.
<mgrwt>
<rscale>  0 0.37205021E+04</rscale>
<asrwt>0</asrwt>
<pdfrwt beam="1">  1        1 0.39629531E+00 0.37205021E+04</pdfrwt>
<pdfrwt beam="2">  1       -2 0.20667954E+00 0.37205021E+04</pdfrwt>
<totfact> 0.10170011E-01</totfact>
</mgrwt>
</event>
<event>
12    4  0.4207946E-008  0.1336378E+04  0.7818608E-02  0.9001204E-01
         -2   -1    0    0    0  501 -0.00000000000E+00  0.00000000000E+00  0.60254743128E+03  0.60254743128E+03  0.00000000000E+00 0.  1.
          1   -1    0    0  501    0  0.00000000000E+00 -0.00000000000E+00 -0.74098141364E+03  0.74098141364E+03  0.00000000000E+00 0. -1.
        -24    2    1    2    0    0 -0.31118145516E+03  0.12750032160E+03  0.62593546179E+02  0.35127390867E+03  0.79907301561E+02 0.  0.
        254    2    1    2    0    0  0.31118145516E+03 -0.12750032160E+03 -0.20102752854E+03  0.99225493625E+03  0.91162906998E+03 0.  0.
         23    2    4    4    0    0  0.50448974647E+03  0.21652064567E+03 -0.18748056155E+03  0.58694556546E+03  0.89247081516E+02 0.  0.
         23    2    4    4    0    0 -0.19330829131E+03 -0.34402096727E+03 -0.13546966992E+02  0.40530937079E+03  0.91507618921E+02 0.  0.
          1    1    3    3  502    0 -0.19550510664E+03  0.77534031658E+02 -0.57782271627E+00  0.21031905921E+03  0.00000000000E+00 0. -1.
         -2    1    3    3    0  502 -0.11567634852E+03  0.49966289945E+02  0.63171368895E+02  0.14095484946E+03  0.00000000000E+00 0.  1.
         11    1    5    5    0    0  0.46193792342E+03  0.16890848096E+03 -0.17368910000E+03  0.52161731518E+03  0.00000000000E+00 0. -1.
        -11    1    5    5    0    0  0.42551823050E+02  0.47612164709E+02 -0.13791461546E+02  0.65328250281E+02  0.00000000000E+00 0.  1.
          1    1    6    6  503    0 -0.15326762745E+03 -0.18193421969E+03 -0.14754792893E+02  0.23834581983E+03  0.00000000000E+00 0. -1.
         -1    1    6    6    0  503 -0.40040663866E+02 -0.16208674759E+03  0.12078259015E+01  0.16696355096E+03  0.00000000000E+00 0.  1.
<mgrwt>
<rscale>  0 0.13363779E+04</rscale>
<asrwt>0</asrwt>
<pdfrwt beam="1">  1        1 0.11399714E+00 0.13363779E+04</pdfrwt>
<pdfrwt beam="2">  1       -2 0.92699605E-01 0.13363779E+04</pdfrwt>
<totfact> 0.21140414E+01</totfact>
</mgrwt>
</event>
<event>
12    4  0.4207946E-008  0.1996840E+04  0.7818608E-02  0.8608100E-01
          1   -1    0    0  501    0  0.00000000000E+00  0.00000000000E+00  0.16773084715E+04  0.16773084715E+04  0.00000000000E+00 0. -1.
         -2   -1    0    0    0  501 -0.00000000000E+00 -0.00000000000E+00 -0.59431051141E+03  0.59431051141E+03  0.00000000000E+00 0.  1.
        -24    2    1    2    0    0  0.48827602552E+03 -0.61073918155E+03  0.23718906977E+03  0.82092076672E+03  0.78971041795E+02 0.  0.
        254    2    1    2    0    0 -0.48827602552E+03  0.61073918155E+03  0.84580889029E+03  0.14506982162E+04  0.88188253781E+03 0.  0.
         23    2    4    4    0    0  0.19016606495E+03  0.25942662973E+03  0.40738562885E+02  0.33686388480E+03  0.91391125956E+02 0.  0.
         23    2    4    4    0    0 -0.67844209047E+03  0.35131255182E+03  0.80507032741E+03  0.11138343314E+04  0.93725697951E+02 0.  0.
          3    1    3    3  502    0  0.18067562283E+03 -0.23922196840E+03  0.13035769362E+03  0.32690053401E+03  0.00000000000E+00 0. -1.
         -4    1    3    3    0  502  0.30760040268E+03 -0.37151721315E+03  0.10683137616E+03  0.49402023271E+03  0.00000000000E+00 0.  1.
         11    1    5    5    0    0  0.30851429617E+02  0.11339292344E+03  0.35426392953E+01  0.11756834646E+03  0.00000000000E+00 0.  1.
        -11    1    5    5    0    0  0.15931463534E+03  0.14603370629E+03  0.37195923590E+02  0.21929553834E+03  0.00000000000E+00 0. -1.
          2    1    6    6  503    0 -0.14828470338E+03  0.79569089735E+02  0.12436937356E+03  0.20925423383E+03  0.00000000000E+00 0. -1.
         -2    1    6    6    0  503 -0.53015738709E+03  0.27174346208E+03  0.68070095385E+03  0.90458009753E+03  0.00000000000E+00 0.  1.
<mgrwt>
<rscale>  0 0.19968396E+04</rscale>
<asrwt>0</asrwt>
<pdfrwt beam="1">  1        1 0.25804746E+00 0.19968396E+04</pdfrwt>
<pdfrwt beam="2">  1       -2 0.91432387E-01 0.19968396E+04</pdfrwt>
<totfact> 0.40995867E+00</totfact>
</mgrwt>
</event>
<event>
12    4  0.4207946E-008  0.2018496E+04  0.7818608E-02  0.8598022E-01
          1   -1    0    0  501    0  0.00000000000E+00  0.00000000000E+00  0.26584457256E+04  0.26584457256E+04  0.00000000000E+00 0. -1.
         -2   -1    0    0    0  501 -0.00000000000E+00 -0.00000000000E+00 -0.38314911254E+03  0.38314911254E+03  0.00000000000E+00 0.  1.
        -24    2    1    2    0    0  0.37419943625E+03  0.52200076366E+03  0.16685738805E+04  0.17901126910E+04  0.88626386177E+02 0.  0.
        254    2    1    2    0    0 -0.37419943625E+03 -0.52200076366E+03  0.60672273255E+03  0.12514821472E+04  0.88633237284E+03 0.  0.
         23    2    4    4    0    0 -0.34882975661E+03 -0.50753050423E+03 -0.15420746225E+02  0.62279744123E+03  0.91484652082E+02 0.  0.
         23    2    4    4    0    0 -0.25369679639E+02 -0.14470259422E+02  0.62214347878E+03  0.62868470594E+03  0.85609241593E+02 0.  0.
          1    1    3    3  502    0  0.30585874950E+03  0.37171443147E+03  0.11805326638E+04  0.12749033546E+04  0.00000000000E+00 0. -1.
         -2    1    3    3    0  502  0.68340686754E+02  0.15028633218E+03  0.48804121672E+03  0.51520933641E+03  0.00000000000E+00 0.  1.
         11    1    5    5    0    0 -0.31413622301E+03 -0.49186900797E+03 -0.63113255895E+01  0.58365787962E+03  0.00000000000E+00 0.  1.
        -11    1    5    5    0    0 -0.34693533604E+02 -0.15661496260E+02 -0.91094206353E+01  0.39139561614E+02  0.00000000000E+00 0. -1.
          1    1    6    6  503    0 -0.39295912101E+02  0.16978481900E+02  0.17266480393E+03  0.17789202363E+03  0.00000000000E+00 0. -1.
         -1    1    6    6    0  503  0.13926232462E+02 -0.31448741323E+02  0.44947867485E+03  0.45079268231E+03  0.00000000000E+00 0.  1.
<mgrwt>
<rscale>  0 0.20184956E+04</rscale>
<asrwt>0</asrwt>
<pdfrwt beam="1">  1        1 0.40899164E+00 0.20184956E+04</pdfrwt>
<pdfrwt beam="2">  1       -2 0.58946019E-01 0.20184956E+04</pdfrwt>
<totfact> 0.22986740E+00</totfact>
</mgrwt>
</event>
<event>
12    4  0.4207946E-008  0.1736767E+04  0.7818608E-02  0.8740668E-01
         -4   -1    0    0    0  501 -0.00000000000E+00  0.00000000000E+00  0.81723662987E+03  0.81723662987E+03  0.00000000000E+00 0.  1.
          3   -1    0    0  501    0  0.00000000000E+00 -0.00000000000E+00 -0.92273138791E+03  0.92273138791E+03  0.00000000000E+00 0. -1.
        -24    2    1    2    0    0 -0.11776117895E+03 -0.23009056602E+03  0.53650915385E+03  0.60087603571E+03  0.80003589210E+02 0.  0.
        254    2    1    2    0    0  0.11776117895E+03  0.23009056602E+03 -0.64200391188E+03  0.11390919821E+04  0.90473872301E+03 0.  0.
         23    2    4    4    0    0 -0.37366905920E+03  0.19718004085E+03 -0.23139344846E+03  0.49034168695E+03  0.91561496616E+02 0.  0.
         23    2    4    4    0    0  0.49143023815E+03  0.32910525177E+02 -0.41061046342E+03  0.64875029512E+03  0.98433790539E+02 0.  0.
          1    1    3    3  502    0 -0.67725719599E+02 -0.10382983079E+03  0.17304297740E+03  0.21286446130E+03  0.00000000000E+00 0. -1.
         -2    1    3    3    0  502 -0.50035459352E+02 -0.12626073524E+03  0.36346617645E+03  0.38801157441E+03  0.00000000000E+00 0.  1.
         11    1    5    5    0    0 -0.37191135284E+03  0.20299647395E+03 -0.23365315820E+03  0.48385888557E+03  0.00000000000E+00 0. -1.
        -11    1    5    5    0    0 -0.17577063565E+01 -0.58164331020E+01  0.22597097389E+01  0.64828013829E+01  0.00000000000E+00 0.  1.
          1    1    6    6  503    0  0.39451508859E+03  0.29517318258E+02 -0.27407167150E+03  0.48127820263E+03  0.00000000000E+00 0. -1.
         -1    1    6    6    0  503  0.96915149552E+02  0.33932069195E+01 -0.13653879192E+03  0.16747209249E+03  0.00000000000E+00 0.  1.
<mgrwt>
<rscale>  0 0.17367670E+04</rscale>
<asrwt>0</asrwt>
<pdfrwt beam="1">  1        3 0.14195867E+00 0.17367670E+04</pdfrwt>
<pdfrwt beam="2">  1       -4 0.12572871E+00 0.17367670E+04</pdfrwt>
<totfact> 0.38127418E-01</totfact>
</mgrwt>
</event>
<event>
12    4  0.4207946E-008  0.1681846E+04  0.7818608E-02  0.8771786E-01
         -2   -1    0    0    0  501 -0.00000000000E+00  0.00000000000E+00  0.14378271896E+04  0.14378271896E+04  0.00000000000E+00 0.  1.
          1   -1    0    0  501    0  0.00000000000E+00 -0.00000000000E+00 -0.49181962936E+03  0.49181962936E+03  0.00000000000E+00 0. -1.
        -24    2    1    2    0    0  0.26969175224E+03  0.25036806118E+03 -0.20508412796E+03  0.43061810233E+03  0.89188806660E+02 0.  0.
        254    2    1    2    0    0 -0.26969175224E+03 -0.25036806118E+03  0.11510916881E+04  0.14990287166E+04  0.88693698273E+03 0.  0.
         23    2    4    4    0    0 -0.42627230754E+03  0.89728763187E+02  0.23132221610E+03  0.50163883230E+03  0.91499832170E+02 0.  0.
         23    2    4    4    0    0  0.15658055530E+03 -0.34009682436E+03  0.91976947205E+03  0.99738988429E+03  0.92883687035E+02 0.  0.
          3    1    3    3  502    0  0.14762623207E+03  0.13289049595E+03 -0.16067760517E+03  0.25548127351E+03  0.00000000000E+00 0. -1.
         -4    1    3    3    0  502  0.12206552017E+03  0.11747756522E+03 -0.44406522788E+02  0.17513682882E+03  0.00000000000E+00 0.  1.
         11    1    5    5    0    0 -0.42799863514E+03  0.89912547828E+02  0.23578393877E+03  0.49685124909E+03  0.00000000000E+00 0.  1.
        -11    1    5    5    0    0  0.17263275961E+01 -0.18378464169E+00 -0.44617226739E+01  0.47875832090E+01  0.00000000000E+00 0. -1.
          3    1    6    6  503    0  0.10548674425E+03 -0.29194404337E+03  0.80588968845E+03  0.86360695205E+03  0.00000000000E+00 0. -1.
         -3    1    6    6    0  503  0.51093811057E+02 -0.48152780996E+02  0.11387978360E+03  0.13378293224E+03  0.00000000000E+00 0.  1.
<mgrwt>
<rscale>  0 0.16818462E+04</rscale>
<asrwt>0</asrwt>
<pdfrwt beam="1">  1        1 0.75664559E-01 0.16818462E+04</pdfrwt>
<pdfrwt beam="2">  1       -2 0.22120418E+00 0.16818462E+04</pdfrwt>
<totfact> 0.36691602E+00</totfact>
</mgrwt>
</event>
<event>
12    4  0.4207946E-008  0.2505874E+04  0.7818608E-02  0.8400896E-01
         -2   -1    0    0    0  501 -0.00000000000E+00  0.00000000000E+00  0.49405621793E+03  0.49405621793E+03  0.00000000000E+00 0.  1.
          1   -1    0    0  501    0  0.00000000000E+00 -0.00000000000E+00 -0.31774746430E+04  0.31774746430E+04  0.00000000000E+00 0. -1.
        -24    2    1    2    0    0  0.10606390415E+03 -0.64398406652E+02  0.41643973403E+03  0.44165934356E+03  0.79020358992E+02 0.  0.
        254    2    1    2    0    0 -0.10606390415E+03  0.64398406652E+02 -0.30998581591E+04  0.32298715174E+04  0.89863936348E+03 0.  0.
         23    2    4    4    0    0 -0.38365062940E+03  0.14549463395E+03 -0.26759058555E+04  0.27087372927E+04  0.91810019107E+02 0.  0.
         23    2    4    4    0    0  0.27758672525E+03 -0.81096227302E+02 -0.42395230361E+03  0.52113422464E+03  0.90632975441E+02 0.  0.
          3    1    3    3  502    0 -0.11378455011E+02 -0.54016162181E+01  0.70068537671E+02  0.71191619363E+02  0.00000000000E+00 0. -1.
         -4    1    3    3    0  502  0.11744235917E+03 -0.58996790434E+02  0.34637119636E+03  0.37046772420E+03  0.00000000000E+00 0.  1.
         11    1    5    5    0    0 -0.26318809409E+03  0.12827527644E+03 -0.20826967499E+04  0.21031757586E+04  0.00000000000E+00 0. -1.
        -11    1    5    5    0    0 -0.12046253531E+03  0.17219357512E+02 -0.59320910558E+03  0.60556153414E+03  0.00000000000E+00 0.  1.
          1    1    6    6  503    0  0.97385285467E+02 -0.36133930570E+02 -0.83325581277E+02  0.13316421163E+03  0.00000000000E+00 0. -1.
         -1    1    6    6    0  503  0.18020143978E+03 -0.44962296732E+02 -0.34062672233E+03  0.38797001301E+03  0.00000000000E+00 0.  1.
<mgrwt>
<rscale>  0 0.25058740E+04</rscale>
<asrwt>0</asrwt>
<pdfrwt beam="1">  1        1 0.48884226E+00 0.25058740E+04</pdfrwt>
<pdfrwt beam="2">  1       -2 0.76008648E-01 0.25058740E+04</pdfrwt>
<totfact> 0.53499399E-01</totfact>
</mgrwt>
</event>
<event>
12    4  0.4207946E-008  0.2015317E+04  0.7818608E-02  0.8599493E-01
          1   -1    0    0  501    0  0.00000000000E+00  0.00000000000E+00  0.20723153296E+04  0.20723153296E+04  0.00000000000E+00 0. -1.
         -2   -1    0    0    0  501 -0.00000000000E+00 -0.00000000000E+00 -0.48997177452E+03  0.48997177452E+03  0.00000000000E+00 0.  1.
        -24    2    1    2    0    0  0.31760041532E+03 -0.15272546934E+03  0.15500441428E+04  0.15916498289E+04  0.80729427713E+02 0.  0.
        254    2    1    2    0    0 -0.31760041532E+03  0.15272546934E+03  0.32299412216E+02  0.97063727513E+03  0.90382430541E+03 0.  0.
         23    2    4    4    0    0 -0.25205685466E+03 -0.20361355466E+03 -0.31539929931E+03  0.46127175672E+03  0.91125067495E+02 0.  0.
         23    2    4    4    0    0 -0.65543560665E+02  0.35633902400E+03  0.34769871152E+03  0.50936551841E+03  0.85354431498E+02 0.  0.
          3    1    3    3  502    0  0.24209832471E+03 -0.75792406084E+02  0.10740196433E+04  0.11035734148E+04  0.00000000000E+00 0. -1.
         -4    1    3    3    0  502  0.75502090617E+02 -0.76933063258E+02  0.47602449951E+03  0.48807641414E+03  0.00000000000E+00 0.  1.
         11    1    5    5    0    0 -0.22753151667E+02 -0.28873336900E+01 -0.57986101649E+02  0.62357281780E+02  0.00000000000E+00 0. -1.
        -11    1    5    5    0    0 -0.22930370299E+03 -0.20072622097E+03 -0.25741319766E+03  0.39891447494E+03  0.00000000000E+00 0.  1.
          4    1    6    6  503    0 -0.31871223614E+02  0.52974648436E+02  0.29704955465E+02  0.68589158405E+02  0.00000000000E+00 0. -1.
         -4    1    6    6    0  503 -0.33672337051E+02  0.30336437557E+03  0.31799375606E+03  0.44077636000E+03  0.00000000000E+00 0.  1.
<mgrwt>
<rscale>  0 0.20153174E+04</rscale>
<asrwt>0</asrwt>
<pdfrwt beam="1">  1        1 0.31881774E+00 0.20153174E+04</pdfrwt>
<pdfrwt beam="2">  1       -2 0.75380274E-01 0.20153174E+04</pdfrwt>
<totfact> 0.34191991E+00</totfact>
</mgrwt>
</event>
<event>
12    4  0.4207946E-008  0.1340114E+04  0.7818608E-02  0.8998345E-01
          1   -1    0    0  501    0  0.00000000000E+00  0.00000000000E+00  0.17490926347E+04  0.17490926347E+04  0.00000000000E+00 0. -1.
         -2   -1    0    0    0  501 -0.00000000000E+00 -0.00000000000E+00 -0.25669115786E+03  0.25669115786E+03  0.00000000000E+00 0.  1.
        -24    2    1    2    0    0  0.27096944543E+03  0.12606444999E+03  0.10442690107E+03  0.32554818712E+03  0.75894390864E+02 0.  0.
        254    2    1    2    0    0 -0.27096944543E+03 -0.12606444999E+03  0.13879745758E+04  0.16802356055E+04  0.89855527427E+03 0.  0.
         23    2    4    4    0    0  0.23457990358E+03  0.13131166014E+03  0.16241729755E+03  0.32674660269E+03  0.90074860934E+02 0.  0.
         23    2    4    4    0    0 -0.50554934901E+03 -0.25737611013E+03  0.12255572782E+04  0.13534890028E+04  0.90106781367E+02 0.  0.
          1    1    3    3  502    0  0.16817880269E+03  0.78361539116E+02  0.25116523225E+02  0.18723108777E+03  0.00000000000E+00 0. -1.
         -2    1    3    3    0  502  0.10279064274E+03  0.47702910874E+02  0.79310377847E+02  0.13831709936E+03  0.00000000000E+00 0.  1.
         11    1    5    5    0    0  0.21947492627E+03  0.12715866222E+03  0.11820500665E+03  0.27984101242E+03  0.00000000000E+00 0. -1.
        -11    1    5    5    0    0  0.15104977316E+02  0.41529979172E+01  0.44212290902E+02  0.46905590266E+02  0.00000000000E+00 0.  1.
          1    1    6    6  503    0 -0.42658168977E+03 -0.19465829050E+03  0.93614132582E+03  0.10470073400E+04  0.00000000000E+00 0. -1.
         -1    1    6    6    0  503 -0.78967659244E+02 -0.62717819626E+02  0.28941595242E+03  0.30648166278E+03  0.00000000000E+00 0.  1.
<mgrwt>
<rscale>  0 0.13401143E+04</rscale>
<asrwt>0</asrwt>
<pdfrwt beam="1">  1        1 0.26909117E+00 0.13401143E+04</pdfrwt>
<pdfrwt beam="2">  1       -2 0.39490949E-01 0.13401143E+04</pdfrwt>
<totfact> 0.23013493E+01</totfact>
</mgrwt>
</event>
<event>
12    4  0.4207946E-008  0.2388651E+04  0.7818608E-02  0.8443765E-01
         -2   -1    0    0    0  501 -0.00000000000E+00  0.00000000000E+00  0.45171208749E+03  0.45171208749E+03  0.00000000000E+00 0.  1.
          1   -1    0    0  501    0  0.00000000000E+00 -0.00000000000E+00 -0.31577938870E+04  0.31577938870E+04  0.00000000000E+00 0. -1.
        -24    2    1    2    0    0 -0.80676286685E+03 -0.43165135725E+03 -0.18569226892E+04  0.20716059794E+04  0.78741620575E+02 0.  0.
        254    2    1    2    0    0  0.80676286685E+03  0.43165135725E+03 -0.84915911034E+03  0.15378999951E+04  0.89826275814E+03 0.  0.
         23    2    4    4    0    0  0.97112759166E+03  0.30371526657E+03 -0.81103420630E+03  0.13042391151E+04  0.89058537224E+02 0.  0.
         23    2    4    4    0    0 -0.16436472481E+03  0.12793609068E+03 -0.38124904038E+02  0.23366088001E+03  0.98795204739E+02 0.  0.
          3    1    3    3  502    0 -0.23640745794E+03 -0.15635428533E+03 -0.51869724855E+03  0.59108542899E+03  0.00000000000E+00 0. -1.
         -4    1    3    3    0  502 -0.57035540891E+03 -0.27529707192E+03 -0.13382254406E+04  0.14805205504E+04  0.00000000000E+00 0.  1.
         11    1    5    5    0    0  0.15285146227E+03  0.25021275916E+02 -0.15432694895E+03  0.21864684068E+03  0.00000000000E+00 0. -1.
        -11    1    5    5    0    0  0.81827612939E+03  0.27869399065E+03 -0.65670725735E+03  0.10855922744E+04  0.00000000000E+00 0.  1.
          4    1    6    6  503    0 -0.83420847295E+02  0.59990821615E+02 -0.68751734723E+02  0.12363145825E+03  0.00000000000E+00 0. -1.
         -4    1    6    6    0  503 -0.80943877517E+02  0.67945269064E+02  0.30626830685E+02  0.11002942176E+03  0.00000000000E+00 0.  1.
<mgrwt>
<rscale>  0 0.23886512E+04</rscale>
<asrwt>0</asrwt>
<pdfrwt beam="1">  1        1 0.48581444E+00 0.23886512E+04</pdfrwt>
<pdfrwt beam="2">  1       -2 0.69494168E-01 0.23886512E+04</pdfrwt>
<totfact> 0.68124761E-01</totfact>
</mgrwt>
</event>
<event>
12    4  0.4207946E-008  0.1342733E+04  0.7818608E-02  0.8996347E-01
         -2   -1    0    0    0  501 -0.00000000000E+00  0.00000000000E+00  0.57000708010E+03  0.57000708010E+03  0.00000000000E+00 0.  1.
          1   -1    0    0  501    0  0.00000000000E+00 -0.00000000000E+00 -0.79074967367E+03  0.79074967367E+03  0.00000000000E+00 0. -1.
        -24    2    1    2    0    0 -0.14546472503E+03  0.25175522105E+03 -0.33793167426E+03  0.45149555992E+03  0.71482491586E+02 0.  0.
        254    2    1    2    0    0  0.14546472503E+03 -0.25175522105E+03  0.11718908069E+03  0.90926119386E+03  0.85351154677E+03 0.  0.
         23    2    4    4    0    0 -0.42112625641E+02 -0.49741471881E+03 -0.10416932194E+03  0.51791405268E+03  0.90492223969E+02 0.  0.
         23    2    4    4    0    0  0.18757735067E+03  0.24565949776E+03  0.22135840263E+03  0.39134714118E+03  0.92839599140E+02 0.  0.
          1    1    3    3  502    0 -0.64147084062E+02  0.95742792988E+02 -0.18716033167E+03  0.21979654354E+03  0.00000000000E+00 0. -1.
         -2    1    3    3    0  502 -0.81317640971E+02  0.15601242807E+03 -0.15077134259E+03  0.23169901638E+03  0.00000000000E+00 0.  1.
         11    1    5    5    0    0  0.12972955039E+02 -0.27397388191E+03 -0.28961142285E+02  0.27580560780E+03  0.00000000000E+00 0. -1.
        -11    1    5    5    0    0 -0.55085580680E+02 -0.22344083690E+03 -0.75208179656E+02  0.24210844488E+03  0.00000000000E+00 0.  1.
          3    1    6    6  503    0  0.10262245048E+03  0.19335412398E+03  0.12226047021E+03  0.25072855278E+03  0.00000000000E+00 0. -1.
         -3    1    6    6    0  503  0.84954900192E+02  0.52305373775E+02  0.99097932423E+02  0.14061858840E+03  0.00000000000E+00 0.  1.
<mgrwt>
<rscale>  0 0.13427329E+04</rscale>
<asrwt>0</asrwt>
<pdfrwt beam="1">  1        1 0.12165380E+00 0.13427329E+04</pdfrwt>
<pdfrwt beam="2">  1       -2 0.87693397E-01 0.13427329E+04</pdfrwt>
<totfact> 0.21685825E+01</totfact>
</mgrwt>
</event>
<event>
12    4  0.4207946E-008  0.1754870E+04  0.7818608E-02  0.8730674E-01
          1   -1    0    0  501    0  0.00000000000E+00  0.00000000000E+00  0.21468668164E+04  0.21468668164E+04  0.00000000000E+00 0. -1.
         -2   -1    0    0    0  501 -0.00000000000E+00 -0.00000000000E+00 -0.35861188718E+03  0.35861188718E+03  0.00000000000E+00 0.  1.
        -24    2    1    2    0    0 -0.12770199900E+03  0.52500617089E+03  0.12919922332E+03  0.56142880470E+03  0.81059135263E+02 0.  0.
        254    2    1    2    0    0  0.12770199900E+03 -0.52500617089E+03  0.16590557059E+04  0.19440498989E+04  0.85727760617E+03 0.  0.
         23    2    4    4    0    0 -0.10989344567E+03 -0.11790507039E+03 -0.30582018363E+02  0.18743063105E+03  0.90646602710E+02 0.  0.
         23    2    4    4    0    0  0.23759544468E+03 -0.40710110050E+03  0.16896377243E+04  0.17566192678E+04  0.93019952141E+02 0.  0.
          3    1    3    3  502    0 -0.72145865525E+02  0.35929530860E+03  0.12294705583E+03  0.38654123096E+03  0.00000000000E+00 0. -1.
         -4    1    3    3    0  502 -0.55556133476E+02  0.16571086229E+03  0.62521674909E+01  0.17488757373E+03  0.00000000000E+00 0.  1.
         11    1    5    5    0    0 -0.87373386324E+02 -0.30904034150E+02 -0.55778949061E+00  0.92679442670E+02  0.00000000000E+00 0. -1.
        -11    1    5    5    0    0 -0.22520059350E+02 -0.87001036243E+02 -0.30024228873E+02  0.94751188382E+02  0.00000000000E+00 0.  1.
          3    1    6    6  503    0  0.12425261382E+03 -0.15764181911E+03  0.58384679821E+03  0.61738702526E+03  0.00000000000E+00 0. -1.
         -3    1    6    6    0  503  0.11334283086E+03 -0.24945928138E+03  0.11057909261E+04  0.11392322426E+04  0.00000000000E+00 0.  1.
<mgrwt>
<rscale>  0 0.17548698E+04</rscale>
<asrwt>0</asrwt>
<pdfrwt beam="1">  1        1 0.33028719E+00 0.17548698E+04</pdfrwt>
<pdfrwt beam="2">  1       -2 0.55171061E-01 0.17548698E+04</pdfrwt>
<totfact> 0.60865664E+00</totfact>
</mgrwt>
</event>
<event>
12    4  0.4207946E-008  0.2061586E+04  0.7818608E-02  0.8578356E-01
          1   -1    0    0  501    0  0.00000000000E+00  0.00000000000E+00  0.30489717071E+04  0.30489717071E+04  0.00000000000E+00 0. -1.
         -2   -1    0    0    0  501 -0.00000000000E+00 -0.00000000000E+00 -0.34848937928E+03  0.34848937928E+03  0.00000000000E+00 0.  1.
        -24    2    1    2    0    0 -0.38000199603E+03  0.18985791256E+03 -0.71922031270E+02  0.43810924333E+03  0.79494569418E+02 0.  0.
        254    2    1    2    0    0  0.38000199603E+03 -0.18985791256E+03  0.27724043591E+04  0.29593518430E+04  0.94397555940E+03 0.  0.
         23    2    4    4    0    0  0.18200363059E+03  0.37579105215E+03  0.12157149527E+04  0.12886625800E+04  0.91346387052E+02 0.  0.
         23    2    4    4    0    0  0.19799836543E+03 -0.56564896470E+03  0.15566894064E+04  0.16706892631E+04  0.93587401759E+02 0.  0.
          1    1    3    3  502    0 -0.43179942238E+02  0.36550544581E+02  0.13819067803E+02  0.58235868293E+02  0.00000000000E+00 0. -1.
         -2    1    3    3    0  502 -0.33682205379E+03  0.15330736798E+03 -0.85741099073E+02  0.37987337504E+03  0.00000000000E+00 0.  1.
         11    1    5    5    0    0  0.13339726360E+03  0.17071536487E+03  0.61177168717E+03  0.64900166638E+03  0.00000000000E+00 0.  1.
        -11    1    5    5    0    0  0.48606366992E+02  0.20507568728E+03  0.60394326550E+03  0.63966091358E+03  0.00000000000E+00 0. -1.
          4    1    6    6  503    0  0.19309413527E+03 -0.56652880325E+03  0.15189175380E+04  0.16325901866E+04  0.00000000000E+00 0. -1.
         -4    1    6    6    0  503  0.49042301643E+01  0.87983854358E+00  0.37771868397E+02  0.38099076518E+02  0.00000000000E+00 0.  1.
<mgrwt>
<rscale>  0 0.20615860E+04</rscale>
<asrwt>0</asrwt>
<pdfrwt beam="1">  1        1 0.46907255E+00 0.20615860E+04</pdfrwt>
<pdfrwt beam="2">  1       -2 0.53613753E-01 0.20615860E+04</pdfrwt>
<totfact> 0.14653006E+00</totfact>
</mgrwt>
</event>
<event>
12    4  0.4207946E-008  0.1123092E+04  0.7818608E-02  0.9182973E-01
          1   -1    0    0  501    0  0.00000000000E+00  0.00000000000E+00  0.15886417280E+03  0.15886417280E+03  0.00000000000E+00 0. -1.
         -2   -1    0    0    0  501 -0.00000000000E+00 -0.00000000000E+00 -0.19849264406E+04  0.19849264406E+04  0.00000000000E+00 0.  1.
        -24    2    1    2    0    0 -0.17716876281E+03 -0.36390815392E+02 -0.33776531440E+03  0.39125297506E+03  0.79249106784E+02 0.  0.
        254    2    1    2    0    0  0.17716876281E+03  0.36390815392E+02 -0.14882969534E+04  0.17525376383E+04  0.90755015855E+03 0.  0.
         23    2    4    4    0    0 -0.34656925303E+03 -0.66400215663E+02 -0.43098528426E+03  0.56468088156E+03  0.92719722684E+02 0.  0.
         23    2    4    4    0    0  0.52373801584E+03  0.10279103106E+03 -0.10573116691E+04  0.11878567567E+04  0.90709445935E+02 0.  0.
          3    1    3    3  502    0 -0.12210287804E+02 -0.12730475393E+02 -0.38376759011E+01  0.18052254383E+02  0.00000000000E+00 0. -1.
         -4    1    3    3    0  502 -0.16495847500E+03 -0.23660339999E+02 -0.33392763850E+03  0.37320072068E+03  0.00000000000E+00 0.  1.
         11    1    5    5    0    0 -0.15062978292E+03 -0.32176033635E+02 -0.26087964473E+03  0.30295679177E+03  0.00000000000E+00 0. -1.
        -11    1    5    5    0    0 -0.19593947011E+03 -0.34224182028E+02 -0.17010563952E+03  0.26172408980E+03  0.00000000000E+00 0.  1.
          1    1    6    6  503    0  0.21732416994E+03  0.31338143260E+02 -0.34217133452E+03  0.40656253668E+03  0.00000000000E+00 0. -1.
         -1    1    6    6    0  503  0.30641384589E+03  0.71452887795E+02 -0.71514033460E+03  0.78129422006E+03  0.00000000000E+00 0.  1.
<mgrwt>
<rscale>  0 0.11230916E+04</rscale>
<asrwt>0</asrwt>
<pdfrwt beam="1">  1        1 0.24440644E-01 0.11230916E+04</pdfrwt>
<pdfrwt beam="2">  1       -2 0.30537327E+00 0.11230916E+04</pdfrwt>
<totfact> 0.51943795E+00</totfact>
</mgrwt>
</event>
<event>
12    4  0.4207946E-008  0.1397151E+04  0.7818608E-02  0.8955883E-01
         -2   -1    0    0    0  501 -0.00000000000E+00  0.00000000000E+00  0.44229937372E+03  0.44229937372E+03  0.00000000000E+00 0.  1.
          1   -1    0    0  501    0  0.00000000000E+00 -0.00000000000E+00 -0.11033431297E+04  0.11033431297E+04  0.00000000000E+00 0. -1.
        -24    2    1    2    0    0  0.16176747107E+03  0.37103470006E+03 -0.28966254158E+03  0.50422450784E+03  0.80638098709E+02 0.  0.
        254    2    1    2    0    0 -0.16176747107E+03 -0.37103470006E+03 -0.37138121444E+03  0.10414179956E+04  0.88475531749E+03 0.  0.
         23    2    4    4    0    0 -0.32449721492E+02  0.19379597827E+03 -0.39879808739E+03  0.45428465261E+03  0.93406453030E+02 0.  0.
         23    2    4    4    0    0 -0.12931774957E+03 -0.56483067833E+03  0.27416872953E+02  0.58713334302E+03  0.90648232313E+02 0.  0.
          1    1    3    3  502    0  0.14938858342E+03  0.34550307463E+03 -0.29105275739E+03  0.47581617356E+03  0.00000000000E+00 0. -1.
         -2    1    3    3    0  502  0.12378887647E+02  0.25531625426E+02  0.13902158098E+01  0.28408334275E+02  0.00000000000E+00 0.  1.
         11    1    5    5    0    0  0.42386289222E+01  0.39427448231E+02 -0.17815209777E+03  0.18251208066E+03  0.00000000000E+00 0. -1.
        -11    1    5    5    0    0 -0.36688350414E+02  0.15436853004E+03 -0.22064598962E+03  0.27177257194E+03  0.00000000000E+00 0.  1.
          1    1    6    6  503    0 -0.34567275945E+02 -0.49476468567E+02  0.18274207211E+02  0.63061590191E+02  0.00000000000E+00 0. -1.
         -1    1    6    6    0  503 -0.94750473629E+02 -0.51535420977E+03  0.91426657418E+01  0.52407175283E+03  0.00000000000E+00 0.  1.
<mgrwt>
<rscale>  0 0.13971514E+04</rscale>
<asrwt>0</asrwt>
<pdfrwt beam="1">  1        1 0.16974510E+00 0.13971514E+04</pdfrwt>
<pdfrwt beam="2">  1       -2 0.68046057E-01 0.13971514E+04</pdfrwt>
<totfact> 0.21315805E+01</totfact>
</mgrwt>
</event>
<event>
12    4  0.4207946E-008  0.1898742E+04  0.7818608E-02  0.8655483E-01
         -2   -1    0    0    0  501 -0.00000000000E+00  0.00000000000E+00  0.81518762491E+03  0.81518762491E+03  0.00000000000E+00 0.  1.
          1   -1    0    0  501    0  0.00000000000E+00 -0.00000000000E+00 -0.11056420200E+04  0.11056420200E+04  0.00000000000E+00 0. -1.
        -24    2    1    2    0    0  0.43170502503E+03  0.19753819528E+03 -0.67287581276E+03  0.82729612320E+03  0.79160904675E+02 0.  0.
        254    2    1    2    0    0 -0.43170502503E+03 -0.19753819528E+03  0.38242141762E+03  0.10935335217E+04  0.90784296842E+03 0.  0.
         23    2    4    4    0    0  0.11638004392E+03 -0.31420438928E+03  0.39449077917E+03  0.52562914553E+03  0.91620472138E+02 0.  0.
         23    2    4    4    0    0 -0.54808506895E+03  0.11666619400E+03 -0.12069361546E+02  0.56790437622E+03  0.91441059770E+02 0.  0.
          3    1    3    3  502    0  0.40052390742E+03  0.15711382350E+03 -0.59931171167E+03  0.73775245285E+03  0.00000000000E+00 0. -1.
         -4    1    3    3    0  502  0.31181117608E+02  0.40424371774E+02 -0.73564101092E+02  0.89543670341E+02  0.00000000000E+00 0.  1.
         11    1    5    5    0    0 -0.54451382418E+01 -0.27743206274E+01  0.31463626622E+02  0.32051617520E+02  0.00000000000E+00 0.  1.
        -11    1    5    5    0    0  0.12182518216E+03 -0.31143006865E+03  0.36302715255E+03  0.49357752801E+03  0.00000000000E+00 0. -1.
          3    1    6    6  503    0 -0.19030787881E+03  0.80554148723E+02  0.15626044853E+02  0.20724437964E+03  0.00000000000E+00 0. -1.
         -3    1    6    6    0  503 -0.35777719014E+03  0.36112045282E+02 -0.27695406400E+02  0.36065999658E+03  0.00000000000E+00 0.  1.
<mgrwt>
<rscale>  0 0.18987424E+04</rscale>
<asrwt>0</asrwt>
<pdfrwt beam="1">  1        1 0.17009877E+00 0.18987424E+04</pdfrwt>
<pdfrwt beam="2">  1       -2 0.12541348E+00 0.18987424E+04</pdfrwt>
<totfact> 0.48989278E+00</totfact>
</mgrwt>
</event>
<event>
12    4  0.4207946E-008  0.1911122E+04  0.7818608E-02  0.8649340E-01
         -4   -1    0    0    0  501 -0.00000000000E+00  0.00000000000E+00  0.10158289886E+04  0.10158289886E+04  0.00000000000E+00 0.  1.
          3   -1    0    0  501    0  0.00000000000E+00 -0.00000000000E+00 -0.89886851736E+03  0.89886851736E+03  0.00000000000E+00 0. -1.
        -24    2    1    2    0    0  0.11951275914E+03 -0.12870250150E+03  0.76699115065E+03  0.79114393516E+03  0.82375162972E+02 0.  0.
        254    2    1    2    0    0 -0.11951275914E+03  0.12870250150E+03 -0.65003067942E+03  0.11235535708E+04  0.89943599481E+03 0.  0.
         23    2    4    4    0    0 -0.50515717462E+02  0.28671619466E+03 -0.81435188057E+03  0.86986055507E+03  0.93436534054E+02 0.  0.
         23    2    4    4    0    0 -0.68997041675E+02 -0.15801369316E+03  0.16432120114E+03  0.25369301572E+03  0.87348555187E+02 0.  0.
          1    1    3    3  502    0  0.15625115829E+02 -0.39279199136E+02  0.34179240873E+03  0.34439664690E+03  0.00000000000E+00 0. -1.
         -2    1    3    3    0  502  0.10388764331E+03 -0.89423302369E+02  0.42519874192E+03  0.44674728826E+03  0.00000000000E+00 0.  1.
         11    1    5    5    0    0 -0.71011391392E+02  0.25999563044E+03 -0.68283878513E+03  0.73410431958E+03  0.00000000000E+00 0. -1.
        -11    1    5    5    0    0  0.20495673930E+02  0.26720564219E+02 -0.13151309544E+03  0.13575623549E+03  0.00000000000E+00 0.  1.
          1    1    6    6  503    0 -0.58537356809E+02 -0.16121447688E+03  0.12328719855E+03  0.21122609456E+03  0.00000000000E+00 0. -1.
         -1    1    6    6    0  503 -0.10459684866E+02  0.32007837168E+01  0.41034002593E+02  0.42466921159E+02  0.00000000000E+00 0.  1.
<mgrwt>
<rscale>  0 0.19111219E+04</rscale>
<asrwt>0</asrwt>
<pdfrwt beam="1">  1        3 0.13828746E+00 0.19111219E+04</pdfrwt>
<pdfrwt beam="2">  1       -4 0.15628138E+00 0.19111219E+04</pdfrwt>
<totfact> 0.22755303E-01</totfact>
</mgrwt>
</event>
<event>
12    4  0.4207946E-008  0.1662019E+04  0.7818608E-02  0.8783328E-01
         -2   -1    0    0    0  501 -0.00000000000E+00  0.00000000000E+00  0.12196743641E+04  0.12196743641E+04  0.00000000000E+00 0.  1.
          1   -1    0    0  501    0  0.00000000000E+00 -0.00000000000E+00 -0.56619745768E+03  0.56619745768E+03  0.00000000000E+00 0. -1.
        -24    2    1    2    0    0  0.67386658574E+02  0.38598236805E+03 -0.23251604639E+03  0.46254819667E+03  0.79773255032E+02 0.  0.
        254    2    1    2    0    0 -0.67386658574E+02 -0.38598236805E+03  0.88599295277E+03  0.13233236251E+04  0.90148685743E+03 0.  0.
         23    2    4    4    0    0 -0.38801662450E+03  0.67908780089E+02  0.25282305080E+03  0.47675663796E+03  0.90602944309E+02 0.  0.
         23    2    4    4    0    0  0.32062996593E+03 -0.45389114814E+03  0.63316990197E+03  0.84656698711E+03  0.83371394944E+02 0.  0.
          3    1    3    3  502    0  0.80013033343E+02  0.37396094413E+03 -0.22235378807E+03  0.44236871534E+03  0.00000000000E+00 0. -1.
         -4    1    3    3    0  502 -0.12626374769E+02  0.12021423916E+02 -0.10162258326E+02  0.20179481338E+02  0.00000000000E+00 0.  1.
         11    1    5    5    0    0  0.19986388811E+01  0.90431627277E+01  0.24872729850E+01  0.95895712312E+01  0.00000000000E+00 0.  1.
        -11    1    5    5    0    0 -0.39001526339E+03  0.58865617362E+02  0.25033577782E+03  0.46716706673E+03  0.00000000000E+00 0. -1.
          3    1    6    6  503    0  0.28190857006E+03 -0.43490941022E+03  0.59382010776E+03  0.78818840219E+03  0.00000000000E+00 0. -1.
         -3    1    6    6    0  503  0.38721395873E+02 -0.18981737916E+02  0.39349794212E+02  0.58378584919E+02  0.00000000000E+00 0.  1.
<mgrwt>
<rscale>  0 0.16620187E+04</rscale>
<asrwt>0</asrwt>
<pdfrwt beam="1">  1        1 0.87107301E-01 0.16620187E+04</pdfrwt>
<pdfrwt beam="2">  1       -2 0.18764221E+00 0.16620187E+04</pdfrwt>
<totfact> 0.49951463E+00</totfact>
</mgrwt>
</event>
<event>
12    4  0.4207946E-008  0.1716682E+04  0.7818608E-02  0.8751907E-01
          1   -1    0    0  501    0  0.00000000000E+00  0.00000000000E+00  0.12959963440E+04  0.12959963440E+04  0.00000000000E+00 0. -1.
         -2   -1    0    0    0  501 -0.00000000000E+00 -0.00000000000E+00 -0.56848127926E+03  0.56848127926E+03  0.00000000000E+00 0.  1.
        -24    2    1    2    0    0 -0.55033558210E+02 -0.60495766007E+03  0.13935116075E+03  0.62834192847E+03  0.79952298686E+02 0.  0.
        254    2    1    2    0    0  0.55033558210E+02  0.60495766007E+03  0.58816390397E+03  0.12361356948E+04  0.90171626078E+03 0.  0.
         23    2    4    4    0    0  0.16989750349E+03  0.80053725953E+03  0.54573591541E+03  0.98801429942E+03  0.92841267266E+02 0.  0.
         23    2    4    4    0    0 -0.11486394528E+03 -0.19557959946E+03  0.42427988562E+02  0.24812139536E+03  0.91208480808E+02 0.  0.
          1    1    3    3  502    0 -0.59974707571E+02 -0.52650064435E+03  0.95877441967E+02  0.53850940375E+03  0.00000000000E+00 0. -1.
         -2    1    3    3    0  502  0.49411493605E+01 -0.78457015724E+02  0.43473718788E+02  0.89832524725E+02  0.00000000000E+00 0.  1.
         11    1    5    5    0    0  0.87615872238E+02  0.56835241933E+03  0.41470053870E+03  0.70899756729E+03  0.00000000000E+00 0. -1.
        -11    1    5    5    0    0  0.82281631248E+02  0.23218484020E+03  0.13103537671E+03  0.27901673213E+03  0.00000000000E+00 0.  1.
          1    1    6    6  503    0 -0.49648239398E+02 -0.15865515378E+03  0.47823525282E+02  0.17298408905E+03  0.00000000000E+00 0. -1.
         -1    1    6    6    0  503 -0.65215705877E+02 -0.36924445683E+02 -0.53955367193E+01  0.75137306304E+02  0.00000000000E+00 0.  1.
<mgrwt>
<rscale>  0 0.17166825E+04</rscale>
<asrwt>0</asrwt>
<pdfrwt beam="1">  1        1 0.19938405E+00 0.17166825E+04</pdfrwt>
<pdfrwt beam="2">  1       -2 0.87458659E-01 0.17166825E+04</pdfrwt>
<totfact> 0.85689017E+00</totfact>
</mgrwt>
</event>
<event>
12    4  0.4207946E-008  0.3467964E+04  0.7818608E-02  0.8121424E-01
          1   -1    0    0  501    0  0.00000000000E+00  0.00000000000E+00  0.22998091751E+04  0.22998091751E+04  0.00000000000E+00 0. -1.
         -2   -1    0    0    0  501 -0.00000000000E+00 -0.00000000000E+00 -0.13073666730E+04  0.13073666730E+04  0.00000000000E+00 0.  1.
        -24    2    1    2    0    0  0.35037566010E+03 -0.48365323869E+03  0.20017178066E+04  0.20905018232E+04  0.81487035584E+02 0.  0.
        254    2    1    2    0    0 -0.35037566010E+03  0.48365323869E+03 -0.10092753045E+04  0.15166740250E+04  0.96175875318E+03 0.  0.
         23    2    4    4    0    0 -0.36584003934E+03  0.65775961948E+03 -0.10685411108E+04  0.13105253105E+04  0.95967872827E+02 0.  0.
         23    2    4    4    0    0  0.15464379238E+02 -0.17410638079E+03  0.59265806331E+02  0.20614871445E+03  0.91829612951E+02 0.  0.
          3    1    3    3  502    0  0.10578573298E+03 -0.21384954792E+03  0.78598547409E+03  0.82139845138E+03  0.00000000000E+00 0. -1.
         -4    1    3    3    0  502  0.24458992712E+03 -0.26980369076E+03  0.12157323325E+04  0.12691033718E+04  0.00000000000E+00 0.  1.
         11    1    5    5    0    0 -0.76820500315E+02  0.10645790368E+03 -0.13344973945E+03  0.18719911186E+03  0.00000000000E+00 0. -1.
        -11    1    5    5    0    0 -0.28901953902E+03  0.55130171580E+03 -0.93509137139E+03  0.11233261987E+04  0.00000000000E+00 0.  1.
          1    1    6    6  503    0  0.35076006340E+02 -0.71572228870E+02  0.63140486311E+02  0.10168397700E+03  0.00000000000E+00 0. -1.
         -1    1    6    6    0  503 -0.19611627102E+02 -0.10253415192E+03 -0.38746799803E+01  0.10446473746E+03  0.00000000000E+00 0.  1.
<mgrwt>
<rscale>  0 0.34679642E+04</rscale>
<asrwt>0</asrwt>
<pdfrwt beam="1">  1        1 0.35381680E+00 0.34679642E+04</pdfrwt>
<pdfrwt beam="2">  1       -2 0.20113333E+00 0.34679642E+04</pdfrwt>
<totfact> 0.17514876E-01</totfact>
</mgrwt>
</event>
<event>
12    4  0.4207946E-008  0.1436282E+04  0.7818608E-02  0.8927966E-01
         -2   -1    0    0    0  501 -0.00000000000E+00  0.00000000000E+00  0.38114703896E+03  0.38114703896E+03  0.00000000000E+00 0.  1.
          1   -1    0    0  501    0  0.00000000000E+00 -0.00000000000E+00 -0.13530915445E+04  0.13530915445E+04  0.00000000000E+00 0. -1.
        -24    2    1    2    0    0 -0.12111739999E+03 -0.28667243656E+02 -0.79634332021E+03  0.80946388431E+03  0.74685078209E+02 0.  0.
        254    2    1    2    0    0  0.12111739999E+03  0.28667243656E+02 -0.17560118528E+03  0.92477469911E+03  0.89937824768E+03 0.  0.
         23    2    4    4    0    0  0.16130455780E+03  0.20953979685E+03 -0.48089504860E+03  0.55626860705E+03  0.90821960965E+02 0.  0.
         23    2    4    4    0    0 -0.40187157809E+02 -0.18087255320E+03  0.30529386332E+03  0.36850609206E+03  0.90898342948E+02 0.  0.
          3    1    3    3  502    0 -0.11098384484E+03 -0.28483375543E+02 -0.78813846210E+03  0.79642385194E+03  0.00000000000E+00 0. -1.
         -4    1    3    3    0  502 -0.10133555147E+02 -0.18386811363E+00 -0.82048581118E+01  0.13040032363E+02  0.00000000000E+00 0.  1.
         11    1    5    5    0    0  0.80224894024E+02  0.76589447591E+02 -0.28631480620E+03  0.30704746434E+03  0.00000000000E+00 0.  1.
        -11    1    5    5    0    0  0.81079663775E+02  0.13295034926E+03 -0.19458024240E+03  0.24922114272E+03  0.00000000000E+00 0. -1.
          4    1    6    6  503    0 -0.35750065512E+02 -0.51825704736E+02  0.43273369173E+02  0.76397351623E+02  0.00000000000E+00 0. -1.
         -4    1    6    6    0  503 -0.44370922972E+01 -0.12904684846E+03  0.26202049415E+03  0.29210874043E+03  0.00000000000E+00 0.  1.
<mgrwt>
<rscale>  0 0.14362825E+04</rscale>
<asrwt>0</asrwt>
<pdfrwt beam="1">  1        1 0.20816793E+00 0.14362825E+04</pdfrwt>
<pdfrwt beam="2">  1       -2 0.58638006E-01 0.14362825E+04</pdfrwt>
<totfact> 0.19226574E+01</totfact>
</mgrwt>
</event>
<event>
12    4  0.4207946E-008  0.2018216E+04  0.7818608E-02  0.8598151E-01
         -2   -1    0    0    0  501 -0.00000000000E+00  0.00000000000E+00  0.17575626535E+04  0.17575626535E+04  0.00000000000E+00 0.  1.
          1   -1    0    0  501    0  0.00000000000E+00 -0.00000000000E+00 -0.57938133620E+03  0.57938133620E+03  0.00000000000E+00 0. -1.
        -24    2    1    2    0    0 -0.57077986856E+03  0.26075199297E+03  0.10388130441E+04  0.12162080504E+04  0.79045690399E+02 0.  0.
        254    2    1    2    0    0  0.57077986856E+03 -0.26075199297E+03  0.13936827319E+03  0.11207359392E+04  0.91806550406E+03 0.  0.
         23    2    4    4    0    0  0.36360787104E+03  0.10803069131E+03  0.44436816120E+03  0.59128684910E+03  0.90971210226E+02 0.  0.
         23    2    4    4    0    0  0.20717199752E+03 -0.36878268428E+03 -0.30499988801E+03  0.52944909013E+03  0.91490450723E+02 0.  0.
          3    1    3    3  502    0 -0.84047474796E+02  0.11854523384E+02  0.16312125091E+03  0.18388325166E+03  0.00000000000E+00 0. -1.
         -4    1    3    3    0  502 -0.48673239376E+03  0.24889746959E+03  0.87569179317E+03  0.10323247988E+04  0.00000000000E+00 0.  1.
         11    1    5    5    0    0  0.30050011602E+03  0.11649168259E+03  0.33589072425E+03  0.46550317988E+03  0.00000000000E+00 0. -1.
        -11    1    5    5    0    0  0.63107755018E+02 -0.84609912737E+01  0.10847743695E+03  0.12578366923E+03  0.00000000000E+00 0.  1.
          1    1    6    6  503    0  0.50101213102E+02 -0.12924571903E+03 -0.54574640571E+02  0.14897308091E+03  0.00000000000E+00 0. -1.
         -1    1    6    6    0  503  0.15707078442E+03 -0.23953696525E+03 -0.25042524744E+03  0.38047600922E+03  0.00000000000E+00 0.  1.
<mgrwt>
<rscale>  0 0.20182160E+04</rscale>
<asrwt>0</asrwt>
<pdfrwt beam="1">  1        1 0.89135591E-01 0.20182160E+04</pdfrwt>
<pdfrwt beam="2">  1       -2 0.27039425E+00 0.20182160E+04</pdfrwt>
<totfact> 0.14083118E+00</totfact>
</mgrwt>
</event>
<event>
12    4  0.4207946E-008  0.1400047E+04  0.7818608E-02  0.8953784E-01
          1   -1    0    0  501    0  0.00000000000E+00  0.00000000000E+00  0.64207268215E+03  0.64207268215E+03  0.00000000000E+00 0. -1.
         -2   -1    0    0    0  501 -0.00000000000E+00 -0.00000000000E+00 -0.76320486604E+03  0.76320486604E+03  0.00000000000E+00 0.  1.
        -24    2    1    2    0    0 -0.23966821739E+03  0.23430612894E+03 -0.26867662501E+03  0.43792251565E+03  0.85139793265E+02 0.  0.
        254    2    1    2    0    0  0.23966821739E+03 -0.23430612894E+03  0.14754444112E+03  0.96735503255E+03  0.89535812970E+03 0.  0.
         23    2    4    4    0    0  0.39821227524E+03 -0.34366054014E+01  0.40611408808E+03  0.57597475019E+03  0.90738271466E+02 0.  0.
         23    2    4    4    0    0 -0.15854405785E+03 -0.23086952353E+03 -0.25856964696E+03  0.39138028236E+03  0.88787994209E+02 0.  0.
          3    1    3    3  502    0 -0.22236508375E+03  0.20690254063E+03 -0.20490797571E+03  0.36639073446E+03  0.00000000000E+00 0. -1.
         -4    1    3    3    0  502 -0.17303133645E+02  0.27403588303E+02 -0.63768649296E+02  0.71531781181E+02  0.00000000000E+00 0.  1.
         11    1    5    5    0    0  0.23170305966E+02 -0.16649944873E+02  0.97799247490E+01  0.30161741842E+02  0.00000000000E+00 0. -1.
        -11    1    5    5    0    0  0.37504196928E+03  0.13213339471E+02  0.39633416333E+03  0.54581300835E+03  0.00000000000E+00 0.  1.
          2    1    6    6  503    0 -0.81589951082E+02 -0.46815934220E+02 -0.75514330557E+02  0.12062779918E+03  0.00000000000E+00 0. -1.
         -2    1    6    6    0  503 -0.76954106768E+02 -0.18405358931E+03 -0.18305531640E+03  0.27075248319E+03  0.00000000000E+00 0.  1.
<mgrwt>
<rscale>  0 0.14000471E+04</rscale>
<asrwt>0</asrwt>
<pdfrwt beam="1">  1        1 0.98780413E-01 0.14000471E+04</pdfrwt>
<pdfrwt beam="2">  1       -2 0.11741613E+00 0.14000471E+04</pdfrwt>
<totfact> 0.14830860E+01</totfact>
</mgrwt>
</event>
<event>
12    4  0.4207946E-008  0.1029519E+04  0.7818608E-02  0.9276749E-01
         -2   -1    0    0    0  501 -0.00000000000E+00  0.00000000000E+00  0.35043767769E+03  0.35043767769E+03  0.00000000000E+00 0.  1.
          1   -1    0    0  501    0  0.00000000000E+00 -0.00000000000E+00 -0.75613200922E+03  0.75613200922E+03  0.00000000000E+00 0. -1.
        -24    2    1    2    0    0  0.77925855757E+02  0.34961101848E+02 -0.74925753469E+01  0.12173415392E+03  0.86419603722E+02 0.  0.
        254    2    1    2    0    0 -0.77925855757E+02 -0.34961101848E+02 -0.39820175618E+03  0.98483553299E+03  0.89668370721E+03 0.  0.
         23    2    4    4    0    0 -0.88008798546E+02  0.37768373247E+03 -0.39656625575E+03  0.56236997523E+03  0.92761217387E+02 0.  0.
         23    2    4    4    0    0  0.10082942789E+02 -0.41264483432E+03 -0.16355004299E+01  0.42246555776E+03  0.89983596333E+02 0.  0.
          3    1    3    3  502    0  0.11735553263E+02  0.10844710157E+02 -0.40794653755E+02  0.43812495064E+02  0.00000000000E+00 0. -1.
         -4    1    3    3    0  502  0.66190302494E+02  0.24116391692E+02  0.33302078408E+02  0.77921658856E+02  0.00000000000E+00 0.  1.
         11    1    5    5    0    0  0.23969133821E+00  0.13357060015E+03 -0.91964820147E+02  0.16216871098E+03  0.00000000000E+00 0.  1.
        -11    1    5    5    0    0 -0.88248489885E+02  0.24411313231E+03 -0.30460143560E+03  0.40020126425E+03  0.00000000000E+00 0. -1.
          4    1    6    6  503    0 -0.81266198714E+01 -0.38870646605E+03 -0.16029228914E+02  0.38912169675E+03  0.00000000000E+00 0. -1.
         -4    1    6    6    0  503  0.18209562661E+02 -0.23938368263E+02  0.14393728484E+02  0.33343861010E+02  0.00000000000E+00 0.  1.
<mgrwt>
<rscale>  0 0.10295186E+04</rscale>
<asrwt>0</asrwt>
<pdfrwt beam="1">  1        1 0.11632800E+00 0.10295186E+04</pdfrwt>
<pdfrwt beam="2">  1       -2 0.53913489E-01 0.10295186E+04</pdfrwt>
<totfact> 0.68720453E+01</totfact>
</mgrwt>
</event>
<event>
12    4  0.4207946E-008  0.1055363E+04  0.7818608E-02  0.9249824E-01
          1   -1    0    0  501    0  0.00000000000E+00  0.00000000000E+00  0.19308795832E+03  0.19308795832E+03  0.00000000000E+00 0. -1.
         -2   -1    0    0    0  501 -0.00000000000E+00 -0.00000000000E+00 -0.14420778168E+04  0.14420778168E+04  0.00000000000E+00 0.  1.
        -24    2    1    2    0    0 -0.72407212169E+02 -0.76787720366E+02 -0.74506934252E+02  0.15237865140E+03  0.80801062977E+02 0.  0.
        254    2    1    2    0    0  0.72407212169E+02  0.76787720366E+02 -0.11744829243E+04  0.14827871238E+04  0.89894847272E+03 0.  0.
         23    2    4    4    0    0  0.36314703077E+03  0.25609755701E+03 -0.31169129772E+03  0.55032583592E+03  0.90803832196E+02 0.  0.
         23    2    4    4    0    0 -0.29073981860E+03 -0.17930983664E+03 -0.86279162655E+03  0.93246128784E+03  0.91613333279E+02 0.  0.
          3    1    3    3  502    0  0.13332968440E+02 -0.32456968748E+02 -0.10744320557E+02  0.36696911205E+02  0.00000000000E+00 0. -1.
         -4    1    3    3    0  502 -0.85740180609E+02 -0.44330751618E+02 -0.63762613695E+02  0.11568174020E+03  0.00000000000E+00 0.  1.
         11    1    5    5    0    0  0.53600925412E+02  0.31854740139E+02 -0.95143743356E+01  0.63073821775E+02  0.00000000000E+00 0. -1.
        -11    1    5    5    0    0  0.30954610536E+03  0.22424281687E+03 -0.30217692338E+03  0.48725201414E+03  0.00000000000E+00 0.  1.
          3    1    6    6  503    0 -0.23564170390E+02 -0.46805853485E+02 -0.17786923876E+03  0.18542794865E+03  0.00000000000E+00 0. -1.
         -3    1    6    6    0  503 -0.26717564821E+03 -0.13250398316E+03 -0.68492238779E+03  0.74703333918E+03  0.00000000000E+00 0.  1.
<mgrwt>
<rscale>  0 0.10553632E+04</rscale>
<asrwt>0</asrwt>
<pdfrwt beam="1">  1        1 0.29705840E-01 0.10553632E+04</pdfrwt>
<pdfrwt beam="2">  1       -2 0.22185812E+00 0.10553632E+04</pdfrwt>
<totfact> 0.13072179E+01</totfact>
</mgrwt>
</event>
<event>
12    4  0.4207946E-008  0.1227731E+04  0.7818608E-02  0.9088924E-01
         -2   -1    0    0    0  501 -0.00000000000E+00  0.00000000000E+00  0.19433731627E+03  0.19433731627E+03  0.00000000000E+00 0.  1.
          1   -1    0    0  501    0  0.00000000000E+00 -0.00000000000E+00 -0.19390550136E+04  0.19390550136E+04  0.00000000000E+00 0. -1.
        -24    2    1    2    0    0  0.21188470568E+02  0.26872574840E+03 -0.48233146706E+03  0.55818414692E+03  0.79141762744E+02 0.  0.
        254    2    1    2    0    0 -0.21188470568E+02 -0.26872574840E+03 -0.12623862302E+04  0.15752081829E+04  0.90277314211E+03 0.  0.
         23    2    4    4    0    0 -0.38500862471E+03  0.10361031351E+03 -0.47624174836E+03  0.62774189047E+03  0.91032631520E+02 0.  0.
         23    2    4    4    0    0  0.36382015414E+03 -0.37233606191E+03 -0.78614448188E+03  0.94746629246E+03  0.93112734839E+02 0.  0.
          3    1    3    3  502    0 -0.19046227259E+02  0.82292620679E+02 -0.20379424027E+03  0.22060581714E+03  0.00000000000E+00 0. -1.
         -4    1    3    3    0  502  0.40234697826E+02  0.18643312772E+03 -0.27853722680E+03  0.33757832977E+03  0.00000000000E+00 0.  1.
         11    1    5    5    0    0 -0.47736615914E+02  0.27688521801E+02 -0.11596597132E+03  0.12842719822E+03  0.00000000000E+00 0.  1.
        -11    1    5    5    0    0 -0.33727200880E+03  0.75921791711E+02 -0.36027577704E+03  0.49931469225E+03  0.00000000000E+00 0. -1.
          2    1    6    6  503    0  0.26355547427E+03 -0.21629363842E+03 -0.55130494592E+03  0.64821413856E+03  0.00000000000E+00 0. -1.
         -2    1    6    6    0  503  0.10026467988E+03 -0.15604242349E+03 -0.23483953596E+03  0.29925215390E+03  0.00000000000E+00 0.  1.
<mgrwt>
<rscale>  0 0.12277308E+04</rscale>
<asrwt>0</asrwt>
<pdfrwt beam="1">  1        1 0.29831615E+00 0.12277308E+04</pdfrwt>
<pdfrwt beam="2">  1       -2 0.29898049E-01 0.12277308E+04</pdfrwt>
<totfact> 0.29369849E+01</totfact>
</mgrwt>
</event>
<event>
12    4  0.4207946E-008  0.2104634E+04  0.7818608E-02  0.8559205E-01
         -2   -1    0    0    0  501 -0.00000000000E+00  0.00000000000E+00  0.15458876779E+04  0.15458876779E+04  0.00000000000E+00 0.  1.
          1   -1    0    0  501    0  0.00000000000E+00 -0.00000000000E+00 -0.71633347178E+03  0.71633347178E+03  0.00000000000E+00 0. -1.
        -24    2    1    2    0    0  0.76401296094E+03  0.37945744160E+03  0.35688043724E+03  0.92763260861E+03  0.73721473198E+02 0.  0.
        254    2    1    2    0    0 -0.76401296094E+03 -0.37945744160E+03  0.47267376888E+03  0.13345885411E+04  0.91104463539E+03 0.  0.
         23    2    4    4    0    0 -0.85451162282E+03 -0.19677449289E+03  0.61104191493E+03  0.10728373737E+04  0.93260356049E+02 0.  0.
         23    2    4    4    0    0  0.90498661876E+02 -0.18268294870E+03 -0.13836814605E+03  0.26175116737E+03  0.88345131317E+02 0.  0.
          1    1    3    3  502    0  0.56028701860E+02  0.13407028551E+02  0.38966597152E+02  0.69551128965E+02  0.00000000000E+00 0. -1.
         -2    1    3    3    0  502  0.70798425908E+03  0.36605041304E+03  0.31791384008E+03  0.85808147965E+03  0.00000000000E+00 0.  1.
         11    1    5    5    0    0 -0.78944676294E+02 -0.20320564661E+02  0.92774273201E+02  0.12350001227E+03  0.00000000000E+00 0.  1.
        -11    1    5    5    0    0 -0.77556694653E+03 -0.17645392823E+03  0.51826764173E+03  0.94933736143E+03  0.00000000000E+00 0. -1.
          3    1    6    6  503    0  0.79714286546E+02 -0.71789494643E+02 -0.91037820976E+02  0.14069820137E+03  0.00000000000E+00 0. -1.
         -3    1    6    6    0  503  0.10784375330E+02 -0.11089345406E+03 -0.47330325074E+02  0.12105296600E+03  0.00000000000E+00 0.  1.
<mgrwt>
<rscale>  0 0.21046340E+04</rscale>
<asrwt>0</asrwt>
<pdfrwt beam="1">  1        1 0.11020515E+00 0.21046340E+04</pdfrwt>
<pdfrwt beam="2">  1       -2 0.23782887E+00 0.21046340E+04</pdfrwt>
<totfact> 0.16179919E+00</totfact>
</mgrwt>
</event>
<event>
12    4  0.4207946E-008  0.1431903E+04  0.7818608E-02  0.8931044E-01
          1   -1    0    0  501    0  0.00000000000E+00  0.00000000000E+00  0.11656098197E+04  0.11656098197E+04  0.00000000000E+00 0. -1.
         -2   -1    0    0    0  501 -0.00000000000E+00 -0.00000000000E+00 -0.43975821942E+03  0.43975821942E+03  0.00000000000E+00 0.  1.
        -24    2    1    2    0    0 -0.18582876844E+03  0.39207659651E+03  0.24309839049E+03  0.50341320789E+03  0.77920739900E+02 0.  0.
        254    2    1    2    0    0  0.18582876844E+03 -0.39207659651E+03  0.48275320981E+03  0.11019548312E+04  0.89050401447E+03 0.  0.
         23    2    4    4    0    0  0.53574914519E+03 -0.26335762954E+03  0.25405826795E+03  0.65519821126E+03  0.91404074990E+02 0.  0.
         23    2    4    4    0    0 -0.34992037675E+03 -0.12871896697E+03  0.22869494186E+03  0.44675661997E+03  0.90979440165E+02 0.  0.
          3    1    3    3  502    0  0.32874936956E+01 -0.78652129578E+00  0.65415200742E+01  0.73632679857E+01  0.00000000000E+00 0. -1.
         -4    1    3    3    0  502 -0.18911626214E+03  0.39286311781E+03  0.23655687041E+03  0.49604993990E+03  0.00000000000E+00 0.  1.
         11    1    5    5    0    0  0.45379462178E+03 -0.18522803911E+03  0.19515695315E+03  0.52756537187E+03  0.00000000000E+00 0.  1.
        -11    1    5    5    0    0  0.81954523405E+02 -0.78129590432E+02  0.58901314796E+02  0.12763283940E+03  0.00000000000E+00 0. -1.
          1    1    6    6  503    0 -0.19477015742E+02 -0.15453432169E+02 -0.64287433756E+01  0.25680565598E+02  0.00000000000E+00 0. -1.
         -1    1    6    6    0  503 -0.33044336101E+03 -0.11326553480E+03  0.23512368523E+03  0.42107605437E+03  0.00000000000E+00 0.  1.
<mgrwt>
<rscale>  0 0.14319029E+04</rscale>
<asrwt>0</asrwt>
<pdfrwt beam="1">  1        1 0.17932459E+00 0.14319029E+04</pdfrwt>
<pdfrwt beam="2">  1       -2 0.67655111E-01 0.14319029E+04</pdfrwt>
<totfact> 0.19344083E+01</totfact>
</mgrwt>
</event>
<event>
12    4  0.4207946E-008  0.1891289E+04  0.7818608E-02  0.8659204E-01
         -2   -1    0    0    0  501 -0.00000000000E+00  0.00000000000E+00  0.96359282654E+03  0.96359282654E+03  0.00000000000E+00 0.  1.
          1   -1    0    0  501    0  0.00000000000E+00 -0.00000000000E+00 -0.92803095443E+03  0.92803095443E+03  0.00000000000E+00 0. -1.
        -24    2    1    2    0    0 -0.41954762938E+03 -0.51193731256E+03  0.31340586563E+03  0.73512339048E+03  0.63899431197E+02 0.  0.
        254    2    1    2    0    0  0.41954762938E+03  0.51193731256E+03 -0.27784399352E+03  0.11565003905E+04  0.90675015477E+03 0.  0.
         23    2    4    4    0    0  0.24962382403E+03  0.72493027091E+03 -0.36777396147E+03  0.85522122180E+03  0.91157557393E+02 0.  0.
         23    2    4    4    0    0  0.16992380534E+03 -0.21299295835E+03  0.89929967956E+02  0.30127916869E+03  0.91878389311E+02 0.  0.
          3    1    3    3  502    0 -0.25165921358E+02 -0.13535636270E+02  0.63451696911E+01  0.29271115890E+02  0.00000000000E+00 0. -1.
         -4    1    3    3    0  502 -0.39438170802E+03 -0.49840167629E+03  0.30706069594E+03  0.70585227459E+03  0.00000000000E+00 0.  1.
         11    1    5    5    0    0  0.24905108445E+02  0.92714146969E+02 -0.14993755040E+02  0.97164757835E+02  0.00000000000E+00 0.  1.
        -11    1    5    5    0    0  0.22471871559E+03  0.63221612395E+03 -0.35278020643E+03  0.75805646397E+03  0.00000000000E+00 0. -1.
          1    1    6    6  503    0  0.15732451117E+03 -0.15355177710E+03  0.41829561252E+02  0.22378306965E+03  0.00000000000E+00 0. -1.
         -1    1    6    6    0  503  0.12599294169E+02 -0.59441181250E+02  0.48100406704E+02  0.77496099044E+02  0.00000000000E+00 0.  1.
<mgrwt>
<rscale>  0 0.18912895E+04</rscale>
<asrwt>0</asrwt>
<pdfrwt beam="1">  1        1 0.14277399E+00 0.18912895E+04</pdfrwt>
<pdfrwt beam="2">  1       -2 0.14824505E+00 0.18912895E+04</pdfrwt>
<totfact> 0.43782858E+00</totfact>
</mgrwt>
</event>
<event>
12    4  0.4207946E-008  0.1869404E+04  0.7818608E-02  0.8670238E-01
          1   -1    0    0  501    0  0.00000000000E+00  0.00000000000E+00  0.86574428620E+03  0.86574428620E+03  0.00000000000E+00 0. -1.
         -2   -1    0    0    0  501 -0.00000000000E+00 -0.00000000000E+00 -0.10091518934E+04  0.10091518934E+04  0.00000000000E+00 0.  1.
        -24    2    1    2    0    0 -0.41413411876E+03 -0.62035500747E+03 -0.25201924442E+03  0.79129940894E+03  0.79332536947E+02 0.  0.
        254    2    1    2    0    0  0.41413411876E+03  0.62035500747E+03  0.10861163718E+03  0.10835967707E+04  0.77848447006E+03 0.  0.
         23    2    4    4    0    0  0.45424182425E+03  0.81121435666E+02  0.22740166353E+03  0.52249671053E+03  0.91514882480E+02 0.  0.
         23    2    4    4    0    0 -0.40107705498E+02  0.53923357181E+03 -0.11879002635E+03  0.56110006017E+03  0.91327619906E+02 0.  0.
          3    1    3    3  502    0 -0.26636561763E+03 -0.40641941258E+03 -0.12408749506E+03  0.50152276878E+03  0.00000000000E+00 0. -1.
         -4    1    3    3    0  502 -0.14776850112E+03 -0.21393559489E+03 -0.12793174936E+03  0.28977664016E+03  0.00000000000E+00 0.  1.
         11    1    5    5    0    0  0.28071631439E+03  0.13625091883E+02  0.10677551113E+03  0.30064647357E+03  0.00000000000E+00 0.  1.
        -11    1    5    5    0    0  0.17352550987E+03  0.67496343783E+02  0.12062615240E+03  0.22185023696E+03  0.00000000000E+00 0. -1.
          1    1    6    6  503    0 -0.14870419423E+02  0.33430319890E+03 -0.11735912255E+03  0.35461658424E+03  0.00000000000E+00 0. -1.
         -1    1    6    6    0  503 -0.25237286075E+02  0.20493037291E+03 -0.14309037994E+01  0.20648347593E+03  0.00000000000E+00 0.  1.
<mgrwt>
<rscale>  0 0.18694036E+04</rscale>
<asrwt>0</asrwt>
<pdfrwt beam="1">  1        1 0.13319143E+00 0.18694036E+04</pdfrwt>
<pdfrwt beam="2">  1       -2 0.15525414E+00 0.18694036E+04</pdfrwt>
<totfact> 0.43630252E+00</totfact>
</mgrwt>
</event>
<event>
12    4  0.4207946E-008  0.3259152E+04  0.7818608E-02  0.8173368E-01
         -2   -1    0    0    0  501 -0.00000000000E+00  0.00000000000E+00  0.58704955608E+03  0.58704955608E+03  0.00000000000E+00 0.  1.
          1   -1    0    0  501    0  0.00000000000E+00 -0.00000000000E+00 -0.45234991960E+04  0.45234991960E+04  0.00000000000E+00 0. -1.
        -24    2    1    2    0    0  0.78090728534E+03 -0.69261641230E+03 -0.34929865123E+04  0.36465065374E+04  0.80755611927E+02 0.  0.
        254    2    1    2    0    0 -0.78090728534E+03  0.69261641230E+03 -0.44346312759E+03  0.14640422147E+04  0.92586520510E+03 0.  0.
         23    2    4    4    0    0 -0.27946280720E+03  0.81310754875E+03 -0.34617665284E+03  0.93126313831E+03  0.90384796016E+02 0.  0.
         23    2    4    4    0    0 -0.50144447814E+03 -0.12049113645E+03 -0.97286474742E+02  0.53277907639E+03  0.91783481393E+02 0.  0.
          1    1    3    3  502    0  0.72478500639E+03 -0.63851564317E+03 -0.32971391975E+04  0.34357157070E+04  0.00000000000E+00 0. -1.
         -2    1    3    3    0  502  0.56122278948E+02 -0.54100769135E+02 -0.19584731486E+03  0.21079083034E+03  0.00000000000E+00 0.  1.
         11    1    5    5    0    0 -0.95686077558E+02  0.38473398928E+03 -0.19028730603E+03  0.43975598549E+03  0.00000000000E+00 0. -1.
        -11    1    5    5    0    0 -0.18377672964E+03  0.42837355948E+03 -0.15588934682E+03  0.49150715282E+03  0.00000000000E+00 0.  1.
          1    1    6    6  503    0 -0.23578262632E+03 -0.98194167893E+01 -0.40474225180E+02  0.23943272693E+03  0.00000000000E+00 0. -1.
         -1    1    6    6    0  503 -0.26566185182E+03 -0.11067171966E+03 -0.56812249562E+02  0.29334634947E+03  0.00000000000E+00 0.  1.
<mgrwt>
<rscale>  0 0.32591522E+04</rscale>
<asrwt>0</asrwt>
<pdfrwt beam="1">  1        1 0.69592297E+00 0.32591522E+04</pdfrwt>
<pdfrwt beam="2">  1       -2 0.90315314E-01 0.32591522E+04</pdfrwt>
<totfact> 0.23354099E-02</totfact>
</mgrwt>
</event>
<event>
12    4  0.4207946E-008  0.1809206E+04  0.7818608E-02  0.8701419E-01
          1   -1    0    0  501    0  0.00000000000E+00  0.00000000000E+00  0.35739683925E+03  0.35739683925E+03  0.00000000000E+00 0. -1.
         -2   -1    0    0    0  501 -0.00000000000E+00 -0.00000000000E+00 -0.22896307474E+04  0.22896307474E+04  0.00000000000E+00 0.  1.
        -24    2    1    2    0    0  0.13482627780E+03  0.46489275345E+03 -0.14118325981E+04  0.14946201529E+04  0.79465206473E+02 0.  0.
        254    2    1    2    0    0 -0.13482627780E+03 -0.46489275345E+03 -0.52040131004E+03  0.11524074337E+04  0.90715046847E+03 0.  0.
         23    2    4    4    0    0 -0.33477680520E+03 -0.13715108218E+03 -0.63935679742E+03  0.74024633112E+03  0.91113048946E+02 0.  0.
         23    2    4    4    0    0  0.19995052739E+03 -0.32774167126E+03  0.11895548738E+03  0.41216110262E+03  0.91277324919E+02 0.  0.
          3    1    3    3  502    0  0.76671353288E+01  0.15675439883E+03 -0.47407801904E+03  0.49938031064E+03  0.00000000000E+00 0. -1.
         -4    1    3    3    0  502  0.12715914247E+03  0.30813835462E+03 -0.93775457908E+03  0.99523984229E+03  0.00000000000E+00 0.  1.
         11    1    5    5    0    0 -0.11147168234E+03 -0.78135517093E+02 -0.17589087633E+03  0.22241559157E+03  0.00000000000E+00 0. -1.
        -11    1    5    5    0    0 -0.22330512285E+03 -0.59015565089E+02 -0.46346592108E+03  0.51783073955E+03  0.00000000000E+00 0.  1.
          4    1    6    6  503    0  0.76864995524E+02 -0.88796150053E+02  0.76198785164E+02  0.13999728091E+03  0.00000000000E+00 0. -1.
         -4    1    6    6    0  503  0.12308553187E+03 -0.23894552121E+03  0.42756702213E+02  0.27216382171E+03  0.00000000000E+00 0.  1.
<mgrwt>
<rscale>  0 0.18092062E+04</rscale>
<asrwt>0</asrwt>
<pdfrwt beam="1">  1        1 0.54984127E-01 0.18092062E+04</pdfrwt>
<pdfrwt beam="2">  1       -2 0.35225090E+00 0.18092062E+04</pdfrwt>
<totfact> 0.86806685E-01</totfact>
</mgrwt>
</event>
<event>
12    4  0.4207946E-008  0.1381500E+04  0.7818608E-02  0.8967319E-01
          1   -1    0    0  501    0  0.00000000000E+00  0.00000000000E+00  0.11803566975E+04  0.11803566975E+04  0.00000000000E+00 0. -1.
         -2   -1    0    0    0  501 -0.00000000000E+00 -0.00000000000E+00 -0.40423018724E+03  0.40423018724E+03  0.00000000000E+00 0.  1.
        -24    2    1    2    0    0  0.16904194391E+03  0.35787025163E+02 -0.17045979049E+03  0.25579120150E+03  0.80726133432E+02 0.  0.
        254    2    1    2    0    0 -0.16904194391E+03 -0.35787025163E+02  0.94658630077E+03  0.13287956833E+04  0.91641500047E+03 0.  0.
         23    2    4    4    0    0 -0.16254964557E+03 -0.46019044426E+03  0.46033624802E+03  0.67690598610E+03  0.89970108973E+02 0.  0.
         23    2    4    4    0    0 -0.64922983404E+01  0.42440341910E+03  0.48625005275E+03  0.65188969717E+03  0.91436597724E+02 0.  0.
          1    1    3    3  502    0  0.48401013289E+02  0.37839597328E+02 -0.96098706774E+02  0.11405899639E+03  0.00000000000E+00 0. -1.
         -2    1    3    3    0  502  0.12064093063E+03 -0.20525721651E+01 -0.74361083714E+02  0.14173220511E+03  0.00000000000E+00 0.  1.
         11    1    5    5    0    0 -0.97613373575E+01 -0.12273968357E+03  0.85406793338E+02  0.14984870363E+03  0.00000000000E+00 0.  1.
        -11    1    5    5    0    0 -0.15278830822E+03 -0.33745076068E+03  0.37492945468E+03  0.52705728247E+03  0.00000000000E+00 0. -1.
          1    1    6    6  503    0 -0.48161437458E+02  0.24170605927E+03  0.28901695456E+03  0.37983173007E+03  0.00000000000E+00 0. -1.
         -1    1    6    6    0  503  0.41669139117E+02  0.18269735982E+03  0.19723309819E+03  0.27205796710E+03  0.00000000000E+00 0.  1.
<mgrwt>
<rscale>  0 0.13815004E+04</rscale>
<asrwt>0</asrwt>
<pdfrwt beam="1">  1        1 0.18159334E+00 0.13815004E+04</pdfrwt>
<pdfrwt beam="2">  1       -2 0.62189260E-01 0.13815004E+04</pdfrwt>
<totfact> 0.22703922E+01</totfact>
</mgrwt>
</event>
<event>
12    4  0.4207946E-008  0.2363813E+04  0.7818608E-02  0.8453177E-01
          1   -1    0    0  501    0  0.00000000000E+00  0.00000000000E+00  0.98142913744E+03  0.98142913744E+03  0.00000000000E+00 0. -1.
         -2   -1    0    0    0  501 -0.00000000000E+00 -0.00000000000E+00 -0.14233354469E+04  0.14233354469E+04  0.00000000000E+00 0.  1.
        -24    2    1    2    0    0 -0.21162383575E+03 -0.23444699714E+03 -0.11638993929E+04  0.12085869861E+04  0.79187523427E+02 0.  0.
        254    2    1    2    0    0  0.21162383575E+03  0.23444699714E+03  0.72199308344E+03  0.11961775982E+04  0.89989821183E+03 0.  0.
         23    2    4    4    0    0 -0.55003933279E+02 -0.45779015719E+01 -0.18624153064E+03  0.21572118113E+03  0.93826064572E+02 0.  0.
         23    2    4    4    0    0  0.26662776902E+03  0.23902489871E+03  0.90823461408E+03  0.98045641711E+03  0.90451104001E+02 0.  0.
          3    1    3    3  502    0 -0.12803556085E+02 -0.58751394158E+02 -0.20109888163E+03  0.20989620663E+03  0.00000000000E+00 0. -1.
         -2    1    3    3    0  502 -0.19882027966E+03 -0.17569560298E+03 -0.96280051131E+03  0.99869077952E+03  0.00000000000E+00 0.  1.
         11    1    5    5    0    0 -0.34601418431E+02 -0.48564146864E+02 -0.90108566294E+02  0.10805224772E+03  0.00000000000E+00 0. -1.
        -11    1    5    5    0    0 -0.20402514848E+02  0.43986245292E+02 -0.96132964344E+02  0.10766893341E+03  0.00000000000E+00 0.  1.
          4    1    6    6  503    0  0.23555405333E+03  0.24225574497E+03  0.83980563596E+03  0.90523315461E+03  0.00000000000E+00 0.  1.
         -4    1    6    6    0  503  0.31073715695E+02 -0.32308462564E+01  0.68428978122E+02  0.75223262502E+02  0.00000000000E+00 0. -1.
<mgrwt>
<rscale>  0 0.23638129E+04</rscale>
<asrwt>0</asrwt>
<pdfrwt beam="1">  1        1 0.15098910E+00 0.23638129E+04</pdfrwt>
<pdfrwt beam="2">  1       -2 0.21897468E+00 0.23638129E+04</pdfrwt>
<totfact> 0.12373376E+00</totfact>
</mgrwt>
</event>
<event>
12    4  0.4207946E-008  0.1379319E+04  0.7818608E-02  0.8968926E-01
          1   -1    0    0  501    0  0.00000000000E+00  0.00000000000E+00  0.15942981683E+04  0.15942981683E+04  0.00000000000E+00 0. -1.
         -2   -1    0    0    0  501 -0.00000000000E+00 -0.00000000000E+00 -0.29833210433E+03  0.29833210433E+03  0.00000000000E+00 0.  1.
        -24    2    1    2    0    0  0.21538840769E+03  0.14515426494E+03  0.77346756382E+03  0.81982686712E+03  0.80013079990E+02 0.  0.
        254    2    1    2    0    0 -0.21538840769E+03 -0.14515426494E+03  0.52249850013E+03  0.10728034055E+04  0.90024470972E+03 0.  0.
         23    2    4    4    0    0 -0.32066287104E+03 -0.44368447112E+03  0.15110293995E+03  0.57562966552E+03  0.94004396694E+02 0.  0.
         23    2    4    4    0    0  0.10527446334E+03  0.29853020618E+03  0.37139556018E+03  0.49717373996E+03  0.95100309953E+02 0.  0.
          1    1    3    3  502    0  0.13372138812E+03  0.79653240083E+02  0.57179582755E+03  0.59260148220E+03  0.00000000000E+00 0. -1.
         -2    1    3    3    0  502  0.81667019574E+02  0.65501024858E+02  0.20167173627E+03  0.22722538492E+03  0.00000000000E+00 0.  1.
         11    1    5    5    0    0 -0.18916716474E+03 -0.22827444968E+03  0.37376363743E+02  0.29881504841E+03  0.00000000000E+00 0.  1.
        -11    1    5    5    0    0 -0.13149570630E+03 -0.21541002144E+03  0.11372657620E+03  0.27681461711E+03  0.00000000000E+00 0. -1.
          3    1    6    6  503    0  0.21323885415E+02  0.11689244457E+03  0.78351092855E+02  0.14232865291E+03  0.00000000000E+00 0. -1.
         -3    1    6    6    0  503  0.83950577927E+02  0.18163776160E+03  0.29304446732E+03  0.35484508705E+03  0.00000000000E+00 0.  1.
<mgrwt>
<rscale>  0 0.13793191E+04</rscale>
<asrwt>0</asrwt>
<pdfrwt beam="1">  1        1 0.24527664E+00 0.13793191E+04</pdfrwt>
<pdfrwt beam="2">  1       -2 0.45897248E-01 0.13793191E+04</pdfrwt>
<totfact> 0.21723087E+01</totfact>
</mgrwt>
</event>
<event>
12    4  0.4207946E-008  0.2567133E+04  0.7818608E-02  0.8379452E-01
         -2   -1    0    0    0  501 -0.00000000000E+00  0.00000000000E+00  0.18019397037E+04  0.18019397037E+04  0.00000000000E+00 0.  1.
          1   -1    0    0  501    0  0.00000000000E+00 -0.00000000000E+00 -0.91431602096E+03  0.91431602096E+03  0.00000000000E+00 0. -1.
        -24    2    1    2    0    0  0.23381766742E+03 -0.67739507635E+03 -0.50763235938E+03  0.88182079772E+03  0.79890649882E+02 0.  0.
        254    2    1    2    0    0 -0.23381766742E+03  0.67739507635E+03  0.13952560421E+04  0.18344349269E+04  0.95125038084E+03 0.  0.
         23    2    4    4    0    0 -0.91735841708E+02  0.17012789872E+03  0.12665708996E+04  0.12845360248E+04  0.92043406333E+02 0.  0.
         23    2    4    4    0    0 -0.14208182571E+03  0.50726717763E+03  0.12868514246E+03  0.54989890212E+03  0.91223363023E+02 0.  0.
          3    1    3    3  502    0  0.17687135440E+03 -0.56930133630E+03 -0.39112482969E+03  0.71299798030E+03  0.00000000000E+00 0. -1.
         -4    1    3    3    0  502  0.56946313024E+02 -0.10809374005E+03 -0.11650752969E+03  0.16882281741E+03  0.00000000000E+00 0.  1.
         11    1    5    5    0    0 -0.76744022094E+01 -0.38609374555E+01  0.99513864220E+01  0.13146610933E+02  0.00000000000E+00 0. -1.
        -11    1    5    5    0    0 -0.84061439499E+02  0.17398883618E+03  0.12566195132E+04  0.12713894139E+04  0.00000000000E+00 0.  1.
          1    1    6    6  503    0 -0.59576297434E+02  0.29405882742E+03  0.32196543917E+02  0.30175577317E+03  0.00000000000E+00 0. -1.
         -1    1    6    6    0  503 -0.82505528281E+02  0.21320835021E+03  0.96488598547E+02  0.24814312895E+03  0.00000000000E+00 0.  1.
<mgrwt>
<rscale>  0 0.25671325E+04</rscale>
<asrwt>0</asrwt>
<pdfrwt beam="1">  1        1 0.14066400E+00 0.25671325E+04</pdfrwt>
<pdfrwt beam="2">  1       -2 0.27722149E+00 0.25671325E+04</pdfrwt>
<totfact> 0.60079870E-01</totfact>
</mgrwt>
</event>
<event>
12    4  0.4207946E-008  0.2197358E+04  0.7818608E-02  0.8519528E-01
         -2   -1    0    0    0  501 -0.00000000000E+00  0.00000000000E+00  0.90323923877E+03  0.90323923877E+03  0.00000000000E+00 0.  1.
          1   -1    0    0  501    0  0.00000000000E+00 -0.00000000000E+00 -0.13364079143E+04  0.13364079143E+04  0.00000000000E+00 0. -1.
        -24    2    1    2    0    0 -0.71952801812E+03  0.47049400972E+03  0.15485315762E+03  0.87722866458E+03  0.80408006330E+02 0.  0.
        254    2    1    2    0    0  0.71952801812E+03 -0.47049400972E+03 -0.58802183316E+03  0.13624184885E+04  0.87825353942E+03 0.  0.
         23    2    4    4    0    0  0.88149849057E+03 -0.40695935336E+03 -0.31271359636E+03  0.10241454758E+04  0.91807723159E+02 0.  0.
         23    2    4    4    0    0 -0.16197047245E+03 -0.63534656367E+02 -0.27530823680E+03  0.33827301274E+03  0.91448998873E+02 0.  0.
          1    1    3    3  502    0 -0.12783406463E+02  0.13613154236E+02  0.15367392682E+02  0.24184503445E+02  0.00000000000E+00 0. -1.
         -2    1    3    3    0  502 -0.70674461166E+03  0.45688085549E+03  0.13948576494E+03  0.85304416113E+03  0.00000000000E+00 0.  1.
         11    1    5    5    0    0  0.38818306978E+03 -0.13170539356E+03 -0.11692153420E+03  0.42626640908E+03  0.00000000000E+00 0.  1.
        -11    1    5    5    0    0  0.49331542079E+03 -0.27525395980E+03 -0.19579206216E+03  0.59787906669E+03  0.00000000000E+00 0. -1.
          2    1    6    6  503    0 -0.11159436175E+01 -0.28060080336E+02 -0.67436363052E+02  0.73049822042E+02  0.00000000000E+00 0. -1.
         -2    1    6    6    0  503 -0.16085452883E+03 -0.35474576031E+02 -0.20787187375E+03  0.26522319070E+03  0.00000000000E+00 0.  1.
<mgrwt>
<rscale>  0 0.21973585E+04</rscale>
<asrwt>0</asrwt>
<pdfrwt beam="1">  1        1 0.20560122E+00 0.21973585E+04</pdfrwt>
<pdfrwt beam="2">  1       -2 0.13895988E+00 0.21973585E+04</pdfrwt>
<totfact> 0.24971575E+00</totfact>
</mgrwt>
</event>
<event>
12    4  0.4207946E-008  0.2876127E+04  0.7818608E-02  0.8280016E-01
         -2   -1    0    0    0  501 -0.00000000000E+00  0.00000000000E+00  0.15069336110E+04  0.15069336110E+04  0.00000000000E+00 0.  1.
          1   -1    0    0  501    0  0.00000000000E+00 -0.00000000000E+00 -0.13723412044E+04  0.13723412044E+04  0.00000000000E+00 0. -1.
        -24    2    1    2    0    0 -0.47436839377E+02  0.77901078399E+03  0.10897445205E+04  0.13428933942E+04  0.81923702735E+02 0.  0.
        254    2    1    2    0    0  0.47436839377E+02 -0.77901078399E+03 -0.95515211388E+03  0.15363814211E+04  0.91599358910E+03 0.  0.
         23    2    4    4    0    0 -0.11495143986E+03 -0.22645945300E+02 -0.70017476593E+03  0.71645726102E+03  0.96641769726E+02 0.  0.
         23    2    4    4    0    0  0.16238827924E+03 -0.75636483869E+03 -0.25497734795E+03  0.81992416012E+03  0.93832073097E+02 0.  0.
          1    1    3    3  502    0  0.10743104886E+01  0.38222358113E+03  0.47635062206E+03  0.61074211845E+03  0.00000000000E+00 0. -1.
         -2    1    3    3    0  502 -0.48511149866E+02  0.39678720286E+03  0.61339389843E+03  0.73215127579E+03  0.00000000000E+00 0.  1.
         11    1    5    5    0    0 -0.11711327560E+03 -0.33664506304E+02 -0.69179846161E+03  0.70244852466E+03  0.00000000000E+00 0. -1.
        -11    1    5    5    0    0  0.21618357395E+01  0.11018561004E+02 -0.83763043187E+01  0.14008736360E+02  0.00000000000E+00 0.  1.
          1    1    6    6  503    0  0.11566683735E+03 -0.50516432741E+03 -0.21604298431E+03  0.56146628218E+03  0.00000000000E+00 0. -1.
         -1    1    6    6    0  503  0.46721441886E+02 -0.25120051128E+03 -0.38934363634E+02  0.25845787794E+03  0.00000000000E+00 0.  1.
<mgrwt>
<rscale>  0 0.28761273E+04</rscale>
<asrwt>0</asrwt>
<pdfrwt beam="1">  1        1 0.21112942E+00 0.28761273E+04</pdfrwt>
<pdfrwt beam="2">  1       -2 0.23183594E+00 0.28761273E+04</pdfrwt>
<totfact> 0.50528824E-01</totfact>
</mgrwt>
</event>
<event>
12    4  0.4207946E-008  0.1455523E+04  0.7818608E-02  0.8914580E-01
         -2   -1    0    0    0  501 -0.00000000000E+00  0.00000000000E+00  0.83846328067E+03  0.83846328067E+03  0.00000000000E+00 0.  1.
          1   -1    0    0  501    0  0.00000000000E+00 -0.00000000000E+00 -0.63167597658E+03  0.63167597658E+03  0.00000000000E+00 0. -1.
        -24    2    1    2    0    0 -0.70605464783E+01 -0.41114418424E+03  0.21651358823E+03  0.47093671643E+03  0.76248707784E+02 0.  0.
        254    2    1    2    0    0  0.70605464783E+01  0.41114418424E+03 -0.97262841431E+01  0.99920254083E+03  0.91061612408E+03 0.  0.
         23    2    4    4    0    0 -0.27133236118E+03  0.36577527735E+03 -0.32496353908E+03  0.56658655411E+03  0.89477471078E+02 0.  0.
         23    2    4    4    0    0  0.27839290766E+03  0.45368906898E+02  0.31523725494E+03  0.43261598671E+03  0.90670371752E+02 0.  0.
          3    1    3    3  502    0  0.24203256889E+02 -0.25197742508E+03  0.10475723725E+03  0.27395711189E+03  0.00000000000E+00 0. -1.
         -4    1    3    3    0  502 -0.31263803368E+02 -0.15916675916E+03  0.11175635098E+03  0.19697960454E+03  0.00000000000E+00 0.  1.
         11    1    5    5    0    0 -0.14149696290E+03  0.22776058152E+03 -0.23622915951E+03  0.35735205164E+03  0.00000000000E+00 0.  1.
        -11    1    5    5    0    0 -0.12983539828E+03  0.13801469582E+03 -0.88734379570E+02  0.20923450248E+03  0.00000000000E+00 0. -1.
          1    1    6    6  503    0  0.13454270144E+03  0.28976998377E+02  0.88598905332E+02  0.16368008728E+03  0.00000000000E+00 0. -1.
         -1    1    6    6    0  503  0.14385020622E+03  0.16391908521E+02  0.22663834960E+03  0.26893589944E+03  0.00000000000E+00 0.  1.
<mgrwt>
<rscale>  0 0.14555234E+04</rscale>
<asrwt>0</asrwt>
<pdfrwt beam="1">  1        1 0.97180919E-01 0.14555234E+04</pdfrwt>
<pdfrwt beam="2">  1       -2 0.12899435E+00 0.14555234E+04</pdfrwt>
<totfact> 0.11952829E+01</totfact>
</mgrwt>
</event>
<event>
12    4  0.4207946E-008  0.1062063E+04  0.7818608E-02  0.9242978E-01
         -2   -1    0    0    0  501 -0.00000000000E+00  0.00000000000E+00  0.97698287915E+03  0.97698287915E+03  0.00000000000E+00 0.  1.
          1   -1    0    0  501    0  0.00000000000E+00 -0.00000000000E+00 -0.28863812654E+03  0.28863812654E+03  0.00000000000E+00 0. -1.
        -24    2    1    2    0    0  0.61224608771E+02  0.42399524591E+01  0.24695967031E+03  0.26636559083E+03  0.78709080159E+02 0.  0.
        254    2    1    2    0    0 -0.61224608771E+02 -0.42399524591E+01  0.44138508230E+03  0.99925541486E+03  0.89438479601E+03 0.  0.
         23    2    4    4    0    0 -0.96290677155E+02 -0.73391531831E+02  0.69870577695E+03  0.71548868075E+03  0.95268452735E+02 0.  0.
         23    2    4    4    0    0  0.35066068384E+02  0.69151579372E+02 -0.25732069465E+03  0.28376673411E+03  0.91093629923E+02 0.  0.
          1    1    3    3  502    0 -0.24664933692E+01  0.27709907935E+02  0.41315011111E+02  0.49808159276E+02  0.00000000000E+00 0. -1.
         -2    1    3    3    0  502  0.63691102140E+02 -0.23469955476E+02  0.20564465920E+03  0.21655743155E+03  0.00000000000E+00 0.  1.
         11    1    5    5    0    0 -0.17955958262E+02 -0.26824576904E+02  0.44547598294E+02  0.55013297274E+02  0.00000000000E+00 0. -1.
        -11    1    5    5    0    0 -0.78334718893E+02 -0.46566954927E+02  0.65415817866E+03  0.66047538348E+03  0.00000000000E+00 0.  1.
          1    1    6    6  503    0 -0.29083161053E+02  0.18517532231E+02 -0.48350782562E+02  0.59384572332E+02  0.00000000000E+00 0. -1.
         -1    1    6    6    0  503  0.64149229437E+02  0.50634047141E+02 -0.20896991209E+03  0.22438216178E+03  0.00000000000E+00 0.  1.
<mgrwt>
<rscale>  0 0.10620631E+04</rscale>
<asrwt>0</asrwt>
<pdfrwt beam="1">  1        1 0.44405866E-01 0.10620631E+04</pdfrwt>
<pdfrwt beam="2">  1       -2 0.15030506E+00 0.10620631E+04</pdfrwt>
<totfact> 0.23922094E+01</totfact>
</mgrwt>
</event>
<event>
12    4  0.4207946E-008  0.1215809E+04  0.7818608E-02  0.9099130E-01
          1   -1    0    0  501    0  0.00000000000E+00  0.00000000000E+00  0.37051507816E+03  0.37051507816E+03  0.00000000000E+00 0. -1.
         -2   -1    0    0    0  501 -0.00000000000E+00 -0.00000000000E+00 -0.99738969229E+03  0.99738969229E+03  0.00000000000E+00 0.  1.
        -24    2    1    2    0    0  0.25352377800E+02 -0.20714888334E+03  0.37778236681E+02  0.23734101128E+03  0.10653711812E+03 0.  0.
        254    2    1    2    0    0 -0.25352377800E+02  0.20714888334E+03 -0.66465285081E+03  0.11305637592E+04  0.89042551543E+03 0.  0.
         23    2    4    4    0    0 -0.30383575123E+03 -0.49804275357E+01 -0.69874100032E+03  0.76732991134E+03  0.90637955246E+02 0.  0.
         23    2    4    4    0    0  0.27848337343E+03  0.21212931088E+03  0.34088149507E+02  0.36323384783E+03  0.90691744187E+02 0.  0.
          1    1    3    3  502    0  0.66614422097E+02 -0.12361367771E+03  0.31821010368E+02  0.14398055163E+03  0.00000000000E+00 0. -1.
         -2    1    3    3    0  502 -0.41262044297E+02 -0.83535205637E+02  0.59572263132E+01  0.93360459649E+02  0.00000000000E+00 0.  1.
         11    1    5    5    0    0 -0.70916449172E+02  0.23576284235E+02 -0.25006159555E+03  0.26099001037E+03  0.00000000000E+00 0. -1.
        -11    1    5    5    0    0 -0.23291930206E+03 -0.28556711771E+02 -0.44867940476E+03  0.50633990097E+03  0.00000000000E+00 0.  1.
          4    1    6    6  503    0  0.11396011797E+03  0.59581367595E+02  0.50762084779E+02  0.13825207812E+03  0.00000000000E+00 0. -1.
         -4    1    6    6    0  503  0.16452325546E+03  0.15254794328E+03 -0.16673935273E+02  0.22498176971E+03  0.00000000000E+00 0.  1.
<mgrwt>
<rscale>  0 0.12158091E+04</rscale>
<asrwt>0</asrwt>
<pdfrwt beam="1">  1        1 0.57002320E-01 0.12158091E+04</pdfrwt>
<pdfrwt beam="2">  1       -2 0.15344457E+00 0.12158091E+04</pdfrwt>
<totfact> 0.16159553E+01</totfact>
</mgrwt>
</event>
<event>
12    4  0.4207946E-008  0.1819521E+04  0.7818608E-02  0.8695987E-01
         -2   -1    0    0    0  501 -0.00000000000E+00  0.00000000000E+00  0.13487370127E+04  0.13487370127E+04  0.00000000000E+00 0.  1.
          1   -1    0    0  501    0  0.00000000000E+00 -0.00000000000E+00 -0.61365883548E+03  0.61365883548E+03  0.00000000000E+00 0. -1.
        -24    2    1    2    0    0  0.17356159215E+03 -0.65172042318E+03  0.35023105565E+03  0.76415114526E+03  0.80012775228E+02 0.  0.
        254    2    1    2    0    0 -0.17356159215E+03  0.65172042318E+03  0.38484712156E+03  0.11982447029E+04  0.91258968042E+03 0.  0.
         23    2    4    4    0    0 -0.10623537405E+03  0.75693718721E+03 -0.14054070660E+02  0.76992453802E+03  0.91358728467E+02 0.  0.
         23    2    4    4    0    0 -0.67326218106E+02 -0.10521676404E+03  0.39890119222E+03  0.42832016488E+03  0.93448463912E+02 0.  0.
          1    1    3    3  502    0  0.14648458202E+03 -0.50820707947E+03  0.30835234564E+03  0.61222000739E+03  0.00000000000E+00 0. -1.
         -2    1    3    3    0  502  0.27077010137E+02 -0.14351334371E+03  0.41878710005E+02  0.15193113786E+03  0.00000000000E+00 0.  1.
         11    1    5    5    0    0 -0.93030994750E+02  0.46888696192E+03  0.26361594457E+02  0.47875325869E+03  0.00000000000E+00 0.  1.
        -11    1    5    5    0    0 -0.13204379299E+02  0.28805022529E+03 -0.40415665117E+02  0.29117127934E+03  0.00000000000E+00 0. -1.
          3    1    6    6  503    0  0.12253014639E+02 -0.28519066777E+02  0.29809618490E+02  0.43035879125E+02  0.00000000000E+00 0.  1.
         -3    1    6    6    0  503 -0.79579232745E+02 -0.76697697258E+02  0.36909157373E+03  0.38528428575E+03  0.00000000000E+00 0. -1.
<mgrwt>
<rscale>  0 0.18195212E+04</rscale>
<asrwt>0</asrwt>
<pdfrwt beam="1">  1        1 0.94409052E-01 0.18195212E+04</pdfrwt>
<pdfrwt beam="2">  1       -2 0.20749800E+00 0.18195212E+04</pdfrwt>
<totfact> 0.32464983E+00</totfact>
</mgrwt>
</event>
<event>
12    4  0.4207946E-008  0.1859047E+04  0.7818608E-02  0.8675514E-01
         -2   -1    0    0    0  501 -0.00000000000E+00  0.00000000000E+00  0.47656563276E+03  0.47656563276E+03  0.00000000000E+00 0.  1.
          1   -1    0    0  501    0  0.00000000000E+00 -0.00000000000E+00 -0.18130009219E+04  0.18130009219E+04  0.00000000000E+00 0. -1.
        -24    2    1    2    0    0 -0.66346940814E+03  0.32475411467E+03 -0.35567464908E+03  0.82386290085E+03  0.81171009993E+02 0.  0.
        254    2    1    2    0    0  0.66346940814E+03 -0.32475411467E+03 -0.98076064009E+03  0.14657036538E+04  0.80046166504E+03 0.  0.
         23    2    4    4    0    0  0.57012675410E+03 -0.35141950629E+03 -0.10962266930E+04  0.12879880860E+04  0.93059992152E+02 0.  0.
         23    2    4    4    0    0  0.93342654044E+02  0.26665391617E+02  0.11546605288E+03  0.17771556785E+03  0.93949558366E+02 0.  0.
          3    1    3    3  502    0 -0.60187371409E+02  0.42336056800E+02 -0.60559673771E+02  0.95301287871E+02  0.00000000000E+00 0. -1.
         -4    1    3    3    0  502 -0.60328203673E+03  0.28241805787E+03 -0.29511497531E+03  0.72856161298E+03  0.00000000000E+00 0.  1.
         11    1    5    5    0    0  0.47389117032E+03 -0.32638289854E+03 -0.96171082242E+03  0.11207079654E+04  0.00000000000E+00 0. -1.
        -11    1    5    5    0    0  0.96235583783E+02 -0.25036607745E+02 -0.13451587054E+03  0.16728012058E+03  0.00000000000E+00 0.  1.
          3    1    6    6  503    0  0.10618154278E+03  0.39842632575E+02  0.11119653857E+03  0.15882891924E+03  0.00000000000E+00 0. -1.
         -3    1    6    6    0  503 -0.12838888739E+02 -0.13177240959E+02  0.42695143054E+01  0.18886648610E+02  0.00000000000E+00 0.  1.
<mgrwt>
<rscale>  0 0.18590470E+04</rscale>
<asrwt>0</asrwt>
<pdfrwt beam="1">  1        1 0.27892322E+00 0.18590470E+04</pdfrwt>
<pdfrwt beam="2">  1       -2 0.73317790E-01 0.18590470E+04</pdfrwt>
<totfact> 0.55248226E+00</totfact>
</mgrwt>
</event>
<event>
12    4  0.4207946E-008  0.1469807E+04  0.7818608E-02  0.8904783E-01
          1   -1    0    0  501    0  0.00000000000E+00  0.00000000000E+00  0.10966849470E+04  0.10966849470E+04  0.00000000000E+00 0. -1.
         -2   -1    0    0    0  501 -0.00000000000E+00 -0.00000000000E+00 -0.49246854717E+03  0.49246854717E+03  0.00000000000E+00 0.  1.
        -24    2    1    2    0    0  0.28830426192E+03  0.30328248042E+03  0.39499713840E+03  0.58084482820E+03  0.79109826977E+02 0.  0.
        254    2    1    2    0    0 -0.28830426192E+03 -0.30328248042E+03  0.20921926141E+03  0.10083086659E+04  0.89320437533E+03 0.  0.
         23    2    4    4    0    0 -0.59908564887E+03 -0.13316167936E+03  0.15104625901E+03  0.63798248295E+03  0.87011658152E+02 0.  0.
         23    2    4    4    0    0  0.31078138695E+03 -0.17012080107E+03  0.58173002401E+02  0.37032618300E+03  0.90726105247E+02 0.  0.
          3    1    3    3  502    0  0.24089212192E+03  0.27212925721E+03  0.37068066388E+03  0.51912185622E+03  0.00000000000E+00 0. -1.
         -4    1    3    3    0  502  0.47412140002E+02  0.31153223217E+02  0.24316474516E+02  0.61722971974E+02  0.00000000000E+00 0.  1.
         11    1    5    5    0    0 -0.17082240445E+02 -0.52559242624E+01 -0.10306381100E+02  0.20631266802E+02  0.00000000000E+00 0.  1.
        -11    1    5    5    0    0 -0.58200340843E+03 -0.12790575509E+03  0.16135264011E+03  0.61735121615E+03  0.00000000000E+00 0. -1.
          1    1    6    6  503    0  0.23050234480E+03 -0.14115087942E+03  0.61145235457E+01  0.27035585645E+03  0.00000000000E+00 0. -1.
         -1    1    6    6    0  503  0.80279042149E+02 -0.28969921651E+02  0.52058478855E+02  0.99970326545E+02  0.00000000000E+00 0.  1.
<mgrwt>
<rscale>  0 0.14698066E+04</rscale>
<asrwt>0</asrwt>
<pdfrwt beam="1">  1        1 0.16872076E+00 0.14698066E+04</pdfrwt>
<pdfrwt beam="2">  1       -2 0.75764392E-01 0.14698066E+04</pdfrwt>
<totfact> 0.16929082E+01</totfact>
</mgrwt>
</event>
<event>
12    4  0.4207946E-008  0.1520352E+04  0.7818608E-02  0.8871031E-01
         -4   -1    0    0    0  501 -0.00000000000E+00  0.00000000000E+00  0.44703258262E+03  0.44703258262E+03  0.00000000000E+00 0.  1.
          3   -1    0    0  501    0  0.00000000000E+00 -0.00000000000E+00 -0.12926735926E+04  0.12926735926E+04  0.00000000000E+00 0. -1.
        -24    2    1    2    0    0  0.86623298722E+02 -0.22224231508E+03 -0.75796744435E+03  0.79862086267E+03  0.79908654693E+02 0.  0.
        254    2    1    2    0    0 -0.86623298722E+02  0.22224231508E+03 -0.87673565616E+02  0.94108531253E+03  0.90612342916E+03 0.  0.
         23    2    4    4    0    0 -0.28986993956E+03 -0.27712850751E+02  0.29980078083E+03  0.42896300865E+03  0.96623861695E+02 0.  0.
         23    2    4    4    0    0  0.20324664084E+03  0.24995516583E+03 -0.38747434645E+03  0.51212230388E+03  0.91357008718E+02 0.  0.
          1    1    3    3  502    0  0.49174681876E+02 -0.19020806475E+03 -0.52637704494E+03  0.56184521950E+03  0.00000000000E+00 0. -1.
         -2    1    3    3    0  502  0.37448616845E+02 -0.32034250331E+02 -0.23159039941E+03  0.23677564317E+03  0.00000000000E+00 0.  1.
         11    1    5    5    0    0 -0.12614248027E+03 -0.21586548665E+02  0.19899221374E+03  0.23659206567E+03  0.00000000000E+00 0. -1.
        -11    1    5    5    0    0 -0.16372745929E+03 -0.61263020869E+01  0.10080856709E+03  0.19237094298E+03  0.00000000000E+00 0.  1.
          4    1    6    6  503    0  0.28486147803E+02  0.99544526069E+02 -0.13622938378E+03  0.17111112849E+03  0.00000000000E+00 0. -1.
         -4    1    6    6    0  503  0.17476049303E+03  0.15041063976E+03 -0.25124496267E+03  0.34101117540E+03  0.00000000000E+00 0.  1.
<mgrwt>
<rscale>  0 0.15203516E+04</rscale>
<asrwt>0</asrwt>
<pdfrwt beam="1">  1        3 0.19887286E+00 0.15203516E+04</pdfrwt>
<pdfrwt beam="2">  1       -4 0.68774244E-01 0.15203516E+04</pdfrwt>
<totfact> 0.64478759E-01</totfact>
</mgrwt>
</event>
<event>
12    4  0.4207946E-008  0.1479016E+04  0.7818608E-02  0.8898528E-01
         -2   -1    0    0    0  501 -0.00000000000E+00  0.00000000000E+00  0.17017388940E+03  0.17017388940E+03  0.00000000000E+00 0.  1.
          1   -1    0    0  501    0  0.00000000000E+00 -0.00000000000E+00 -0.32136096062E+04  0.32136096062E+04  0.00000000000E+00 0. -1.
        -24    2    1    2    0    0 -0.29749439839E+03 -0.25591645766E+02 -0.18133793448E+04  0.18395196470E+04  0.79561512643E+02 0.  0.
        254    2    1    2    0    0  0.29749439839E+03  0.25591645766E+02 -0.12300563720E+04  0.15442638485E+04  0.88462099580E+03 0.  0.
         23    2    4    4    0    0  0.33137828160E+03  0.38594236370E+03 -0.47585277766E+03  0.70264374754E+03  0.92245847294E+02 0.  0.
         23    2    4    4    0    0 -0.33883883208E+02 -0.36035071793E+03 -0.75420359432E+03  0.84162010098E+03  0.92198564189E+02 0.  0.
          3    1    3    3  502    0 -0.28349262999E+03 -0.41628657855E+02 -0.17233192514E+04  0.17469774637E+04  0.00000000000E+00 0. -1.
         -4    1    3    3    0  502 -0.14001768401E+02  0.16037012089E+02 -0.90060093407E+02  0.92542183352E+02  0.00000000000E+00 0.  1.
         11    1    5    5    0    0  0.25538006694E+03  0.28545614635E+03 -0.40772773484E+03  0.55941585233E+03  0.00000000000E+00 0.  1.
        -11    1    5    5    0    0  0.75998214664E+02  0.10048621734E+03 -0.68125042816E+02  0.14322789521E+03  0.00000000000E+00 0. -1.
          3    1    6    6  503    0 -0.46831815200E+02 -0.27215290704E+03 -0.48584711780E+03  0.55884509982E+03  0.00000000000E+00 0. -1.
         -3    1    6    6    0  503  0.12947931992E+02 -0.88197810892E+02 -0.26835647652E+03  0.28277500116E+03  0.00000000000E+00 0.  1.
<mgrwt>
<rscale>  0 0.14790165E+04</rscale>
<asrwt>0</asrwt>
<pdfrwt beam="1">  1        1 0.49440147E+00 0.14790165E+04</pdfrwt>
<pdfrwt beam="2">  1       -2 0.26180599E-01 0.14790165E+04</pdfrwt>
<totfact> 0.47004906E+00</totfact>
</mgrwt>
</event>
<event>
12    4  0.4207946E-008  0.1650672E+04  0.7818608E-02  0.8790009E-01
         -2   -1    0    0    0  501 -0.00000000000E+00  0.00000000000E+00  0.12041406567E+04  0.12041406567E+04  0.00000000000E+00 0.  1.
          1   -1    0    0  501    0  0.00000000000E+00 -0.00000000000E+00 -0.56569757342E+03  0.56569757342E+03  0.00000000000E+00 0. -1.
        -24    2    1    2    0    0 -0.52094385073E+03  0.16023795635E+03  0.31875702808E+02  0.55176614505E+03  0.79819296691E+02 0.  0.
        254    2    1    2    0    0  0.52094385073E+03 -0.16023795635E+03  0.60656738047E+03  0.12180720851E+04  0.90482977357E+03 0.  0.
         23    2    4    4    0    0 -0.13786266121E+02 -0.36792546071E+03  0.49959185519E+03  0.62737392970E+03  0.91906583657E+02 0.  0.
         23    2    4    4    0    0  0.53473011685E+03  0.20768750436E+03  0.10697552528E+03  0.59069815538E+03  0.91706872313E+02 0.  0.
          1    1    3    3  502    0 -0.80269971304E+02  0.14910188658E+02 -0.22198383210E+02  0.84607034200E+02  0.00000000000E+00 0. -1.
         -2    1    3    3    0  502 -0.44067387942E+03  0.14532776770E+03  0.54074086018E+02  0.46715911085E+03  0.00000000000E+00 0.  1.
         11    1    5    5    0    0 -0.26568005060E+02 -0.18362231801E+03  0.31895944256E+03  0.36899612540E+03  0.00000000000E+00 0. -1.
        -11    1    5    5    0    0  0.12781738939E+02 -0.18430314270E+03  0.18063241263E+03  0.25837780430E+03  0.00000000000E+00 0.  1.
          2    1    6    6  503    0  0.18527568154E+03  0.37724249951E+02  0.58814550332E+01  0.18916867795E+03  0.00000000000E+00 0. -1.
         -2    1    6    6    0  503  0.34945443531E+03  0.16996325441E+03  0.10109407025E+03  0.40152947743E+03  0.00000000000E+00 0.  1.
<mgrwt>
<rscale>  0 0.16506719E+04</rscale>
<asrwt>0</asrwt>
<pdfrwt beam="1">  1        1 0.87030396E-01 0.16506719E+04</pdfrwt>
<pdfrwt beam="2">  1       -2 0.18525241E+00 0.16506719E+04</pdfrwt>
<totfact> 0.51964211E+00</totfact>
</mgrwt>
</event>
<event>
12    4  0.4207946E-008  0.1923135E+04  0.7818608E-02  0.8643426E-01
          1   -1    0    0  501    0  0.00000000000E+00  0.00000000000E+00  0.11613522131E+04  0.11613522131E+04  0.00000000000E+00 0. -1.
         -2   -1    0    0    0  501 -0.00000000000E+00 -0.00000000000E+00 -0.79615090104E+03  0.79615090104E+03  0.00000000000E+00 0.  1.
        -24    2    1    2    0    0  0.29409584658E+03 -0.41392103942E+03  0.70892041629E+03  0.87538310773E+03  0.76840320248E+02 0.  0.
        254    2    1    2    0    0 -0.29409584658E+03  0.41392103942E+03 -0.34371910419E+03  0.10821200064E+04  0.89163775823E+03 0.  0.
         23    2    4    4    0    0  0.15938221627E+03 -0.16226301663E+03 -0.22907057450E+03  0.33461058281E+03  0.88084826136E+02 0.  0.
         23    2    4    4    0    0 -0.45347806285E+03  0.57618405606E+03 -0.11464852969E+03  0.74750942363E+03  0.89418304111E+02 0.  0.
          3    1    3    3  502    0  0.22803794633E+03 -0.28182994891E+03  0.54695074706E+03  0.65618941227E+03  0.00000000000E+00 0. -1.
         -4    1    3    3    0  502  0.66057900256E+02 -0.13209109052E+03  0.16196966923E+03  0.21919369547E+03  0.00000000000E+00 0.  1.
         11    1    5    5    0    0  0.41213561132E+02 -0.19862721921E+01 -0.63051212545E+02  0.75352228247E+02  0.00000000000E+00 0.  1.
        -11    1    5    5    0    0  0.11816865514E+03 -0.16027674444E+03 -0.16601936196E+03  0.25925835456E+03  0.00000000000E+00 0. -1.
          1    1    6    6  503    0 -0.30126720365E+03  0.43279459099E+03 -0.55786835833E+02  0.53026904213E+03  0.00000000000E+00 0. -1.
         -1    1    6    6    0  503 -0.15221085920E+03  0.14338946506E+03 -0.58861693855E+02  0.21724038150E+03  0.00000000000E+00 0.  1.
<mgrwt>
<rscale>  0 0.19231345E+04</rscale>
<asrwt>0</asrwt>
<pdfrwt beam="1">  1        1 0.17866957E+00 0.19231345E+04</pdfrwt>
<pdfrwt beam="2">  1       -2 0.12248475E+00 0.19231345E+04</pdfrwt>
<totfact> 0.47144527E+00</totfact>
</mgrwt>
</event>
<event>
12    4  0.4207946E-008  0.1604661E+04  0.7818608E-02  0.8817690E-01
         -4   -1    0    0    0  501 -0.00000000000E+00  0.00000000000E+00  0.13502452544E+03  0.13502452544E+03  0.00000000000E+00 0.  1.
          3   -1    0    0  501    0  0.00000000000E+00 -0.00000000000E+00 -0.47675338976E+04  0.47675338976E+04  0.00000000000E+00 0. -1.
        -24    2    1    2    0    0  0.45833960380E+03  0.32908511549E+03 -0.16863304976E+04  0.17799716757E+04  0.78844236305E+02 0.  0.
        254    2    1    2    0    0 -0.45833960380E+03 -0.32908511549E+03 -0.29461788746E+04  0.31225867474E+04  0.86729800414E+03 0.  0.
         23    2    4    4    0    0 -0.26963010748E+03  0.22439923564E+03 -0.17620509859E+04  0.17987610139E+04  0.87533402810E+02 0.  0.
         23    2    4    4    0    0 -0.18870949632E+03 -0.55348435112E+03 -0.11841278888E+04  0.13238257335E+04  0.91648866272E+02 0.  0.
          1    1    3    3  502    0  0.33222997455E+02  0.46270091637E+02 -0.12743374628E+03  0.13958527369E+03  0.00000000000E+00 0. -1.
         -2    1    3    3    0  502  0.42511660635E+03  0.28281502385E+03 -0.15588967513E+04  0.16403864020E+04  0.00000000000E+00 0.  1.
         11    1    5    5    0    0 -0.22096582824E+03  0.14904137184E+03 -0.14395639607E+04  0.14640299261E+04  0.00000000000E+00 0.  1.
        -11    1    5    5    0    0 -0.48664279247E+02  0.75357863801E+02 -0.32248702520E+03  0.33473108779E+03  0.00000000000E+00 0. -1.
          1    1    6    6  503    0  0.58817902990E+01 -0.72998634358E+02 -0.16040035023E+03  0.17632829730E+03  0.00000000000E+00 0. -1.
         -1    1    6    6    0  503 -0.19459128662E+03 -0.48048571676E+03 -0.10237275385E+04  0.11474974362E+04  0.00000000000E+00 0.  1.
<mgrwt>
<rscale>  0 0.16046607E+04</rscale>
<asrwt>0</asrwt>
<pdfrwt beam="1">  1        3 0.73346671E+00 0.16046607E+04</pdfrwt>
<pdfrwt beam="2">  1       -4 0.20773005E-01 0.16046607E+04</pdfrwt>
<totfact> 0.10038610E-02</totfact>
</mgrwt>
</event>
<event>
12    4  0.4207946E-008  0.2080816E+04  0.7818608E-02  0.8569742E-01
         -4   -1    0    0    0  501 -0.00000000000E+00  0.00000000000E+00  0.98474896355E+03  0.98474896355E+03  0.00000000000E+00 0.  1.
          1   -1    0    0  501    0  0.00000000000E+00 -0.00000000000E+00 -0.10992126381E+04  0.10992126381E+04  0.00000000000E+00 0. -1.
        -24    2    1    2    0    0  0.57901534870E+03 -0.60802650058E+03 -0.10104719447E+03  0.84939148262E+03  0.79374780670E+02 0.  0.
        254    2    1    2    0    0 -0.57901534870E+03  0.60802650058E+03 -0.13416480029E+02  0.12345701190E+04  0.90500186591E+03 0.  0.
         23    2    4    4    0    0 -0.48341447603E+03  0.48540450209E+02  0.30204122153E+03  0.57894780226E+03  0.88915281568E+02 0.  0.
         23    2    4    4    0    0 -0.95600872671E+02  0.55948605037E+03 -0.31545770156E+03  0.65562231672E+03  0.90348731546E+02 0.  0.
          3    1    3    3  502    0  0.87859462900E+02 -0.74183426418E+02 -0.38607710108E+02  0.12129724340E+03  0.00000000000E+00 0. -1.
         -4    1    3    3    0  502  0.49115588580E+03 -0.53384307416E+03 -0.62439484364E+02  0.72809423923E+03  0.00000000000E+00 0.  1.
         11    1    5    5    0    0 -0.29221498117E+03  0.64924853270E+02  0.15433488839E+03  0.33678493073E+03  0.00000000000E+00 0.  1.
        -11    1    5    5    0    0 -0.19119949486E+03 -0.16384403061E+02  0.14770633314E+03  0.24216287153E+03  0.00000000000E+00 0. -1.
          1    1    6    6  503    0 -0.98391923533E+02  0.32479709272E+03 -0.20188843961E+03  0.39488360830E+03  0.00000000000E+00 0. -1.
         -1    1    6    6    0  503  0.27910508617E+01  0.23468895765E+03 -0.11356926194E+03  0.26073870842E+03  0.00000000000E+00 0.  1.
<mgrwt>
<rscale>  0 0.20808157E+04</rscale>
<asrwt>0</asrwt>
<pdfrwt beam="1">  1        1 0.16910964E+00 0.20808157E+04</pdfrwt>
<pdfrwt beam="2">  1       -4 0.15149984E+00 0.20808157E+04</pdfrwt>
<totfact> 0.16463190E+00</totfact>
</mgrwt>
</event>
<event>
12    4  0.4918584E-008  0.2120430E+04  0.7818608E-02  0.8552297E-01
          1   -1    0    0  501    0  0.00000000000E+00  0.00000000000E+00  0.15454077028E+04  0.15454077028E+04  0.00000000000E+00 0. -1.
         -2   -1    0    0    0  501 -0.00000000000E+00 -0.00000000000E+00 -0.72735220474E+03  0.72735220474E+03  0.00000000000E+00 0.  1.
        -24    2    1    2    0    0 -0.74929248795E+03 -0.33877389949E+03  0.54688683004E+02  0.82817734210E+03  0.81730474431E+02 0.  0.
        254    2    1    2    0    0  0.74929248795E+03  0.33877389949E+03  0.76336681502E+03  0.14445825654E+04  0.90988071005E+03 0.  0.
         23    2    4    4    0    0  0.66937882165E+03  0.28769267470E+03  0.67829224235E+02  0.73664088797E+03  0.84875863640E+02 0.  0.
         23    2    4    4    0    0  0.79913666298E+02  0.51081224785E+02  0.69553759078E+03  0.70794167743E+03  0.91724548816E+02 0.  0.
          1    1    3    3  502    0 -0.19225268379E+02 -0.72707254236E+01 -0.11659968499E+02  0.23631107842E+02  0.00000000000E+00 0. -1.
         -2    1    3    3    0  502 -0.73006721957E+03 -0.33150317406E+03  0.66348651504E+02  0.80454623426E+03  0.00000000000E+00 0.  1.
         11    1    5    5    0    0  0.46604093273E+03  0.17618263996E+03  0.79046536478E+02  0.50446291096E+03  0.00000000000E+00 0.  1.
        -11    1    5    5    0    0  0.20333788892E+03  0.11151003474E+03 -0.11217312243E+02  0.23217797702E+03  0.00000000000E+00 0. -1.
          1    1    6    6  503    0  0.62335258113E+02  0.13899987124E+02  0.18429557451E+03  0.19504807825E+03  0.00000000000E+00 0. -1.
         -1    1    6    6    0  503  0.17578408185E+02  0.37181237662E+02  0.51124201628E+03  0.51289359918E+03  0.00000000000E+00 0.  1.
<mgrwt>
<rscale>  0 0.21204299E+04</rscale>
<asrwt>0</asrwt>
<pdfrwt beam="1">  1        1 0.23775503E+00 0.21204299E+04</pdfrwt>
<pdfrwt beam="2">  1       -2 0.11190034E+00 0.21204299E+04</pdfrwt>
<totfact> 0.30909057E+00</totfact>
</mgrwt>
</event>
<event>
12    4  0.4207946E-008  0.1281487E+04  0.7818608E-02  0.9044376E-01
          1   -1    0    0  501    0  0.00000000000E+00  0.00000000000E+00  0.10047416027E+04  0.10047416027E+04  0.00000000000E+00 0. -1.
         -2   -1    0    0    0  501 -0.00000000000E+00 -0.00000000000E+00 -0.40861476798E+03  0.40861476798E+03  0.00000000000E+00 0.  1.
        -24    2    1    2    0    0 -0.35024621144E+02 -0.26516971077E+03  0.30267089965E+03  0.41199493883E+03  0.81169307781E+02 0.  0.
        254    2    1    2    0    0  0.35024621144E+02  0.26516971077E+03  0.29345593505E+03  0.10013614318E+04  0.91927505771E+03 0.  0.
         23    2    4    4    0    0 -0.31777098607E+03  0.27689658346E+03  0.43250708927E+03  0.61081665073E+03  0.91566811792E+02 0.  0.
         23    2    4    4    0    0  0.35279560722E+03 -0.11726872684E+02 -0.13905115422E+03  0.39054478110E+03  0.92670073572E+02 0.  0.
          1    1    3    3  502    0 -0.31531590437E+02 -0.25915380935E+03  0.25889744074E+03  0.36767216772E+03  0.00000000000E+00 0. -1.
         -2    1    3    3    0  502 -0.34930307079E+01 -0.60159014245E+01  0.43773458909E+02  0.44322771104E+02  0.00000000000E+00 0.  1.
         11    1    5    5    0    0 -0.71043952116E+02  0.11747664566E+03  0.12761446657E+03  0.18743921010E+03  0.00000000000E+00 0.  1.
        -11    1    5    5    0    0 -0.24672703396E+03  0.15941993780E+03  0.30489262270E+03  0.42337744063E+03  0.00000000000E+00 0. -1.
          2    1    6    6  503    0  0.19047463172E+03  0.20614814716E+02 -0.34196934795E+02  0.19461496927E+03  0.00000000000E+00 0. -1.
         -2    1    6    6    0  503  0.16232097549E+03 -0.32341687400E+02 -0.10485421943E+03  0.19592981182E+03  0.00000000000E+00 0.  1.
<mgrwt>
<rscale>  0 0.12814870E+04</rscale>
<asrwt>0</asrwt>
<pdfrwt beam="1">  1        1 0.15457563E+00 0.12814870E+04</pdfrwt>
<pdfrwt beam="2">  1       -2 0.62863811E-01 0.12814870E+04</pdfrwt>
<totfact> 0.30351636E+01</totfact>
</mgrwt>
</event>
<event>
12    4  0.4207946E-008  0.1653649E+04  0.7818608E-02  0.8788250E-01
         -2   -1    0    0    0  501 -0.00000000000E+00  0.00000000000E+00  0.11951148819E+04  0.11951148819E+04  0.00000000000E+00 0.  1.
          1   -1    0    0  501    0  0.00000000000E+00 -0.00000000000E+00 -0.57202792236E+03  0.57202792236E+03  0.00000000000E+00 0. -1.
        -24    2    1    2    0    0  0.13190312887E+03 -0.37022493047E+03  0.64921646371E+03  0.76311487826E+03  0.79983536598E+02 0.  0.
        254    2    1    2    0    0 -0.13190312887E+03  0.37022493047E+03 -0.26129504194E+02  0.10040279260E+04  0.92353905743E+03 0.  0.
         23    2    4    4    0    0 -0.12147603715E+03 -0.39360715213E+02 -0.40891503029E+03  0.43673481644E+03  0.84971197440E+02 0.  0.
         23    2    4    4    0    0 -0.10427091728E+02  0.40958564568E+03  0.38278552610E+03  0.56729310953E+03  0.86183453995E+02 0.  0.
          1    1    3    3  502    0  0.11954921450E+03 -0.27630219151E+03  0.54235240999E+03  0.62030722416E+03  0.00000000000E+00 0. -1.
         -2    1    3    3    0  502  0.12353914379E+02 -0.93922738955E+02  0.10686405372E+03  0.14280765411E+03  0.00000000000E+00 0.  1.
         11    1    5    5    0    0 -0.90766298349E+02 -0.27431205135E+02 -0.38371354884E+03  0.39525571405E+03  0.00000000000E+00 0.  1.
        -11    1    5    5    0    0 -0.30709738798E+02 -0.11929510078E+02 -0.25201481455E+02  0.41479102392E+02  0.00000000000E+00 0. -1.
          3    1    6    6  503    0 -0.46047304898E+01  0.12891491116E+03  0.69126582111E+02  0.14635143394E+03  0.00000000000E+00 0. -1.
         -3    1    6    6    0  503 -0.58223612384E+01  0.28067073452E+03  0.31365894398E+03  0.42094167559E+03  0.00000000000E+00 0.  1.
<mgrwt>
<rscale>  0 0.16536494E+04</rscale>
<asrwt>0</asrwt>
<pdfrwt beam="1">  1        1 0.88004296E-01 0.16536494E+04</pdfrwt>
<pdfrwt beam="2">  1       -2 0.18386383E+00 0.16536494E+04</pdfrwt>
<totfact> 0.52262173E+00</totfact>
</mgrwt>
</event>
<event>
12    4  0.4207946E-008  0.1236596E+04  0.7818608E-02  0.9081414E-01
         -2   -1    0    0    0  501 -0.00000000000E+00  0.00000000000E+00  0.32078273461E+03  0.32078273461E+03  0.00000000000E+00 0.  1.
          1   -1    0    0  501    0  0.00000000000E+00 -0.00000000000E+00 -0.11917484914E+04  0.11917484914E+04  0.00000000000E+00 0. -1.
        -24    2    1    2    0    0  0.12983683431E+03 -0.13825229544E+03  0.43834640844E+02  0.22029500093E+03  0.10313637069E+03 0.  0.
        254    2    1    2    0    0 -0.12983683431E+03  0.13825229544E+03 -0.91480039766E+03  0.12922362251E+04  0.89277286763E+03 0.  0.
         23    2    4    4    0    0 -0.27831221816E+03 -0.25429827498E+03 -0.15115142737E+03  0.41641663455E+03  0.91819148879E+02 0.  0.
         23    2    4    4    0    0  0.14847538385E+03  0.39255057042E+03 -0.76364897029E+03  0.87581959055E+03  0.88086976477E+02 0.  0.
          1    1    3    3  502    0  0.58214778506E+02 -0.10080981234E+03 -0.18964195548E+02  0.11794583254E+03  0.00000000000E+00 0. -1.
         -2    1    3    3    0  502  0.71622055808E+02 -0.37442483101E+02  0.62798836392E+02  0.10234916840E+03  0.00000000000E+00 0.  1.
         11    1    5    5    0    0 -0.56365016590E+02 -0.51690255683E+02 -0.73404710964E+02  0.10600542071E+03  0.00000000000E+00 0. -1.
        -11    1    5    5    0    0 -0.22194720157E+03 -0.20260801929E+03 -0.77746716402E+02  0.31041121384E+03  0.00000000000E+00 0.  1.
          1    1    6    6  503    0 -0.11744712379E+02  0.33149802429E+02 -0.69692172824E+02  0.78063093859E+02  0.00000000000E+00 0. -1.
         -1    1    6    6    0  503  0.16022009622E+03  0.35940076799E+03 -0.69395679747E+03  0.79775649669E+03  0.00000000000E+00 0.  1.
<mgrwt>
<rscale>  0 0.12365959E+04</rscale>
<asrwt>0</asrwt>
<pdfrwt beam="1">  1        1 0.18334592E+00 0.12365959E+04</pdfrwt>
<pdfrwt beam="2">  1       -2 0.49351191E-01 0.12365959E+04</pdfrwt>
<totfact> 0.36452776E+01</totfact>
</mgrwt>
</event>
<event>
12    4  0.4207946E-008  0.1736928E+04  0.7818608E-02  0.8740579E-01
         -2   -1    0    0    0  501 -0.00000000000E+00  0.00000000000E+00  0.12285705314E+04  0.12285705314E+04  0.00000000000E+00 0.  1.
          1   -1    0    0  501    0  0.00000000000E+00 -0.00000000000E+00 -0.61390868756E+03  0.61390868756E+03  0.00000000000E+00 0. -1.
        -24    2    1    2    0    0 -0.50652677170E+03  0.28581708434E+03 -0.47418059294E+02  0.58872573096E+03  0.78030364571E+02 0.  0.
        254    2    1    2    0    0  0.50652677170E+03 -0.28581708434E+03  0.66207990314E+03  0.12537534880E+04  0.89178878353E+03 0.  0.
         23    2    4    4    0    0 -0.22693038178E+03 -0.13070245460E+03  0.49031144248E+02  0.28103454959E+03  0.89419433807E+02 0.  0.
         23    2    4    4    0    0  0.73345715348E+03 -0.15511462974E+03  0.61304875889E+03  0.97271893843E+03  0.91287502173E+02 0.  0.
          3    1    3    3  502    0 -0.34741357012E+03  0.17694718056E+03 -0.64486949903E+02  0.39517725152E+03  0.00000000000E+00 0. -1.
         -4    1    3    3    0  502 -0.15911320158E+03  0.10886990378E+03  0.17068890608E+02  0.19354847944E+03  0.00000000000E+00 0.  1.
         11    1    5    5    0    0 -0.19643206515E+03 -0.85022672366E+02  0.11189331884E+02  0.21433527984E+03  0.00000000000E+00 0.  1.
        -11    1    5    5    0    0 -0.30498316634E+02 -0.45679782236E+02  0.37841812364E+02  0.66699269753E+02  0.00000000000E+00 0. -1.
          2    1    6    6  503    0  0.21441996408E+02 -0.21833903627E+02  0.20245747445E+02  0.36692899139E+02  0.00000000000E+00 0. -1.
         -2    1    6    6    0  503  0.71201515707E+03 -0.13328072611E+03  0.59280301145E+03  0.93602603929E+03  0.00000000000E+00 0.  1.
<mgrwt>
<rscale>  0 0.17369285E+04</rscale>
<asrwt>0</asrwt>
<pdfrwt beam="1">  1        1 0.94447490E-01 0.17369285E+04</pdfrwt>
<pdfrwt beam="2">  1       -2 0.18901085E+00 0.17369285E+04</pdfrwt>
<totfact> 0.43262554E+00</totfact>
</mgrwt>
</event>
<event>
12    4  0.4207946E-008  0.1662645E+04  0.7818608E-02  0.8782961E-01
          1   -1    0    0  501    0  0.00000000000E+00  0.00000000000E+00  0.19558468287E+04  0.19558468287E+04  0.00000000000E+00 0. -1.
         -2   -1    0    0    0  501 -0.00000000000E+00 -0.00000000000E+00 -0.35334927812E+03  0.35334927812E+03  0.00000000000E+00 0.  1.
        -24    2    1    2    0    0  0.15619941865E+03 -0.50984303085E+03  0.90709369712E+03  0.10552487777E+04  0.79955193969E+02 0.  0.
        254    2    1    2    0    0 -0.15619941865E+03  0.50984303085E+03  0.69540385344E+03  0.12539473291E+04  0.89691650126E+03 0.  0.
         23    2    4    4    0    0 -0.56219854572E+02  0.55948645738E+03  0.26212975229E+02  0.57000060795E+03  0.89598018667E+02 0.  0.
         23    2    4    4    0    0 -0.99979564074E+02 -0.49643426527E+02  0.66919087822E+03  0.68394672114E+03  0.86638922192E+02 0.  0.
          1    1    3    3  502    0  0.15933660425E+03 -0.41987377314E+03  0.74873147955E+03  0.87308703306E+03  0.00000000000E+00 0. -1.
         -2    1    3    3    0  502 -0.31371856026E+01 -0.89969257713E+02  0.15836221757E+03  0.18216174466E+03  0.00000000000E+00 0.  1.
         11    1    5    5    0    0  0.24622641551E+01  0.17732544964E+03 -0.28131475801E+02  0.17955990021E+03  0.00000000000E+00 0.  1.
        -11    1    5    5    0    0 -0.58682118727E+02  0.38216100774E+03  0.54344451030E+02  0.39044070773E+03  0.00000000000E+00 0. -1.
          1    1    6    6  503    0 -0.64689844204E+02 -0.67501456203E+02  0.34839456316E+03  0.36072149114E+03  0.00000000000E+00 0. -1.
         -1    1    6    6    0  503 -0.35289719870E+02  0.17858029675E+02  0.32079631505E+03  0.32322522999E+03  0.00000000000E+00 0.  1.
<mgrwt>
<rscale>  0 0.16626450E+04</rscale>
<asrwt>0</asrwt>
<pdfrwt beam="1">  1        1 0.30089951E+00 0.16626450E+04</pdfrwt>
<pdfrwt beam="2">  1       -2 0.54361429E-01 0.16626450E+04</pdfrwt>
<totfact> 0.85258978E+00</totfact>
</mgrwt>
</event>
<event>
12    4  0.4207946E-008  0.1969901E+04  0.7818608E-02  0.8620823E-01
         -4   -1    0    0    0  501 -0.00000000000E+00  0.00000000000E+00  0.65643511438E+03  0.65643511438E+03  0.00000000000E+00 0.  1.
          1   -1    0    0  501    0  0.00000000000E+00 -0.00000000000E+00 -0.14778730646E+04  0.14778730646E+04  0.00000000000E+00 0. -1.
        -24    2    1    2    0    0  0.26008879105E+03  0.14281860517E+03  0.44031041058E+03  0.53687806896E+03  0.79507672933E+02 0.  0.
        254    2    1    2    0    0 -0.26008879105E+03 -0.14281860517E+03 -0.12617483608E+04  0.15974301100E+04  0.93366519543E+03 0.  0.
         23    2    4    4    0    0 -0.38491897581E+03  0.20384770591E+03 -0.10972925226E+04  0.11840732260E+04  0.90895651128E+02 0.  0.
         23    2    4    4    0    0  0.12483018476E+03 -0.34666631108E+03 -0.16445583823E+03  0.41335688396E+03  0.89766834228E+02 0.  0.
          3    1    3    3  502    0  0.10696158129E+03  0.31964885565E+02  0.11265159953E+03  0.15859671074E+03  0.00000000000E+00 0. -1.
         -4    1    3    3    0  502  0.15312720976E+03  0.11085371961E+03  0.32765881105E+03  0.37828135822E+03  0.00000000000E+00 0.  1.
         11    1    5    5    0    0 -0.24513420948E+03  0.14895877636E+03 -0.60827636421E+03  0.67251738488E+03  0.00000000000E+00 0.  1.
        -11    1    5    5    0    0 -0.13978476632E+03  0.54888929547E+02 -0.48901615837E+03  0.51155584116E+03  0.00000000000E+00 0. -1.
          2    1    6    6  503    0  0.62177605018E+01 -0.84924077095E+02 -0.71925745994E+02  0.11146332290E+03  0.00000000000E+00 0.  1.
         -2    1    6    6    0  503  0.11861242426E+03 -0.26174223398E+03 -0.92530092237E+02  0.30189356106E+03  0.00000000000E+00 0. -1.
<mgrwt>
<rscale>  0 0.19699013E+04</rscale>
<asrwt>0</asrwt>
<pdfrwt beam="1">  1        1 0.22736509E+00 0.19699013E+04</pdfrwt>
<pdfrwt beam="2">  1       -4 0.10099002E+00 0.19699013E+04</pdfrwt>
<totfact> 0.24870955E+00</totfact>
</mgrwt>
</event>
<event>
12    4  0.4207946E-008  0.1620519E+04  0.7818608E-02  0.8808041E-01
          1   -1    0    0  501    0  0.00000000000E+00  0.00000000000E+00  0.40996949351E+03  0.40996949351E+03  0.00000000000E+00 0. -1.
         -2   -1    0    0    0  501 -0.00000000000E+00 -0.00000000000E+00 -0.16013883070E+04  0.16013883070E+04  0.00000000000E+00 0.  1.
        -24    2    1    2    0    0  0.41370109302E+03  0.32997017710E+03 -0.18151078068E+03  0.56506513824E+03  0.79520656477E+02 0.  0.
        254    2    1    2    0    0 -0.41370109302E+03 -0.32997017710E+03 -0.10099080328E+04  0.14462926623E+04  0.88984229954E+03 0.  0.
         23    2    4    4    0    0 -0.49458717191E+02  0.23529263360E+03 -0.60056232368E+03  0.65320951194E+03  0.90547080161E+02 0.  0.
         23    2    4    4    0    0 -0.36424237583E+03 -0.56526281070E+03 -0.40934570913E+03  0.79308315033E+03  0.96033432943E+02 0.  0.
          1    1    3    3  502    0  0.37482965730E+03  0.26458021910E+03 -0.16161200473E+03  0.48643437832E+03  0.00000000000E+00 0. -1.
         -2    1    3    3    0  502  0.38871435721E+02  0.65389957999E+02 -0.19898775945E+02  0.78630759925E+02  0.00000000000E+00 0.  1.
         11    1    5    5    0    0  0.19252042419E+02  0.62067046298E+02 -0.22117464509E+03  0.23052371462E+03  0.00000000000E+00 0. -1.
        -11    1    5    5    0    0 -0.68710759610E+02  0.17322558730E+03 -0.37938767859E+03  0.42268579731E+03  0.00000000000E+00 0.  1.
          3    1    6    6  503    0 -0.26276575276E+03 -0.37982487595E+03 -0.23046222384E+03  0.51616432832E+03  0.00000000000E+00 0. -1.
         -3    1    6    6    0  503 -0.10147662308E+03 -0.18543793476E+03 -0.17888348528E+03  0.27691882201E+03  0.00000000000E+00 0.  1.
<mgrwt>
<rscale>  0 0.16205189E+04</rscale>
<asrwt>0</asrwt>
<pdfrwt beam="1">  1        1 0.63072231E-01 0.16205189E+04</pdfrwt>
<pdfrwt beam="2">  1       -2 0.24636743E+00 0.16205189E+04</pdfrwt>
<totfact> 0.32901700E+00</totfact>
</mgrwt>
</event>
<event>
12    4  0.4207946E-008  0.1669949E+04  0.7818608E-02  0.8778692E-01
         -2   -1    0    0    0  501 -0.00000000000E+00  0.00000000000E+00  0.42657622982E+03  0.42657622982E+03  0.00000000000E+00 0.  1.
          1   -1    0    0  501    0  0.00000000000E+00 -0.00000000000E+00 -0.16343679482E+04  0.16343679482E+04  0.00000000000E+00 0. -1.
        -24    2    1    2    0    0  0.53494955122E+03 -0.16375039157E+03 -0.61897890018E+03  0.83806642625E+03  0.78963553902E+02 0.  0.
        254    2    1    2    0    0 -0.53494955122E+03  0.16375039157E+03 -0.58881281820E+03  0.12228777518E+04  0.91419048771E+03 0.  0.
         23    2    4    4    0    0  0.99554394348E+02  0.31455952256E+03 -0.41326365008E+01  0.34240592642E+03  0.91465671662E+02 0.  0.
         23    2    4    4    0    0 -0.63450394556E+03 -0.15080913099E+03 -0.58468018170E+03  0.88047182536E+03  0.89672010385E+02 0.  0.
          1    1    3    3  502    0  0.29820057261E+03 -0.12643440069E+03 -0.32607613578E+03  0.45960296508E+03  0.00000000000E+00 0. -1.
         -2    1    3    3    0  502  0.23674897861E+03 -0.37315990888E+02 -0.29290276440E+03  0.37846346117E+03  0.00000000000E+00 0.  1.
         11    1    5    5    0    0  0.68188950830E+01  0.17226078418E+03 -0.69054301347E+01  0.17253393887E+03  0.00000000000E+00 0. -1.
        -11    1    5    5    0    0  0.92735499264E+02  0.14229873839E+03  0.27727936339E+01  0.16987198755E+03  0.00000000000E+00 0.  1.
          4    1    6    6  503    0 -0.95116789540E+02  0.67389945341E+01 -0.68062812502E+02  0.11715444569E+03  0.00000000000E+00 0. -1.
         -4    1    6    6    0  503 -0.53938715602E+03 -0.15754812552E+03 -0.51661736920E+03  0.76331737966E+03  0.00000000000E+00 0.  1.
<mgrwt>
<rscale>  0 0.16699491E+04</rscale>
<asrwt>0</asrwt>
<pdfrwt beam="1">  1        1 0.25144123E+00 0.16699491E+04</pdfrwt>
<pdfrwt beam="2">  1       -2 0.65627112E-01 0.16699491E+04</pdfrwt>
<totfact> 0.94629761E+00</totfact>
</mgrwt>
</event>
<event>
12    4  0.4207946E-008  0.1237223E+04  0.7818608E-02  0.9080885E-01
         -2   -1    0    0    0  501 -0.00000000000E+00  0.00000000000E+00  0.75097250727E+03  0.75097250727E+03  0.00000000000E+00 0.  1.
          1   -1    0    0  501    0  0.00000000000E+00 -0.00000000000E+00 -0.50957916021E+03  0.50957916021E+03  0.00000000000E+00 0. -1.
        -24    2    1    2    0    0  0.95555844698E+02  0.15795376772E+03 -0.15624620290E+03  0.25486792470E+03  0.80401933621E+02 0.  0.
        254    2    1    2    0    0 -0.95555844698E+02 -0.15795376772E+03  0.39763954995E+03  0.10056837428E+04  0.90509793206E+03 0.  0.
         23    2    4    4    0    0 -0.35345848184E+03 -0.39105688739E+03  0.11164023302E+03  0.54643776195E+03  0.90952177013E+02 0.  0.
         23    2    4    4    0    0  0.25790263714E+03  0.23310311967E+03  0.28599931693E+03  0.45924598083E+03  0.90886891091E+02 0.  0.
          1    1    3    3  502    0  0.64424942951E+02  0.59309521210E+02 -0.11248508369E+03  0.14255204886E+03  0.00000000000E+00 0. -1.
         -2    1    3    3    0  502  0.31130901747E+02  0.98644246507E+02 -0.43761119206E+02  0.11231587584E+03  0.00000000000E+00 0.  1.
         11    1    5    5    0    0 -0.34541109163E+03 -0.37323441578E+03  0.12382400249E+03  0.52339768335E+03  0.00000000000E+00 0. -1.
        -11    1    5    5    0    0 -0.80473902072E+01 -0.17822471611E+02 -0.12183769475E+02  0.23040078604E+02  0.00000000000E+00 0.  1.
          3    1    6    6  503    0  0.21419278664E+03  0.14656746595E+03  0.23285959137E+03  0.34868920433E+03  0.00000000000E+00 0. -1.
         -3    1    6    6    0  503  0.43709850503E+02  0.86535653725E+02  0.53139725569E+02  0.11055677650E+03  0.00000000000E+00 0.  1.
<mgrwt>
<rscale>  0 0.12372226E+04</rscale>
<asrwt>0</asrwt>
<pdfrwt beam="1">  1        1 0.78396795E-01 0.12372226E+04</pdfrwt>
<pdfrwt beam="2">  1       -2 0.11553423E+00 0.12372226E+04</pdfrwt>
<totfact> 0.21722436E+01</totfact>
</mgrwt>
</event>
<event>
12    4  0.4207946E-008  0.1760556E+04  0.7818608E-02  0.8727561E-01
          1   -1    0    0  501    0  0.00000000000E+00  0.00000000000E+00  0.50261538532E+03  0.50261538532E+03  0.00000000000E+00 0. -1.
         -2   -1    0    0    0  501 -0.00000000000E+00 -0.00000000000E+00 -0.15417139355E+04  0.15417139355E+04  0.00000000000E+00 0.  1.
        -24    2    1    2    0    0 -0.48206344487E+03 -0.29207108241E+03 -0.39434397298E+03  0.69255668855E+03  0.80230391741E+02 0.  0.
        254    2    1    2    0    0  0.48206344487E+03  0.29207108241E+03 -0.64475457723E+03  0.13517726323E+04  0.10458920128E+04 0.  0.
         23    2    4    4    0    0  0.41604306485E+03  0.66297463062E+03 -0.33864793499E+03  0.85772770228E+03  0.91581628816E+02 0.  0.
         23    2    4    4    0    0  0.66020380026E+02 -0.37090354821E+03 -0.30610664224E+03  0.49404493003E+03  0.91929232627E+02 0.  0.
          3    1    3    3  502    0 -0.31482320064E+03 -0.17083454218E+03 -0.29148391217E+03  0.46180186175E+03  0.00000000000E+00 0. -1.
         -4    1    3    3    0  502 -0.16724024423E+03 -0.12123654024E+03 -0.10286006081E+03  0.23075482680E+03  0.00000000000E+00 0.  1.
         11    1    5    5    0    0  0.13699397595E+03  0.27414142414E+03 -0.16882517168E+03  0.34988970901E+03  0.00000000000E+00 0.  1.
        -11    1    5    5    0    0  0.27904908890E+03  0.38883320648E+03 -0.16982276331E+03  0.50783799327E+03  0.00000000000E+00 0. -1.
          4    1    6    6  503    0  0.44798014925E+02 -0.35558548829E+03 -0.26670788994E+03  0.44674489385E+03  0.00000000000E+00 0. -1.
         -4    1    6    6    0  503  0.21222365101E+02 -0.15318059922E+02 -0.39398752294E+02  0.47300036179E+02  0.00000000000E+00 0.  1.
<mgrwt>
<rscale>  0 0.17605558E+04</rscale>
<asrwt>0</asrwt>
<pdfrwt beam="1">  1        1 0.77325443E-01 0.17605558E+04</pdfrwt>
<pdfrwt beam="2">  1       -2 0.23718676E+00 0.17605558E+04</pdfrwt>
<totfact> 0.28100987E+00</totfact>
</mgrwt>
</event>
<event>
12    4  0.4207946E-008  0.1191964E+04  0.7818608E-02  0.9119920E-01
         -2   -1    0    0    0  501 -0.00000000000E+00  0.00000000000E+00  0.13814958957E+03  0.13814958957E+03  0.00000000000E+00 0.  1.
          1   -1    0    0  501    0  0.00000000000E+00 -0.00000000000E+00 -0.25710860509E+04  0.25710860509E+04  0.00000000000E+00 0. -1.
        -24    2    1    2    0    0  0.22939843342E+03 -0.69996620229E+02 -0.56310202484E+03  0.61662976285E+03  0.75001373026E+02 0.  0.
        254    2    1    2    0    0 -0.22939843342E+03  0.69996620229E+02 -0.18698344365E+04  0.20926058776E+04  0.90840264808E+03 0.  0.
         23    2    4    4    0    0  0.24819850875E+03 -0.24261728508E+03 -0.64396534576E+03  0.73720999714E+03  0.91222620990E+02 0.  0.
         23    2    4    4    0    0 -0.47759694217E+03  0.31261390531E+03 -0.12258690908E+04  0.13553958805E+04  0.92285818170E+02 0.  0.
          3    1    3    3  502    0  0.20060486164E+03 -0.41285977783E+02 -0.51116385367E+03  0.55066807404E+03  0.00000000000E+00 0. -1.
         -4    1    3    3    0  502  0.28793571784E+02 -0.28710642445E+02 -0.51938171171E+02  0.65961688807E+02  0.00000000000E+00 0.  1.
         11    1    5    5    0    0  0.17199606261E+02 -0.36402893740E+02 -0.14037585556E+03  0.14603553661E+03  0.00000000000E+00 0.  1.
        -11    1    5    5    0    0  0.23099890249E+03 -0.20621439134E+03 -0.50358949020E+03  0.59117446053E+03  0.00000000000E+00 0. -1.
          2    1    6    6  503    0 -0.33731541526E+03  0.17051557294E+03 -0.77280409578E+03  0.86028101249E+03  0.00000000000E+00 0. -1.
         -2    1    6    6    0  503 -0.14028152691E+03  0.14209833237E+03 -0.45306499497E+03  0.49511486801E+03  0.00000000000E+00 0.  1.
<mgrwt>
<rscale>  0 0.11919639E+04</rscale>
<asrwt>0</asrwt>
<pdfrwt beam="1">  1        1 0.39555169E+00 0.11919639E+04</pdfrwt>
<pdfrwt beam="2">  1       -2 0.21253784E-01 0.11919639E+04</pdfrwt>
<totfact> 0.20325967E+01</totfact>
</mgrwt>
</event>
<event>
12    4  0.4207946E-008  0.2032291E+04  0.7818608E-02  0.8591671E-01
          1   -1    0    0  501    0  0.00000000000E+00  0.00000000000E+00  0.13963151147E+04  0.13963151147E+04  0.00000000000E+00 0. -1.
         -2   -1    0    0    0  501 -0.00000000000E+00 -0.00000000000E+00 -0.73948338675E+03  0.73948338675E+03  0.00000000000E+00 0.  1.
        -24    2    1    2    0    0  0.35850161516E+03 -0.26304036390E+03 -0.43017903873E+03  0.62329103782E+03  0.75657592816E+02 0.  0.
        254    2    1    2    0    0 -0.35850161516E+03  0.26304036390E+03  0.10870107666E+04  0.15125074636E+04  0.95308592453E+03 0.  0.
         23    2    4    4    0    0  0.97010563667E+02  0.31811855753E+03  0.97162805888E+03  0.10309489957E+04  0.90467014974E+02 0.  0.
         23    2    4    4    0    0 -0.45551217882E+03 -0.55078193634E+02  0.11538270776E+03  0.48155846791E+03  0.89779932577E+02 0.  0.
          3    1    3    3  502    0  0.17476858716E+03 -0.12727336440E+03 -0.15708431371E+03  0.26724155732E+03  0.00000000000E+00 0. -1.
         -4    1    3    3    0  502  0.18373302799E+03 -0.13576699950E+03 -0.27309472502E+03  0.35604948050E+03  0.00000000000E+00 0.  1.
         11    1    5    5    0    0 -0.78050555041E+01  0.19941335449E+02  0.13349805097E+03  0.13520467952E+03  0.00000000000E+00 0. -1.
        -11    1    5    5    0    0  0.10481561917E+03  0.29817722208E+03  0.83813000791E+03  0.89574431617E+03  0.00000000000E+00 0.  1.
          1    1    6    6  503    0 -0.17740372401E+03 -0.75315284173E+01  0.22488495467E+01  0.17757776476E+03  0.00000000000E+00 0. -1.
         -1    1    6    6    0  503 -0.27810845481E+03 -0.47546665217E+02  0.11313385822E+03  0.30398070315E+03  0.00000000000E+00 0.  1.
<mgrwt>
<rscale>  0 0.20322912E+04</rscale>
<asrwt>0</asrwt>
<pdfrwt beam="1">  1        1 0.21481771E+00 0.20322912E+04</pdfrwt>
<pdfrwt beam="2">  1       -2 0.11376668E+00 0.20322912E+04</pdfrwt>
<totfact> 0.37985943E+00</totfact>
</mgrwt>
</event>
<event>
12    4  0.4207946E-008  0.2069975E+04  0.7818608E-02  0.8574586E-01
         -2   -1    0    0    0  501 -0.00000000000E+00  0.00000000000E+00  0.98868647474E+03  0.98868647474E+03  0.00000000000E+00 0.  1.
          1   -1    0    0  501    0  0.00000000000E+00 -0.00000000000E+00 -0.10834564220E+04  0.10834564220E+04  0.00000000000E+00 0. -1.
        -24    2    1    2    0    0 -0.33592025460E+03  0.73128402142E+03  0.19620527939E+03  0.83379079952E+03  0.95351183919E+02 0.  0.
        254    2    1    2    0    0  0.33592025460E+03 -0.73128402142E+03 -0.29097522667E+03  0.12383520972E+04  0.89511485116E+03 0.  0.
         23    2    4    4    0    0  0.14380301666E+03 -0.39038892140E+02 -0.46169199412E+03  0.49366758292E+03  0.91350108337E+02 0.  0.
         23    2    4    4    0    0  0.19211723794E+03 -0.69224512928E+03  0.17071676744E+03  0.74468451432E+03  0.96428517894E+02 0.  0.
          3    1    3    3  502    0 -0.64122221663E+02  0.67677836395E+02  0.25080710564E+02  0.96545278976E+02  0.00000000000E+00 0. -1.
         -4    1    3    3    0  502 -0.27179803294E+03  0.66360618502E+03  0.17112456883E+03  0.73724552055E+03  0.00000000000E+00 0.  1.
         11    1    5    5    0    0  0.11336079404E+03  0.32876912369E+00 -0.39179104653E+03  0.40786149837E+03  0.00000000000E+00 0. -1.
        -11    1    5    5    0    0  0.30442222618E+02 -0.39367661264E+02 -0.69900947587E+02  0.85806084544E+02  0.00000000000E+00 0.  1.
          3    1    6    6  503    0  0.14820643326E+03 -0.35498170608E+03  0.95557370381E+02  0.39636898156E+03  0.00000000000E+00 0. -1.
         -3    1    6    6    0  503  0.43910804682E+02 -0.33726342320E+03  0.75159397060E+02  0.34831553276E+03  0.00000000000E+00 0.  1.
<mgrwt>
<rscale>  0 0.20699746E+04</rscale>
<asrwt>0</asrwt>
<pdfrwt beam="1">  1        1 0.16668560E+00 0.20699746E+04</pdfrwt>
<pdfrwt beam="2">  1       -2 0.15210561E+00 0.20699746E+04</pdfrwt>
<totfact> 0.30461828E+00</totfact>
</mgrwt>
</event>
<event>
12    4  0.4207946E-008  0.2140873E+04  0.7818608E-02  0.8543449E-01
         -2   -1    0    0    0  501 -0.00000000000E+00  0.00000000000E+00  0.48436347195E+03  0.48436347195E+03  0.00000000000E+00 0.  1.
          1   -1    0    0  501    0  0.00000000000E+00 -0.00000000000E+00 -0.23656488222E+04  0.23656488222E+04  0.00000000000E+00 0. -1.
        -24    2    1    2    0    0 -0.72474878774E+03  0.45944962768E+02 -0.14371581413E+04  0.16121437160E+04  0.78816832080E+02 0.  0.
        254    2    1    2    0    0  0.72474878774E+03 -0.45944962768E+02 -0.44412720887E+03  0.12378685781E+04  0.89872014220E+03 0.  0.
         23    2    4    4    0    0  0.25435050839E+03 -0.45058937733E+03 -0.25202569236E+03  0.58234772376E+03  0.88808522560E+02 0.  0.
         23    2    4    4    0    0  0.47039827935E+03  0.40464441457E+03 -0.19210151651E+03  0.65552085431E+03  0.88277711435E+02 0.  0.
          3    1    3    3  502    0 -0.47976481419E+03  0.33595278475E+02 -0.86701933997E+03  0.99147640191E+03  0.00000000000E+00 0. -1.
         -4    1    3    3    0  502 -0.24498397355E+03  0.12349684292E+02 -0.57013880137E+03  0.62066731413E+03  0.00000000000E+00 0.  1.
         11    1    5    5    0    0  0.92752904702E+02 -0.22718982218E+03 -0.15403646388E+03  0.28973358252E+03  0.00000000000E+00 0. -1.
        -11    1    5    5    0    0  0.16159760368E+03 -0.22339955515E+03 -0.97989228480E+02  0.29261414124E+03  0.00000000000E+00 0.  1.
          1    1    6    6  503    0  0.21795014281E+03  0.13906434374E+03 -0.55208935386E+02  0.26436562370E+03  0.00000000000E+00 0. -1.
         -1    1    6    6    0  503  0.25244813654E+03  0.26558007083E+03 -0.13689258113E+03  0.39115523061E+03  0.00000000000E+00 0.  1.
<mgrwt>
<rscale>  0 0.21408726E+04</rscale>
<asrwt>0</asrwt>
<pdfrwt beam="1">  1        1 0.36394597E+00 0.21408726E+04</pdfrwt>
<pdfrwt beam="2">  1       -2 0.74517457E-01 0.21408726E+04</pdfrwt>
<totfact> 0.21881528E+00</totfact>
</mgrwt>
</event>
<event>
12    4  0.4207946E-008  0.1777176E+04  0.7818608E-02  0.8718532E-01
          1   -1    0    0  501    0  0.00000000000E+00  0.00000000000E+00  0.24899762656E+04  0.24899762656E+04  0.00000000000E+00 0. -1.
         -2   -1    0    0    0  501 -0.00000000000E+00 -0.00000000000E+00 -0.31710701506E+03  0.31710701506E+03  0.00000000000E+00 0.  1.
        -24    2    1    2    0    0 -0.37827167616E+03  0.47874420492E+03  0.11918145063E+04  0.13416968187E+04  0.86273177929E+02 0.  0.
        254    2    1    2    0    0  0.37827167616E+03 -0.47874420492E+03  0.98105474431E+03  0.14653864620E+04  0.90144528226E+03 0.  0.
         23    2    4    4    0    0  0.11831660522E+03  0.15609865777E+03 -0.51698605554E+02  0.22208730853E+03  0.91018771507E+02 0.  0.
         23    2    4    4    0    0  0.25995507094E+03 -0.63484286269E+03  0.10327533499E+04  0.12432991535E+04  0.92796573863E+02 0.  0.
          1    1    3    3  502    0 -0.25413541826E+03  0.34581925445E+03  0.75345568617E+03  0.86710509085E+03  0.00000000000E+00 0. -1.
         -2    1    3    3    0  502 -0.12413625790E+03  0.13292495047E+03  0.43835882009E+03  0.47459172784E+03  0.00000000000E+00 0.  1.
         11    1    5    5    0    0 -0.85074184353E+01  0.49749209872E+02 -0.12469115256E+02  0.51988834249E+02  0.00000000000E+00 0. -1.
        -11    1    5    5    0    0  0.12682402366E+03  0.10634944789E+03 -0.39229490299E+02  0.17009847428E+03  0.00000000000E+00 0.  1.
          2    1    6    6  503    0  0.36227752460E+02 -0.15046271727E+03  0.29084803569E+03  0.32946025436E+03  0.00000000000E+00 0.  1.
         -2    1    6    6    0  503  0.22372731848E+03 -0.48438014541E+03  0.74190531417E+03  0.91383889910E+03  0.00000000000E+00 0. -1.
<mgrwt>
<rscale>  0 0.17771763E+04</rscale>
<asrwt>0</asrwt>
<pdfrwt beam="1">  1        1 0.38307326E+00 0.17771763E+04</pdfrwt>
<pdfrwt beam="2">  1       -2 0.48785696E-01 0.17771763E+04</pdfrwt>
<totfact> 0.45531773E+00</totfact>
</mgrwt>
</event>
<event>
12    4  0.4207946E-008  0.1487350E+04  0.7818608E-02  0.8892909E-01
          1   -1    0    0  501    0  0.00000000000E+00  0.00000000000E+00  0.86998927078E+03  0.86998927078E+03  0.00000000000E+00 0. -1.
         -2   -1    0    0    0  501 -0.00000000000E+00 -0.00000000000E+00 -0.63570028248E+03  0.63570028248E+03  0.00000000000E+00 0.  1.
        -24    2    1    2    0    0 -0.31527717410E+03 -0.29133252768E+03  0.26547451132E+03  0.51100490418E+03  0.79843332491E+02 0.  0.
        254    2    1    2    0    0  0.31527717410E+03  0.29133252768E+03 -0.31185523015E+02  0.99468464908E+03  0.89674448762E+03 0.  0.
         23    2    4    4    0    0  0.53305343629E+03  0.36285327578E+03  0.17371432345E+03  0.67388347669E+03  0.90187628336E+02 0.  0.
         23    2    4    4    0    0 -0.21777626219E+03 -0.71520748103E+02 -0.20489984646E+03  0.32080117239E+03  0.91584536581E+02 0.  0.
          1    1    3    3  502    0 -0.21094926862E+03 -0.21469962552E+03  0.22358396743E+03  0.37494708110E+03  0.00000000000E+00 0. -1.
         -2    1    3    3    0  502 -0.10432790547E+03 -0.76632902158E+02  0.41890543883E+02  0.13605782308E+03  0.00000000000E+00 0.  1.
         11    1    5    5    0    0  0.32181498029E+03  0.26769890459E+03  0.12800964278E+03  0.43773742551E+03  0.00000000000E+00 0.  1.
        -11    1    5    5    0    0  0.21123845600E+03  0.95154371197E+02  0.45704680673E+02  0.23614605118E+03  0.00000000000E+00 0. -1.
          1    1    6    6  503    0 -0.92296414300E+01  0.85806117336E+01 -0.43254324293E+02  0.45052744075E+02  0.00000000000E+00 0. -1.
         -1    1    6    6    0  503 -0.20854662076E+03 -0.80101359837E+02 -0.16164552217E+03  0.27574842831E+03  0.00000000000E+00 0.  1.
<mgrwt>
<rscale>  0 0.14873499E+04</rscale>
<asrwt>0</asrwt>
<pdfrwt beam="1">  1        1 0.13384450E+00 0.14873499E+04</pdfrwt>
<pdfrwt beam="2">  1       -2 0.97800043E-01 0.14873499E+04</pdfrwt>
<totfact> 0.14234261E+01</totfact>
</mgrwt>
</event>
<event>
12    4  0.4207946E-008  0.1659887E+04  0.7818608E-02  0.8784579E-01
         -2   -1    0    0    0  501 -0.00000000000E+00  0.00000000000E+00  0.28337021660E+03  0.28337021660E+03  0.00000000000E+00 0.  1.
          1   -1    0    0  501    0  0.00000000000E+00 -0.00000000000E+00 -0.24307643575E+04  0.24307643575E+04  0.00000000000E+00 0. -1.
        -24    2    1    2    0    0 -0.23752124036E+03  0.44374099627E+03 -0.12012449328E+04  0.13048626821E+04  0.79717119657E+02 0.  0.
        254    2    1    2    0    0  0.23752124036E+03 -0.44374099627E+03 -0.94614920809E+03  0.14092718920E+04  0.91516475577E+03 0.  0.
         23    2    4    4    0    0 -0.10273460483E+03 -0.23849799420E+03  0.94702164121E+02  0.29127457016E+03  0.91851418408E+02 0.  0.
         23    2    4    4    0    0  0.34025584519E+03 -0.20524300207E+03 -0.10408513722E+04  0.11179973218E+04  0.92993024024E+02 0.  0.
          1    1    3    3  502    0 -0.19491756338E+03  0.31355362424E+03 -0.93951380354E+03  0.10094527819E+04  0.00000000000E+00 0. -1.
         -2    1    3    3    0  502 -0.42603676986E+02  0.13018737203E+03 -0.26173112922E+03  0.29540990020E+03  0.00000000000E+00 0.  1.
         11    1    5    5    0    0 -0.48282834253E+02 -0.58638618319E+02  0.67071955699E+02  0.10133295063E+03  0.00000000000E+00 0. -1.
        -11    1    5    5    0    0 -0.54451770577E+02 -0.17985937588E+03  0.27630208422E+02  0.18994161953E+03  0.00000000000E+00 0.  1.
          4    1    6    6  503    0  0.31343606846E+03 -0.20240175228E+03 -0.89471988200E+03  0.96939790880E+03  0.00000000000E+00 0. -1.
         -4    1    6    6    0  503  0.26819776736E+02 -0.28412497889E+01 -0.14613149021E+03  0.14859941304E+03  0.00000000000E+00 0.  1.
<mgrwt>
<rscale>  0 0.16598870E+04</rscale>
<asrwt>0</asrwt>
<pdfrwt beam="1">  1        1 0.37396373E+00 0.16598870E+04</pdfrwt>
<pdfrwt beam="2">  1       -2 0.43595420E-01 0.16598870E+04</pdfrwt>
<totfact> 0.63381566E+00</totfact>
</mgrwt>
</event>
<event>
12    4  0.4207946E-008  0.1866646E+04  0.7818608E-02  0.8671639E-01
         -2   -1    0    0    0  501 -0.00000000000E+00  0.00000000000E+00  0.93412357855E+03  0.93412357855E+03  0.00000000000E+00 0.  1.
          1   -1    0    0  501    0  0.00000000000E+00 -0.00000000000E+00 -0.93252292572E+03  0.93252292572E+03  0.00000000000E+00 0. -1.
        -24    2    1    2    0    0 -0.11199551439E+03  0.70547878098E+03 -0.30138279245E+02  0.71927022676E+03  0.78727616326E+02 0.  0.
        254    2    1    2    0    0  0.11199551439E+03 -0.70547878098E+03  0.31738932080E+02  0.11473762775E+04  0.89734143821E+03 0.  0.
         23    2    4    4    0    0  0.33160735945E+03 -0.14419890854E+03 -0.27688948000E+03  0.46419087569E+03  0.89714095201E+02 0.  0.
         23    2    4    4    0    0 -0.21961184506E+03 -0.56127987244E+03  0.30862841208E+03  0.68318540182E+03  0.90699166534E+02 0.  0.
          3    1    3    3  502    0 -0.11769633731E+03  0.69997155071E+03 -0.33663038702E+02  0.71059538402E+03  0.00000000000E+00 0. -1.
         -4    1    3    3    0  502  0.57008229259E+01  0.55072302695E+01  0.35247594578E+01  0.86748427368E+01  0.00000000000E+00 0.  1.
         11    1    5    5    0    0  0.24258353736E+03 -0.61256111039E+02 -0.17283297684E+03  0.30408933165E+03  0.00000000000E+00 0.  1.
        -11    1    5    5    0    0  0.89023822088E+02 -0.82942797497E+02 -0.10405650316E+03  0.16010154405E+03  0.00000000000E+00 0. -1.
          3    1    6    6  503    0 -0.43210320957E+02 -0.71223328357E+02  0.75969690466E+02  0.11274434890E+03  0.00000000000E+00 0.  1.
         -3    1    6    6    0  503 -0.17640152411E+03 -0.49005654409E+03  0.23265872161E+03  0.57044105292E+03  0.00000000000E+00 0. -1.
<mgrwt>
<rscale>  0 0.18666458E+04</rscale>
<asrwt>0</asrwt>
<pdfrwt beam="1">  1        1 0.14346506E+00 0.18666458E+04</pdfrwt>
<pdfrwt beam="2">  1       -2 0.14371132E+00 0.18666458E+04</pdfrwt>
<totfact> 0.47217825E+00</totfact>
</mgrwt>
</event>
<event>
12    4  0.4207946E-008  0.1385730E+04  0.7818608E-02  0.8964213E-01
          1   -1    0    0  501    0  0.00000000000E+00  0.00000000000E+00  0.93830170643E+03  0.93830170643E+03  0.00000000000E+00 0. -1.
         -2   -1    0    0    0  501 -0.00000000000E+00 -0.00000000000E+00 -0.51162849558E+03  0.51162849558E+03  0.00000000000E+00 0.  1.
        -24    2    1    2    0    0 -0.36171812689E+03 -0.14380109697E+03  0.74515556205E+02  0.40448107867E+03  0.80830786637E+02 0.  0.
        254    2    1    2    0    0  0.36171812689E+03  0.14380109697E+03  0.35215765465E+03  0.10454491234E+04  0.90411840872E+03 0.  0.
         23    2    4    4    0    0 -0.29073188564E+02  0.98268802208E+02  0.57047980183E+03  0.58662018126E+03  0.90410314618E+02 0.  0.
         23    2    4    4    0    0  0.39079131546E+03  0.45532294766E+02 -0.21832214718E+03  0.45882894209E+03  0.89824250861E+02 0.  0.
          1    1    3    3  502    0 -0.27235860119E+03 -0.10388513131E+03  0.90698667503E+02  0.30528278110E+03  0.00000000000E+00 0. -1.
         -2    1    3    3    0  502 -0.89359525700E+02 -0.39915965661E+02 -0.16183111298E+02  0.99198297562E+02  0.00000000000E+00 0.  1.
         11    1    5    5    0    0 -0.26771373361E+02  0.41642209678E+02  0.45801721082E+03  0.46068486568E+03  0.00000000000E+00 0. -1.
        -11    1    5    5    0    0 -0.23018152038E+01  0.56626592530E+02  0.11246259101E+03  0.12593531559E+03  0.00000000000E+00 0.  1.
          3    1    6    6  503    0  0.22580610659E+03  0.68555014290E+02 -0.14371730875E+03  0.27630210385E+03  0.00000000000E+00 0. -1.
         -3    1    6    6    0  503  0.16498520887E+03 -0.23022719523E+02 -0.74604838433E+02  0.18252683824E+03  0.00000000000E+00 0.  1.
<mgrwt>
<rscale>  0 0.13857300E+04</rscale>
<asrwt>0</asrwt>
<pdfrwt beam="1">  1        1 0.14435411E+00 0.13857300E+04</pdfrwt>
<pdfrwt beam="2">  1       -2 0.78712076E-01 0.13857300E+04</pdfrwt>
<totfact> 0.20777490E+01</totfact>
</mgrwt>
</event>
<event>
12    4  0.4207946E-008  0.1699623E+04  0.7818608E-02  0.8761579E-01
         -2   -1    0    0    0  501 -0.00000000000E+00  0.00000000000E+00  0.86881839863E+03  0.86881839863E+03  0.00000000000E+00 0.  1.
          1   -1    0    0  501    0  0.00000000000E+00 -0.00000000000E+00 -0.83122024407E+03  0.83122024407E+03  0.00000000000E+00 0. -1.
        -24    2    1    2    0    0 -0.51471166685E+03 -0.21921821664E+03  0.23569199941E+03  0.61232023488E+03  0.80003905928E+02 0.  0.
        254    2    1    2    0    0  0.51471166685E+03  0.21921821664E+03 -0.19809384485E+03  0.10877184078E+04  0.91154014550E+03 0.  0.
         23    2    4    4    0    0  0.76868553709E+03  0.14833139650E+03 -0.17971873061E+03  0.80826657212E+03  0.90090906037E+02 0.  0.
         23    2    4    4    0    0 -0.25397387024E+03  0.70886820138E+02 -0.18375114237E+02  0.27945183570E+03  0.90708409859E+02 0.  0.
          1    1    3    3  502    0 -0.15062886156E+03 -0.10240119591E+03  0.62548549500E+02  0.19258083992E+03  0.00000000000E+00 0. -1.
         -2    1    3    3    0  502 -0.36408280528E+03 -0.11681702073E+03  0.17314344991E+03  0.41973939496E+03  0.00000000000E+00 0.  1.
         11    1    5    5    0    0  0.52352648387E+03  0.61194676961E+02 -0.10359091993E+03  0.53717394436E+03  0.00000000000E+00 0.  1.
        -11    1    5    5    0    0  0.24515905322E+03  0.87136719543E+02 -0.76127810680E+02  0.27109262776E+03  0.00000000000E+00 0. -1.
          1    1    6    6  503    0 -0.20709549726E+03  0.22662252944E+02  0.45958901631E+01  0.20838244864E+03  0.00000000000E+00 0. -1.
         -1    1    6    6    0  503 -0.46878372980E+02  0.48224567193E+02 -0.22971004400E+02  0.71069387062E+02  0.00000000000E+00 0.  1.
<mgrwt>
<rscale>  0 0.16996228E+04</rscale>
<asrwt>0</asrwt>
<pdfrwt beam="1">  1        1 0.12788004E+00 0.16996228E+04</pdfrwt>
<pdfrwt beam="2">  1       -2 0.13366437E+00 0.16996228E+04</pdfrwt>
<totfact> 0.70084223E+00</totfact>
</mgrwt>
</event>
<event>
12    4  0.4207946E-008  0.2183527E+04  0.7818608E-02  0.8525316E-01
         -2   -1    0    0    0  501 -0.00000000000E+00  0.00000000000E+00  0.90649612135E+03  0.90649612135E+03  0.00000000000E+00 0.  1.
          1   -1    0    0  501    0  0.00000000000E+00 -0.00000000000E+00 -0.13148948640E+04  0.13148948640E+04  0.00000000000E+00 0. -1.
        -24    2    1    2    0    0  0.36608136900E+02 -0.35010353779E+03  0.67688743944E+03  0.76702183833E+03  0.78950946438E+02 0.  0.
        254    2    1    2    0    0 -0.36608136900E+02  0.35010353779E+03 -0.10852861821E+04  0.14543691470E+04  0.90190402812E+03 0.  0.
         23    2    4    4    0    0  0.20575388689E+03  0.55090404964E+03 -0.47011631948E+03  0.75744289885E+03  0.82948521989E+02 0.  0.
         23    2    4    4    0    0 -0.24236202378E+03 -0.20080051185E+03 -0.61516986260E+03  0.69692624817E+03  0.90620303496E+02 0.  0.
          1    1    3    3  502    0  0.56080242936E+02 -0.16038136857E+03  0.32940219930E+03  0.37063861905E+03  0.00000000000E+00 0. -1.
         -2    1    3    3    0  502 -0.19472106036E+02 -0.18972216922E+03  0.34748524014E+03  0.39638321928E+03  0.00000000000E+00 0.  1.
         11    1    5    5    0    0  0.28482998195E+02  0.22472468992E+02 -0.34065491626E+02  0.49766964630E+02  0.00000000000E+00 0. -1.
        -11    1    5    5    0    0  0.17727088869E+03  0.52843158065E+03 -0.43605082786E+03  0.70767593422E+03  0.00000000000E+00 0.  1.
          2    1    6    6  503    0 -0.34205063111E+02  0.47339454403E+01 -0.77051042263E+02  0.84434943570E+02  0.00000000000E+00 0. -1.
         -2    1    6    6    0  503 -0.20815696067E+03 -0.20553445729E+03 -0.53811882033E+03  0.61249130460E+03  0.00000000000E+00 0.  1.
<mgrwt>
<rscale>  0 0.21835266E+04</rscale>
<asrwt>0</asrwt>
<pdfrwt beam="1">  1        1 0.20229152E+00 0.21835266E+04</pdfrwt>
<pdfrwt beam="2">  1       -2 0.13946094E+00 0.21835266E+04</pdfrwt>
<totfact> 0.25656835E+00</totfact>
</mgrwt>
</event>
<event>
12    4  0.4207946E-008  0.3798891E+04  0.7818608E-02  0.8046393E-01
          1   -1    0    0  501    0  0.00000000000E+00  0.00000000000E+00  0.29692092477E+04  0.29692092477E+04  0.00000000000E+00 0. -1.
         -2   -1    0    0    0  501 -0.00000000000E+00 -0.00000000000E+00 -0.12151021194E+04  0.12151021194E+04  0.00000000000E+00 0.  1.
        -24    2    1    2    0    0  0.11841408906E+04 -0.19438195959E+03  0.23100349865E+04  0.26046898076E+04  0.90406636466E+02 0.  0.
        254    2    1    2    0    0 -0.11841408906E+04  0.19438195959E+03 -0.55592785822E+03  0.15796215594E+04  0.86381392235E+03 0.  0.
         23    2    4    4    0    0 -0.73746917959E+03  0.49752112967E+03 -0.17094154421E+03  0.91030848467E+03  0.89735502496E+02 0.  0.
         23    2    4    4    0    0 -0.44667171104E+03 -0.30313917008E+03 -0.38498631401E+03  0.66931307478E+03  0.91414201378E+02 0.  0.
          3    1    3    3  502    0  0.27507459239E+03 -0.33768499491E+02  0.61545372812E+03  0.67497380274E+03  0.00000000000E+00 0. -1.
         -4    1    3    3    0  502  0.90906629825E+03 -0.16061346010E+03  0.16945812584E+04  0.19297160049E+04  0.00000000000E+00 0.  1.
         11    1    5    5    0    0 -0.65961686215E+03  0.47571880189E+03 -0.15561081226E+03  0.82802023417E+03  0.00000000000E+00 0.  1.
        -11    1    5    5    0    0 -0.77852317445E+02  0.21802327776E+02 -0.15330731946E+02  0.82288250498E+02  0.00000000000E+00 0. -1.
          2    1    6    6  503    0 -0.21620844310E+03 -0.10467425290E+03 -0.20576896995E+03  0.31629678955E+03  0.00000000000E+00 0. -1.
         -2    1    6    6    0  503 -0.23046326794E+03 -0.19846491718E+03 -0.17921734406E+03  0.35301628522E+03  0.00000000000E+00 0.  1.
<mgrwt>
<rscale>  0 0.37988906E+04</rscale>
<asrwt>0</asrwt>
<pdfrwt beam="1">  1        1 0.45680142E+00 0.37988906E+04</pdfrwt>
<pdfrwt beam="2">  1       -2 0.18693879E+00 0.37988906E+04</pdfrwt>
<totfact> 0.71651678E-02</totfact>
</mgrwt>
</event>
<event>
12    4  0.4207946E-008  0.2754516E+04  0.7818608E-02  0.8317530E-01
         -2   -1    0    0    0  501 -0.00000000000E+00  0.00000000000E+00  0.76830096776E+03  0.76830096776E+03  0.00000000000E+00 0.  1.
          1   -1    0    0  501    0  0.00000000000E+00 -0.00000000000E+00 -0.24688763409E+04  0.24688763409E+04  0.00000000000E+00 0. -1.
        -24    2    1    2    0    0 -0.64380226394E+02  0.95306446327E+03 -0.16805953577E+04  0.19347251285E+04  0.79270938773E+02 0.  0.
        254    2    1    2    0    0  0.64380226394E+02 -0.95306446327E+03 -0.19980015372E+02  0.13024521801E+04  0.88515862746E+03 0.  0.
         23    2    4    4    0    0  0.20079419351E+02 -0.10578822198E+04 -0.18905471829E+03  0.10787074544E+04  0.91378945137E+02 0.  0.
         23    2    4    4    0    0  0.44300807042E+02  0.10481775654E+03  0.16907470292E+03  0.22374472571E+03  0.92337010595E+02 0.  0.
          3    1    3    3  502    0 -0.97415095181E+01  0.62866341306E+03 -0.11406569921E+04  0.13024634189E+04  0.00000000000E+00 0. -1.
         -4    1    3    3    0  502 -0.54638716875E+02  0.32440105021E+03 -0.53993836567E+03  0.63226170964E+03  0.00000000000E+00 0.  1.
         11    1    5    5    0    0  0.14758674786E+02 -0.67921438902E+03 -0.76721591888E+02  0.68369306520E+03  0.00000000000E+00 0.  1.
        -11    1    5    5    0    0  0.53207445654E+01 -0.37866783079E+03 -0.11233312640E+03  0.39501438921E+03  0.00000000000E+00 0. -1.
          1    1    6    6  503    0  0.24814466347E+02  0.31018678376E+02  0.13396194882E+03  0.13972730542E+03  0.00000000000E+00 0. -1.
         -1    1    6    6    0  503  0.19486340695E+02  0.73799078161E+02  0.35112754092E+02  0.84017420283E+02  0.00000000000E+00 0.  1.
<mgrwt>
<rscale>  0 0.27545164E+04</rscale>
<asrwt>0</asrwt>
<pdfrwt beam="1">  1        1 0.37982713E+00 0.27545164E+04</pdfrwt>
<pdfrwt beam="2">  1       -2 0.11820015E+00 0.27545164E+04</pdfrwt>
<totfact> 0.59975769E-01</totfact>
</mgrwt>
</event>
<event>
12    4  0.4207946E-008  0.2085303E+04  0.7818608E-02  0.8567745E-01
         -2   -1    0    0    0  501 -0.00000000000E+00  0.00000000000E+00  0.63859833390E+03  0.63859833390E+03  0.00000000000E+00 0.  1.
          1   -1    0    0  501    0  0.00000000000E+00 -0.00000000000E+00 -0.17023565375E+04  0.17023565375E+04  0.00000000000E+00 0. -1.
        -24    2    1    2    0    0  0.15580133093E+03 -0.83046820094E+03 -0.33198003695E+03  0.91175658799E+03  0.84485758018E+02 0.  0.
        254    2    1    2    0    0 -0.15580133093E+03  0.83046820094E+03 -0.73177816665E+03  0.14291982834E+04  0.89059360013E+03 0.  0.
         23    2    4    4    0    0 -0.48027077293E+03  0.25920038868E+03 -0.43012209748E+03  0.70091445674E+03  0.91821566629E+02 0.  0.
         23    2    4    4    0    0  0.32446944200E+03  0.57126781226E+03 -0.30165606917E+03  0.72828382666E+03  0.88168112103E+02 0.  0.
          1    1    3    3  502    0  0.23008698865E+02 -0.63491788536E+02 -0.49366695775E+02  0.83652125416E+02  0.00000000000E+00 0. -1.
         -2    1    3    3    0  502  0.13279263206E+03 -0.76697641241E+03 -0.28261334117E+03  0.82810446257E+03  0.00000000000E+00 0.  1.
         11    1    5    5    0    0 -0.19379100227E+02  0.23683158103E+02 -0.47536962422E+01  0.30968356936E+02  0.00000000000E+00 0. -1.
        -11    1    5    5    0    0 -0.46089167270E+03  0.23551723058E+03 -0.42536840124E+03  0.66994609980E+03  0.00000000000E+00 0.  1.
          3    1    6    6  503    0  0.28795164292E+02  0.10220157772E+03 -0.71070283996E+02  0.12777053355E+03  0.00000000000E+00 0. -1.
         -3    1    6    6    0  503  0.29567427771E+03  0.46906623454E+03 -0.23058578517E+03  0.60051329312E+03  0.00000000000E+00 0.  1.
<mgrwt>
<rscale>  0 0.20853029E+04</rscale>
<asrwt>0</asrwt>
<pdfrwt beam="1">  1        1 0.26190100E+00 0.20853029E+04</pdfrwt>
<pdfrwt beam="2">  1       -2 0.98245899E-01 0.20853029E+04</pdfrwt>
<totfact> 0.33066911E+00</totfact>
</mgrwt>
</event>
<event>
12    4  0.4207946E-008  0.1298756E+04  0.7818608E-02  0.9030552E-01
          1   -1    0    0  501    0  0.00000000000E+00  0.00000000000E+00  0.15485586428E+04  0.15485586428E+04  0.00000000000E+00 0. -1.
         -2   -1    0    0    0  501 -0.00000000000E+00 -0.00000000000E+00 -0.27231245034E+03  0.27231245034E+03  0.00000000000E+00 0.  1.
        -24    2    1    2    0    0 -0.93260947425E+02 -0.29985829246E+03  0.18851289263E+03  0.37704670556E+03  0.89523782415E+02 0.  0.
        254    2    1    2    0    0  0.93260947425E+02  0.29985829246E+03  0.10877332998E+04  0.14438243875E+04  0.89602038521E+03 0.  0.
         23    2    4    4    0    0 -0.13861284791E+03  0.13951030163E+03 -0.85987124498E+02  0.23339187440E+03  0.91658799850E+02 0.  0.
         23    2    4    4    0    0  0.23187379534E+03  0.16034799083E+03  0.11737204243E+04  0.12104325131E+04  0.89723460344E+02 0.  0.
          3    1    3    3  502    0 -0.28073883719E+02 -0.10633812297E+02  0.15685831916E+02  0.33871318751E+02  0.00000000000E+00 0. -1.
         -4    1    3    3    0  502 -0.65187063706E+02 -0.28922448016E+03  0.17282706071E+03  0.34317538681E+03  0.00000000000E+00 0.  1.
         11    1    5    5    0    0 -0.21000216266E+02  0.77213280461E+01 -0.47649278330E+02  0.52641064915E+02  0.00000000000E+00 0. -1.
        -11    1    5    5    0    0 -0.11761263165E+03  0.13178897359E+03 -0.38337846168E+02  0.18075080949E+03  0.00000000000E+00 0.  1.
          4    1    6    6  503    0  0.13640946857E+03  0.13231931762E+03  0.88104358859E+03  0.90130669027E+03  0.00000000000E+00 0. -1.
         -4    1    6    6    0  503  0.95464326769E+02  0.28028673204E+02  0.29267683569E+03  0.30912582286E+03  0.00000000000E+00 0.  1.
<mgrwt>
<rscale>  0 0.12987560E+04</rscale>
<asrwt>0</asrwt>
<pdfrwt beam="1">  1        1 0.23823979E+00 0.12987560E+04</pdfrwt>
<pdfrwt beam="2">  1       -2 0.41894224E-01 0.12987560E+04</pdfrwt>
<totfact> 0.28186999E+01</totfact>
</mgrwt>
</event>
<event>
12    4  0.4207946E-008  0.1367524E+04  0.7818608E-02  0.8977668E-01
         -2   -1    0    0    0  501 -0.00000000000E+00  0.00000000000E+00  0.43470074928E+03  0.43470074928E+03  0.00000000000E+00 0.  1.
          1   -1    0    0  501    0  0.00000000000E+00 -0.00000000000E+00 -0.10755221164E+04  0.10755221164E+04  0.00000000000E+00 0. -1.
        -24    2    1    2    0    0 -0.17941226301E+03 -0.26396909086E+03  0.11686573967E+03  0.34886585751E+03  0.78621526160E+02 0.  0.
        254    2    1    2    0    0  0.17941226301E+03  0.26396909086E+03 -0.75768710684E+03  0.11613570082E+04  0.82023893325E+03 0.  0.
         23    2    4    4    0    0  0.48288289695E+03  0.21095017128E+03 -0.33747684439E+03  0.63212366355E+03  0.89520045796E+02 0.  0.
         23    2    4    4    0    0 -0.30347063394E+03  0.53018919583E+02 -0.42021026245E+03  0.52923334467E+03  0.92767650281E+02 0.  0.
          3    1    3    3  502    0  0.78674100392E+01 -0.14786980026E+02  0.30603441337E+01  0.17026938222E+02  0.00000000000E+00 0. -1.
         -4    1    3    3    0  502 -0.18727967305E+03 -0.24918211084E+03  0.11380539553E+03  0.33183891928E+03  0.00000000000E+00 0.  1.
         11    1    5    5    0    0  0.12799324148E+03  0.23500325848E+02 -0.54717324401E+02  0.14116841279E+03  0.00000000000E+00 0. -1.
        -11    1    5    5    0    0  0.35488965546E+03  0.18744984543E+03 -0.28275951999E+03  0.49095525076E+03  0.00000000000E+00 0.  1.
          1    1    6    6  503    0 -0.91506872637E+01  0.10429508520E+02 -0.62641422771E+02  0.64159625717E+02  0.00000000000E+00 0. -1.
         -1    1    6    6    0  503 -0.29431994668E+03  0.42589411062E+02 -0.35756883968E+03  0.46507371895E+03  0.00000000000E+00 0.  1.
<mgrwt>
<rscale>  0 0.13675237E+04</rscale>
<asrwt>0</asrwt>
<pdfrwt beam="1">  1        1 0.16546494E+00 0.13675237E+04</pdfrwt>
<pdfrwt beam="2">  1       -2 0.66877038E-01 0.13675237E+04</pdfrwt>
<totfact> 0.23284016E+01</totfact>
</mgrwt>
</event>
<event>
12    4  0.4207946E-008  0.1200149E+04  0.7818608E-02  0.9112727E-01
         -2   -1    0    0    0  501 -0.00000000000E+00  0.00000000000E+00  0.98009027551E+02  0.98009027551E+02  0.00000000000E+00 0.  1.
          1   -1    0    0  501    0  0.00000000000E+00 -0.00000000000E+00 -0.36740404511E+04  0.36740404511E+04  0.00000000000E+00 0. -1.
        -24    2    1    2    0    0 -0.14866046167E+03 -0.23179840236E+03 -0.67862647856E+03  0.73680159345E+03  0.80698565696E+02 0.  0.
        254    2    1    2    0    0  0.14866046167E+03  0.23179840236E+03 -0.28974049450E+04  0.30352478852E+04  0.86136164135E+03 0.  0.
         23    2    4    4    0    0 -0.16434973027E+02 -0.25495428319E+03 -0.17947905806E+04  0.18152344047E+04  0.92362985662E+02 0.  0.
         23    2    4    4    0    0  0.16509543470E+03  0.48675268555E+03 -0.11026143645E+04  0.12200134805E+04  0.92139983182E+02 0.  0.
          1    1    3    3  502    0 -0.59031488376E+02 -0.16187023368E+03 -0.43809743496E+03  0.47076114080E+03  0.00000000000E+00 0. -1.
         -2    1    3    3    0  502 -0.89628973294E+02 -0.69928168674E+02 -0.24052904360E+03  0.26604045264E+03  0.00000000000E+00 0.  1.
         11    1    5    5    0    0 -0.37028714954E+02 -0.22586425151E+03 -0.16642799913E+04  0.16799445453E+04  0.00000000000E+00 0.  1.
        -11    1    5    5    0    0  0.20593741927E+02 -0.29090031687E+02 -0.13051058921E+03  0.13528985936E+03  0.00000000000E+00 0. -1.
          4    1    6    6  503    0  0.10466014196E+02  0.22912326889E+02 -0.20183132347E+02  0.32278026705E+02  0.00000000000E+00 0. -1.
         -4    1    6    6    0  503  0.15462942050E+03  0.46384035866E+03 -0.10824312321E+04  0.11877354538E+04  0.00000000000E+00 0.  1.
<mgrwt>
<rscale>  0 0.12001485E+04</rscale>
<asrwt>0</asrwt>
<pdfrwt beam="1">  1        1 0.56523702E+00 0.12001485E+04</pdfrwt>
<pdfrwt beam="2">  1       -2 0.15078311E-01 0.12001485E+04</pdfrwt>
<totfact> 0.56262854E+00</totfact>
</mgrwt>
</event>
<event>
12    4  0.4207946E-008  0.1415399E+04  0.7818608E-02  0.8942747E-01
          1   -1    0    0  501    0  0.00000000000E+00  0.00000000000E+00  0.15485409558E+04  0.15485409558E+04  0.00000000000E+00 0. -1.
         -2   -1    0    0    0  501 -0.00000000000E+00 -0.00000000000E+00 -0.32342616500E+03  0.32342616500E+03  0.00000000000E+00 0.  1.
        -24    2    1    2    0    0 -0.34410661301E+03  0.12176271702E+03  0.11971601334E+03  0.39285019790E+03  0.82242530167E+02 0.  0.
        254    2    1    2    0    0  0.34410661301E+03 -0.12176271702E+03  0.11053987774E+04  0.14791169229E+04  0.91249377750E+03 0.  0.
         23    2    4    4    0    0 -0.28983964470E+03 -0.15276582094E+03  0.42255486793E+03  0.54278868506E+03  0.93394456656E+02 0.  0.
         23    2    4    4    0    0  0.63394625771E+03  0.31003103916E+02  0.68284390950E+03  0.93632823780E+03  0.87096004756E+02 0.  0.
          3    1    3    3  502    0 -0.14629478405E+03  0.75208451243E+02  0.17639384077E+02  0.16543767059E+03  0.00000000000E+00 0. -1.
         -4    1    3    3    0  502 -0.19781182895E+03  0.46554265781E+02  0.10207662926E+03  0.22741252731E+03  0.00000000000E+00 0.  1.
         11    1    5    5    0    0 -0.42835300033E+02 -0.58816421482E+02  0.12658537380E+03  0.14600716155E+03  0.00000000000E+00 0.  1.
        -11    1    5    5    0    0 -0.24700434467E+03 -0.93949399457E+02  0.29596949413E+03  0.39678152351E+03  0.00000000000E+00 0. -1.
          2    1    6    6  503    0  0.56468270609E+03  0.17747224496E+02  0.64054084342E+03  0.85409255624E+03  0.00000000000E+00 0. -1.
         -2    1    6    6    0  503  0.69263551618E+02  0.13255879420E+02  0.42303066084E+02  0.82235681563E+02  0.00000000000E+00 0.  1.
<mgrwt>
<rscale>  0 0.14153991E+04</rscale>
<asrwt>0</asrwt>
<pdfrwt beam="1">  1        1 0.23823706E+00 0.14153991E+04</pdfrwt>
<pdfrwt beam="2">  1       -2 0.49757873E-01 0.14153991E+04</pdfrwt>
<totfact> 0.19775992E+01</totfact>
</mgrwt>
</event>
<event>
12    4  0.4207946E-008  0.1067650E+04  0.7818608E-02  0.9237309E-01
          1   -1    0    0  501    0  0.00000000000E+00  0.00000000000E+00  0.75138112395E+03  0.75138112395E+03  0.00000000000E+00 0. -1.
         -2   -1    0    0    0  501 -0.00000000000E+00 -0.00000000000E+00 -0.37926025337E+03  0.37926025337E+03  0.00000000000E+00 0.  1.
        -24    2    1    2    0    0 -0.11901353834E+03 -0.28902822029E+02 -0.12575806787E+02  0.14635016413E+03  0.79124106270E+02 0.  0.
        254    2    1    2    0    0  0.11901353834E+03  0.28902822029E+02  0.38469667737E+03  0.98429121320E+03  0.89768483521E+03 0.  0.
         23    2    4    4    0    0 -0.19621816983E+03 -0.18975990609E+03 -0.14538052541E+03  0.32389626910E+03  0.96243980791E+02 0.  0.
         23    2    4    4    0    0  0.31523170817E+03  0.21866272812E+03  0.53007720278E+03  0.66039494410E+03  0.89192055569E+02 0.  0.
          1    1    3    3  502    0 -0.11215436595E+03 -0.81623618262E+01  0.12441902820E+02  0.11313720387E+03  0.00000000000E+00 0. -1.
         -2    1    3    3    0  502 -0.68591723917E+01 -0.20740460202E+02 -0.25017709607E+02  0.33212960261E+02  0.00000000000E+00 0.  1.
         11    1    5    5    0    0 -0.25034113581E+02 -0.29057527140E+02  0.13202418879E+02  0.40562921376E+02  0.00000000000E+00 0. -1.
        -11    1    5    5    0    0 -0.17118405625E+03 -0.16070237895E+03 -0.15858294429E+03  0.28333334772E+03  0.00000000000E+00 0.  1.
          1    1    6    6  503    0  0.66939172777E+02  0.83398447160E+02  0.19098852100E+03  0.21888985585E+03  0.00000000000E+00 0. -1.
         -1    1    6    6    0  503  0.24829253539E+03  0.13526428096E+03  0.33908868178E+03  0.44150508825E+03  0.00000000000E+00 0.  1.
<mgrwt>
<rscale>  0 0.10676497E+04</rscale>
<asrwt>0</asrwt>
<pdfrwt beam="1">  1        1 0.11559710E+00 0.10676497E+04</pdfrwt>
<pdfrwt beam="2">  1       -2 0.58347731E-01 0.10676497E+04</pdfrwt>
<totfact> 0.58701434E+01</totfact>
</mgrwt>
</event>
<event>
12    4  0.4207946E-008  0.1175232E+04  0.7818608E-02  0.9134816E-01
         -2   -1    0    0    0  501 -0.00000000000E+00  0.00000000000E+00  0.61206328129E+03  0.61206328129E+03  0.00000000000E+00 0.  1.
          1   -1    0    0  501    0  0.00000000000E+00 -0.00000000000E+00 -0.56414534765E+03  0.56414534765E+03  0.00000000000E+00 0. -1.
        -24    2    1    2    0    0 -0.38182922926E+02 -0.64818049904E+02 -0.22635470800E+03  0.25168939148E+03  0.80322977749E+02 0.  0.
        254    2    1    2    0    0  0.38182922926E+02  0.64818049904E+02  0.27427264165E+03  0.92451923746E+03  0.87968802611E+03 0.  0.
         23    2    4    4    0    0  0.30859842736E+03  0.10517882217E+02 -0.19183393323E+03  0.37483897484E+03  0.91435134986E+02 0.  0.
         23    2    4    4    0    0 -0.27041550443E+03  0.54300167687E+02  0.46610657488E+03  0.54968026262E+03  0.93914848231E+02 0.  0.
          1    1    3    3  502    0 -0.44471609500E+02 -0.79707922636E+02 -0.20851026681E+03  0.22761284750E+03  0.00000000000E+00 0. -1.
         -2    1    3    3    0  502  0.62886865734E+01  0.14889872731E+02 -0.17844441197E+02  0.24076543988E+02  0.00000000000E+00 0.  1.
         11    1    5    5    0    0  0.11942316945E+03 -0.10474029165E+02 -0.26623272445E+02  0.12280226922E+03  0.00000000000E+00 0. -1.
        -11    1    5    5    0    0  0.18917525790E+03  0.20991911382E+02 -0.16521066078E+03  0.25203670563E+03  0.00000000000E+00 0.  1.
          3    1    6    6  503    0 -0.21722084147E+03  0.62522902272E+02  0.30370173109E+03  0.37858783492E+03  0.00000000000E+00 0. -1.
         -3    1    6    6    0  503 -0.53194662959E+02 -0.82227345851E+01  0.16240484378E+03  0.17109242770E+03  0.00000000000E+00 0.  1.
<mgrwt>
<rscale>  0 0.11752322E+04</rscale>
<asrwt>0</asrwt>
<pdfrwt beam="1">  1        1 0.86791592E-01 0.11752322E+04</pdfrwt>
<pdfrwt beam="2">  1       -2 0.94163582E-01 0.11752322E+04</pdfrwt>
<totfact> 0.30889581E+01</totfact>
</mgrwt>
</event>
<event>
12    4  0.4207946E-008  0.1130059E+04  0.7818608E-02  0.9176380E-01
          1   -1    0    0  501    0  0.00000000000E+00  0.00000000000E+00  0.76342450063E+03  0.76342450063E+03  0.00000000000E+00 0. -1.
         -2   -1    0    0    0  501 -0.00000000000E+00 -0.00000000000E+00 -0.41819229626E+03  0.41819229626E+03  0.00000000000E+00 0.  1.
        -24    2    1    2    0    0 -0.92681550103E+02  0.12258454947E+03  0.13554555576E+03  0.22000291225E+03  0.80073979620E+02 0.  0.
        254    2    1    2    0    0  0.92681550103E+02 -0.12258454947E+03  0.20968664860E+03  0.96161388464E+03  0.92580555790E+03 0.  0.
         23    2    4    4    0    0 -0.23109620030E+03  0.29959715059E+03  0.15312604085E+03  0.41849640459E+03  0.92345816528E+02 0.  0.
         23    2    4    4    0    0  0.32377775040E+03 -0.42218170006E+03  0.56560607751E+02  0.54311748006E+03  0.93317068499E+02 0.  0.
          3    1    3    3  502    0 -0.84176314495E+02  0.55232120354E+02  0.55205513980E+02  0.11482111223E+03  0.00000000000E+00 0. -1.
         -4    1    3    3    0  502 -0.85052356078E+01  0.67352429116E+02  0.80340041782E+02  0.10518180001E+03  0.00000000000E+00 0.  1.
         11    1    5    5    0    0 -0.15765964571E+03  0.25614461917E+03  0.14143205340E+03  0.33236975726E+03  0.00000000000E+00 0. -1.
        -11    1    5    5    0    0 -0.73436554588E+02  0.43452531424E+02  0.11693987455E+02  0.86126647325E+02  0.00000000000E+00 0.  1.
          1    1    6    6  503    0  0.16242694136E+03 -0.28546692215E+03  0.42300554075E+02  0.33115436249E+03  0.00000000000E+00 0. -1.
         -1    1    6    6    0  503  0.16135080904E+03 -0.13671477791E+03  0.14260053675E+02  0.21196311757E+03  0.00000000000E+00 0.  1.
<mgrwt>
<rscale>  0 0.11300588E+04</rscale>
<asrwt>0</asrwt>
<pdfrwt beam="1">  1        1 0.11744992E+00 0.11300588E+04</pdfrwt>
<pdfrwt beam="2">  1       -2 0.64337276E-01 0.11300588E+04</pdfrwt>
<totfact> 0.46326438E+01</totfact>
</mgrwt>
</event>
<event>
12    4  0.4207946E-008  0.2623962E+04  0.7818608E-02  0.8360107E-01
         -2   -1    0    0    0  501 -0.00000000000E+00  0.00000000000E+00  0.13835088357E+04  0.13835088357E+04  0.00000000000E+00 0.  1.
          1   -1    0    0  501    0  0.00000000000E+00 -0.00000000000E+00 -0.12441511299E+04  0.12441511299E+04  0.00000000000E+00 0. -1.
        -24    2    1    2    0    0  0.70873278265E+03  0.83176177277E+03  0.45284546088E+03  0.11856911423E+04  0.81637427440E+02 0.  0.
        254    2    1    2    0    0 -0.70873278265E+03 -0.83176177277E+03 -0.31348775504E+03  0.14419688234E+04  0.88705676887E+03 0.  0.
         23    2    4    4    0    0 -0.11218677427E+03  0.67807242589E+02  0.18914741150E+03  0.24786513966E+03  0.92068939984E+02 0.  0.
         23    2    4    4    0    0 -0.59654600838E+03 -0.89956901536E+03 -0.50263516655E+03  0.11941036837E+04  0.90277036573E+02 0.  0.
          1    1    3    3  502    0  0.34465884387E+02  0.17731936123E+02  0.17732336075E+02  0.42623403054E+02  0.00000000000E+00 0. -1.
         -2    1    3    3    0  502  0.67426689826E+03  0.81402983664E+03  0.43511312480E+03  0.11430677392E+04  0.00000000000E+00 0.  1.
         11    1    5    5    0    0 -0.11717907444E+03  0.31975493789E+02  0.12549052678E+03  0.17464604204E+03  0.00000000000E+00 0.  1.
        -11    1    5    5    0    0  0.49923001670E+01  0.35831748800E+02  0.63656884721E+02  0.73219097615E+02  0.00000000000E+00 0. -1.
          1    1    6    6  503    0 -0.26015540235E+03 -0.31392114918E+03 -0.18263940885E+03  0.44674878280E+03  0.00000000000E+00 0. -1.
         -1    1    6    6    0  503 -0.33639060603E+03 -0.58564786618E+03 -0.31999575770E+03  0.74735490092E+03  0.00000000000E+00 0.  1.
<mgrwt>
<rscale>  0 0.26239620E+04</rscale>
<asrwt>0</asrwt>
<pdfrwt beam="1">  1        1 0.19140787E+00 0.26239620E+04</pdfrwt>
<pdfrwt beam="2">  1       -2 0.21284751E+00 0.26239620E+04</pdfrwt>
<totfact> 0.84027423E-01</totfact>
</mgrwt>
</event>
<event>
12    4  0.4207946E-008  0.1120341E+04  0.7818608E-02  0.9185589E-01
          1   -1    0    0  501    0  0.00000000000E+00  0.00000000000E+00  0.19403781587E+04  0.19403781587E+04  0.00000000000E+00 0. -1.
         -2   -1    0    0    0  501 -0.00000000000E+00 -0.00000000000E+00 -0.16171653175E+03  0.16171653175E+03  0.00000000000E+00 0.  1.
        -24    2    1    2    0    0  0.72567789457E+02  0.16595597762E+03  0.42759758845E+03  0.47105599409E+03  0.79035317137E+02 0.  0.
        254    2    1    2    0    0 -0.72567789457E+02 -0.16595597762E+03  0.13510640385E+04  0.16310386963E+04  0.89560355197E+03 0.  0.
         23    2    4    4    0    0 -0.24868995618E+03 -0.26619713286E+03  0.14248559143E+03  0.40226619622E+03  0.93852762398E+02 0.  0.
         23    2    4    4    0    0  0.17612216672E+03  0.10024115524E+03  0.12085784471E+04  0.12287725001E+04  0.90292234248E+02 0.  0.
          1    1    3    3  502    0  0.74088102477E+01 -0.84005013417E+01  0.30713110455E+02  0.32691803956E+02  0.00000000000E+00 0. -1.
         -2    1    3    3    0  502  0.65158979209E+02  0.17435647896E+03  0.39688447799E+03  0.43836419014E+03  0.00000000000E+00 0.  1.
         11    1    5    5    0    0 -0.11754933987E+03 -0.14391105248E+03  0.12084291461E+03  0.22165569774E+03  0.00000000000E+00 0.  1.
        -11    1    5    5    0    0 -0.13114061630E+03 -0.12228608038E+03  0.21642676814E+02  0.18061049847E+03  0.00000000000E+00 0. -1.
          1    1    6    6  503    0  0.61149696121E+02  0.64333291560E+02  0.72527483625E+03  0.73068573672E+03  0.00000000000E+00 0. -1.
         -1    1    6    6    0  503  0.11497247060E+03  0.35907863681E+02  0.48330361080E+03  0.49808676341E+03  0.00000000000E+00 0.  1.
<mgrwt>
<rscale>  0 0.11203414E+04</rscale>
<asrwt>0</asrwt>
<pdfrwt beam="1">  1        1 0.29851970E+00 0.11203414E+04</pdfrwt>
<pdfrwt beam="2">  1       -2 0.24879468E-01 0.11203414E+04</pdfrwt>
<totfact> 0.41444916E+01</totfact>
</mgrwt>
</event>
<event>
12    4  0.4207946E-008  0.2530214E+04  0.7818608E-02  0.8392300E-01
          1   -1    0    0  501    0  0.00000000000E+00  0.00000000000E+00  0.11057314782E+04  0.11057314782E+04  0.00000000000E+00 0. -1.
         -2   -1    0    0    0  501 -0.00000000000E+00 -0.00000000000E+00 -0.14474538700E+04  0.14474538700E+04  0.00000000000E+00 0.  1.
        -24    2    1    2    0    0  0.42437855908E+03 -0.56586423863E+03 -0.10176513405E+04  0.12418122467E+04  0.78637822816E+02 0.  0.
        254    2    1    2    0    0 -0.42437855908E+03  0.56586423863E+03  0.67592894871E+03  0.13113731015E+04  0.87322389428E+03 0.  0.
         23    2    4    4    0    0 -0.59814483023E+03  0.20949993096E+03  0.17083108139E+03  0.66260264292E+03  0.90507154615E+02 0.  0.
         23    2    4    4    0    0  0.17376627115E+03  0.35636430767E+03  0.50509786732E+03  0.64877045853E+03  0.92676941706E+02 0.  0.
          3    1    3    3  502    0  0.33504780822E+03 -0.42066786351E+03 -0.82218659583E+03  0.98245065197E+03  0.00000000000E+00 0. -1.
         -4    1    3    3    0  502  0.89330750853E+02 -0.14519637512E+03 -0.19546474469E+03  0.25936159471E+03  0.00000000000E+00 0.  1.
         11    1    5    5    0    0 -0.22569536220E+01 -0.60373108079E+01  0.28313506693E+01  0.70398514228E+01  0.00000000000E+00 0. -1.
        -11    1    5    5    0    0 -0.59588787660E+03  0.21553724177E+03  0.16799973072E+03  0.65556279150E+03  0.00000000000E+00 0.  1.
          2    1    6    6  503    0  0.13906199798E+03  0.18169976751E+03  0.29578263468E+03  0.37395241913E+03  0.00000000000E+00 0.  1.
         -2    1    6    6    0  503  0.34704273169E+02  0.17466454017E+03  0.20931523264E+03  0.27481803941E+03  0.00000000000E+00 0. -1.
<mgrwt>
<rscale>  0 0.25302137E+04</rscale>
<asrwt>0</asrwt>
<pdfrwt beam="1">  1        1 0.17011254E+00 0.25302137E+04</pdfrwt>
<pdfrwt beam="2">  1       -2 0.22268521E+00 0.25302137E+04</pdfrwt>
<totfact> 0.92739553E-01</totfact>
</mgrwt>
</event>
<event>
12    4  0.4207946E-008  0.1364194E+04  0.7818608E-02  0.8980153E-01
         -2   -1    0    0    0  501 -0.00000000000E+00  0.00000000000E+00  0.30898788773E+03  0.30898788773E+03  0.00000000000E+00 0.  1.
          1   -1    0    0  501    0  0.00000000000E+00 -0.00000000000E+00 -0.15057424637E+04  0.15057424637E+04  0.00000000000E+00 0. -1.
        -24    2    1    2    0    0  0.25109231677E+03 -0.30312061400E+02  0.38810562771E+02  0.26787296470E+03  0.79268485696E+02 0.  0.
        254    2    1    2    0    0 -0.25109231677E+03  0.30312061400E+02 -0.12355651387E+04  0.15468573867E+04  0.89564523681E+03 0.  0.
         23    2    4    4    0    0  0.17812321081E+03 -0.15737455690E+03 -0.96515775666E+03  0.99834803527E+03  0.93137934826E+02 0.  0.
         23    2    4    4    0    0 -0.42921552758E+03  0.18768661830E+03 -0.27040738209E+03  0.54850935147E+03  0.91050099149E+02 0.  0.
          1    1    3    3  502    0  0.17780368735E+03 -0.36083674997E+02 -0.64484009326E+01  0.18154273522E+03  0.00000000000E+00 0. -1.
         -2    1    3    3    0  502  0.73288629428E+02  0.57716135973E+01  0.45258963704E+02  0.86330229483E+02  0.00000000000E+00 0.  1.
         11    1    5    5    0    0  0.15439807954E+03 -0.12669745524E+03 -0.62869787588E+03  0.65966054245E+03  0.00000000000E+00 0.  1.
        -11    1    5    5    0    0  0.23725131271E+02 -0.30677101659E+02 -0.33645988077E+03  0.33868749281E+03  0.00000000000E+00 0. -1.
          2    1    6    6  503    0 -0.37072409915E+03  0.18894354413E+03 -0.25497087591E+03  0.48800222143E+03  0.00000000000E+00 0. -1.
         -2    1    6    6    0  503 -0.58491428432E+02 -0.12569258296E+01 -0.15436506180E+02  0.60507130040E+02  0.00000000000E+00 0.  1.
<mgrwt>
<rscale>  0 0.13641938E+04</rscale>
<asrwt>0</asrwt>
<pdfrwt beam="1">  1        1 0.23165269E+00 0.13641938E+04</pdfrwt>
<pdfrwt beam="2">  1       -2 0.47536597E-01 0.13641938E+04</pdfrwt>
<totfact> 0.23321072E+01</totfact>
</mgrwt>
</event>
<event>
12    4  0.4207946E-008  0.1792382E+04  0.7818608E-02  0.8710361E-01
         -2   -1    0    0    0  501 -0.00000000000E+00  0.00000000000E+00  0.15633898139E+03  0.15633898139E+03  0.00000000000E+00 0.  1.
          1   -1    0    0  501    0  0.00000000000E+00 -0.00000000000E+00 -0.51372891774E+04  0.51372891774E+04  0.00000000000E+00 0. -1.
        -24    2    1    2    0    0 -0.35555481531E+03  0.14481538032E+03 -0.25923859862E+03  0.46987957617E+03  0.78685729469E+02 0.  0.
        254    2    1    2    0    0  0.35555481531E+03 -0.14481538032E+03 -0.47217115974E+04  0.48237485827E+04  0.90917504272E+03 0.  0.
         23    2    4    4    0    0  0.61636996653E+00 -0.30605888504E+03 -0.57724987007E+03  0.65981677386E+03  0.92023592316E+02 0.  0.
         23    2    4    4    0    0  0.35493844534E+03  0.16124350472E+03 -0.41444617274E+04  0.41639318088E+04  0.98915777300E+02 0.  0.
          1    1    3    3  502    0 -0.18732740446E+02  0.23999234060E+01  0.39884969152E+01  0.19302417067E+02  0.00000000000E+00 0. -1.
         -2    1    3    3    0  502 -0.33682207486E+03  0.14241545691E+03 -0.26322709554E+03  0.45057715910E+03  0.00000000000E+00 0.  1.
         11    1    5    5    0    0 -0.22454280338E+01 -0.28317835716E+03 -0.56854787454E+03  0.63517061452E+03  0.00000000000E+00 0.  1.
        -11    1    5    5    0    0  0.28617980003E+01 -0.22880527874E+02 -0.87019955326E+01  0.24646159332E+02  0.00000000000E+00 0. -1.
          4    1    6    6  503    0  0.30851538298E+02  0.71845718968E+01 -0.14581530573E+03  0.14921641624E+03  0.00000000000E+00 0. -1.
         -4    1    6    6    0  503  0.32408690704E+03  0.15405893282E+03 -0.39986464216E+04  0.40147153926E+04  0.00000000000E+00 0.  1.
<mgrwt>
<rscale>  0 0.17923823E+04</rscale>
<asrwt>0</asrwt>
<pdfrwt beam="1">  1        1 0.79035209E+00 0.17923823E+04</pdfrwt>
<pdfrwt beam="2">  1       -2 0.24052154E-01 0.17923823E+04</pdfrwt>
<totfact> 0.74795817E-02</totfact>
</mgrwt>
</event>
<event>
12    4  0.4207946E-008  0.2137603E+04  0.7818608E-02  0.8544857E-01
          1   -1    0    0  501    0  0.00000000000E+00  0.00000000000E+00  0.21948261407E+04  0.21948261407E+04  0.00000000000E+00 0. -1.
         -2   -1    0    0    0  501 -0.00000000000E+00 -0.00000000000E+00 -0.52046792391E+03  0.52046792391E+03  0.00000000000E+00 0.  1.
        -24    2    1    2    0    0 -0.34722874225E+03 -0.72537502857E+03  0.24233758320E+03  0.84360822192E+03  0.78807336899E+02 0.  0.
        254    2    1    2    0    0  0.34722874225E+03  0.72537502857E+03  0.14320206336E+04  0.18716858427E+04  0.89765698750E+03 0.  0.
         23    2    4    4    0    0  0.33351262636E+03  0.29516163824E+03  0.13506266767E+04  0.14245756849E+04  0.82899924217E+02 0.  0.
         23    2    4    4    0    0  0.13716115893E+02  0.43021339032E+03  0.81393956869E+02  0.44711015782E+03  0.89503206443E+02 0.  0.
          3    1    3    3  502    0 -0.72215038598E+02 -0.23472804300E+03  0.73075059769E+02  0.25622691180E+03  0.00000000000E+00 0. -1.
         -4    1    3    3    0  502 -0.27501370365E+03 -0.49064698557E+03  0.16926252343E+03  0.58738131012E+03  0.00000000000E+00 0.  1.
         11    1    5    5    0    0  0.13736317402E+03  0.17627680647E+03  0.64681617828E+03  0.68433421847E+03  0.00000000000E+00 0. -1.
        -11    1    5    5    0    0  0.19614945233E+03  0.11888483177E+03  0.70381049844E+03  0.74024146641E+03  0.00000000000E+00 0.  1.
          1    1    6    6  503    0  0.20468873117E+02  0.67902506274E+02 -0.14225265896E+02  0.72333141193E+02  0.00000000000E+00 0. -1.
         -1    1    6    6    0  503 -0.67527572248E+01  0.36231088405E+03  0.95619222765E+02  0.37477701663E+03  0.00000000000E+00 0.  1.
<mgrwt>
<rscale>  0 0.21376030E+04</rscale>
<asrwt>0</asrwt>
<pdfrwt beam="1">  1        1 0.33766556E+00 0.21376030E+04</pdfrwt>
<pdfrwt beam="2">  1       -2 0.80071989E-01 0.21376030E+04</pdfrwt>
<totfact> 0.24398595E+00</totfact>
</mgrwt>
</event>
<event>
12    4  0.4207946E-008  0.1325739E+04  0.7818608E-02  0.9009400E-01
         -2   -1    0    0    0  501 -0.00000000000E+00  0.00000000000E+00  0.20930320775E+04  0.20930320775E+04  0.00000000000E+00 0.  1.
          1   -1    0    0  501    0  0.00000000000E+00 -0.00000000000E+00 -0.20993259490E+03  0.20993259490E+03  0.00000000000E+00 0. -1.
        -24    2    1    2    0    0 -0.24625836203E+03  0.11234200430E+03  0.90697235513E+03  0.94986457919E+03  0.79874645807E+02 0.  0.
        254    2    1    2    0    0  0.24625836203E+03 -0.11234200430E+03  0.97612712747E+03  0.13531000932E+04  0.89710188187E+03 0.  0.
         23    2    4    4    0    0  0.76768272961E+02  0.29935232199E+03  0.80444031446E+03  0.86702187242E+03  0.95380958864E+02 0.  0.
         23    2    4    4    0    0  0.16949008907E+03 -0.41169432629E+03  0.17168681301E+03  0.48607822079E+03  0.92609753099E+02 0.  0.
          3    1    3    3  502    0 -0.54204654140E+02  0.63016965108E+01  0.10381191550E+03  0.11728073034E+03  0.00000000000E+00 0. -1.
         -4    1    3    3    0  502 -0.19205370789E+03  0.10604030779E+03  0.80316043963E+03  0.83258384886E+03  0.00000000000E+00 0.  1.
         11    1    5    5    0    0  0.95032084328E+02  0.21235261878E+03  0.62176620171E+03  0.66386590614E+03  0.00000000000E+00 0. -1.
        -11    1    5    5    0    0 -0.18263811367E+02  0.86999703207E+02  0.18267411276E+03  0.20315596628E+03  0.00000000000E+00 0.  1.
          1    1    6    6  503    0  0.17305943369E+03 -0.40801214455E+03  0.17829293266E+03  0.47771523686E+03  0.00000000000E+00 0. -1.
         -1    1    6    6    0  503 -0.35693446194E+01 -0.36821817368E+01 -0.66061196483E+01  0.83629839270E+01  0.00000000000E+00 0.  1.
<mgrwt>
<rscale>  0 0.13257385E+04</rscale>
<asrwt>0</asrwt>
<pdfrwt beam="1">  1        1 0.32297324E-01 0.13257385E+04</pdfrwt>
<pdfrwt beam="2">  1       -2 0.32200492E+00 0.13257385E+04</pdfrwt>
<totfact> 0.28013599E+00</totfact>
</mgrwt>
</event>
<event>
12    4  0.4207946E-008  0.2286710E+04  0.7818608E-02  0.8483180E-01
         -2   -1    0    0    0  501 -0.00000000000E+00  0.00000000000E+00  0.17476971393E+04  0.17476971393E+04  0.00000000000E+00 0.  1.
          1   -1    0    0  501    0  0.00000000000E+00 -0.00000000000E+00 -0.74799022044E+03  0.74799022044E+03  0.00000000000E+00 0. -1.
        -24    2    1    2    0    0  0.23882396851E+02 -0.72563243180E+03 -0.20779643738E+03  0.75974046223E+03  0.83146951865E+02 0.  0.
        254    2    1    2    0    0 -0.23882396851E+02  0.72563243180E+03  0.12075033562E+04  0.17359468975E+04  0.10140682821E+04 0.  0.
         23    2    4    4    0    0 -0.46374755565E+03  0.63435644647E+03  0.77453645587E+03  0.11070567100E+04  0.90542482205E+02 0.  0.
         23    2    4    4    0    0  0.43986515880E+03  0.91275985332E+02  0.43296690037E+03  0.62889018754E+03  0.78929511264E+02 0.  0.
          1    1    3    3  502    0 -0.31151416308E+01 -0.65128005093E+03 -0.17757405365E+03  0.67506144415E+03  0.00000000000E+00 0. -1.
         -2    1    3    3    0  502  0.26997538482E+02 -0.74352380867E+02 -0.30222383724E+02  0.84679018078E+02  0.00000000000E+00 0.  1.
         11    1    5    5    0    0 -0.39542940884E+03  0.58278523043E+03  0.70808358236E+03  0.99869184526E+03  0.00000000000E+00 0. -1.
        -11    1    5    5    0    0 -0.68318146806E+02  0.51571216037E+02  0.66452873515E+02  0.10836486472E+03  0.00000000000E+00 0.  1.
          2    1    6    6  503    0  0.26020393521E+02  0.22609550102E+02  0.50919096350E+02  0.61489893543E+02  0.00000000000E+00 0.  1.
         -2    1    6    6    0  503  0.41384476527E+03  0.68666435230E+02  0.38204780402E+03  0.56740029400E+03  0.00000000000E+00 0. -1.
<mgrwt>
<rscale>  0 0.22867097E+04</rscale>
<asrwt>0</asrwt>
<pdfrwt beam="1">  1        1 0.11507542E+00 0.22867097E+04</pdfrwt>
<pdfrwt beam="2">  1       -2 0.26887648E+00 0.22867097E+04</pdfrwt>
<totfact> 0.96049101E-01</totfact>
</mgrwt>
</event>
<event>
12    4  0.4207946E-008  0.1989207E+04  0.7818608E-02  0.8611683E-01
          1   -1    0    0  501    0  0.00000000000E+00  0.00000000000E+00  0.88840459643E+03  0.88840459643E+03  0.00000000000E+00 0. -1.
         -2   -1    0    0    0  501 -0.00000000000E+00 -0.00000000000E+00 -0.11134975894E+04  0.11134975894E+04  0.00000000000E+00 0.  1.
        -24    2    1    2    0    0  0.72753509885E+03 -0.22588890312E+03 -0.29394465045E+03  0.82039206835E+03  0.79413926170E+02 0.  0.
        254    2    1    2    0    0 -0.72753509885E+03  0.22588890312E+03  0.68851657525E+02  0.11815101174E+04  0.90049569141E+03 0.  0.
         23    2    4    4    0    0 -0.48497828413E+03 -0.20893656330E+03  0.31190463812E+03  0.62011001249E+03  0.91616050711E+02 0.  0.
         23    2    4    4    0    0 -0.24255681472E+03  0.43482546642E+03 -0.24305298059E+03  0.56140010495E+03  0.90489401846E+02 0.  0.
          1    1    3    3  502    0  0.55779665758E+03 -0.19476791506E+03 -0.19903920275E+03  0.62344867967E+03  0.00000000000E+00 0. -1.
         -2    1    3    3    0  502  0.16973844127E+03 -0.31120988060E+02 -0.94905447709E+02  0.19694338868E+03  0.00000000000E+00 0.  1.
         11    1    5    5    0    0 -0.34121147290E+03 -0.10763542853E+03  0.18165887163E+03  0.40126126197E+03  0.00000000000E+00 0.  1.
        -11    1    5    5    0    0 -0.14376681123E+03 -0.10130113477E+03  0.13024576649E+03  0.21884875052E+03  0.00000000000E+00 0. -1.
          3    1    6    6  503    0 -0.19101681246E+03  0.30095071096E+03 -0.13247159009E+03  0.38027289576E+03  0.00000000000E+00 0. -1.
         -3    1    6    6    0  503 -0.51540002259E+02  0.13387475546E+03 -0.11058139050E+03  0.18112720919E+03  0.00000000000E+00 0.  1.
<mgrwt>
<rscale>  0 0.19892073E+04</rscale>
<asrwt>0</asrwt>
<pdfrwt beam="1">  1        1 0.13667763E+00 0.19892073E+04</pdfrwt>
<pdfrwt beam="2">  1       -2 0.17130732E+00 0.19892073E+04</pdfrwt>
<totfact> 0.31568587E+00</totfact>
</mgrwt>
</event>
<event>
12    4  0.4207946E-008  0.3792165E+04  0.7818608E-02  0.8047838E-01
          1   -1    0    0  501    0  0.00000000000E+00  0.00000000000E+00  0.16132876305E+04  0.16132876305E+04  0.00000000000E+00 0. -1.
         -2   -1    0    0    0  501 -0.00000000000E+00 -0.00000000000E+00 -0.22284485812E+04  0.22284485812E+04  0.00000000000E+00 0.  1.
        -24    2    1    2    0    0 -0.12965457648E+04 -0.11908057473E+04 -0.60603010957E+03  0.18635435454E+04  0.80453737892E+02 0.  0.
        254    2    1    2    0    0  0.12965457648E+04  0.11908057473E+04 -0.91308410844E+01  0.19781926663E+04  0.90228244179E+03 0.  0.
         23    2    4    4    0    0  0.25134355760E+03  0.74647342249E+03  0.20442814397E+03  0.81872312484E+03  0.90114009270E+02 0.  0.
         23    2    4    4    0    0  0.10452022072E+04  0.44433232479E+03 -0.21355898506E+03  0.11594695414E+04  0.94251306122E+02 0.  0.
          3    1    3    3  502    0 -0.10604374906E+04 -0.99272182320E+03 -0.47077627158E+03  0.15269756342E+04  0.00000000000E+00 0. -1.
         -4    1    3    3    0  502 -0.23610827421E+03 -0.19808392408E+03 -0.13525383799E+03  0.33656791116E+03  0.00000000000E+00 0.  1.
         11    1    5    5    0    0  0.14099212290E+03  0.39527456016E+03  0.15460127833E+03  0.44723854026E+03  0.00000000000E+00 0.  1.
        -11    1    5    5    0    0  0.11035143470E+03  0.35119886233E+03  0.49826865639E+02  0.37148458458E+03  0.00000000000E+00 0. -1.
          4    1    6    6  503    0  0.55998220885E+03  0.23346432028E+03 -0.66388663257E+02  0.61032214255E+03  0.00000000000E+00 0. -1.
         -4    1    6    6    0  503  0.48521999832E+03  0.21086800451E+03 -0.14717032180E+03  0.54914739890E+03  0.00000000000E+00 0.  1.
<mgrwt>
<rscale>  0 0.37921648E+04</rscale>
<asrwt>0</asrwt>
<pdfrwt beam="1">  1        1 0.24819810E+00 0.37921648E+04</pdfrwt>
<pdfrwt beam="2">  1       -2 0.34283824E+00 0.37921648E+04</pdfrwt>
<totfact> 0.65931031E-02</totfact>
</mgrwt>
</event>
<event>
12    4  0.4207946E-008  0.1527559E+04  0.7818608E-02  0.8866331E-01
          1   -1    0    0  501    0  0.00000000000E+00  0.00000000000E+00  0.17201638653E+04  0.17201638653E+04  0.00000000000E+00 0. -1.
         -2   -1    0    0    0  501 -0.00000000000E+00 -0.00000000000E+00 -0.33912986989E+03  0.33912986989E+03  0.00000000000E+00 0.  1.
        -24    2    1    2    0    0 -0.25132654208E+03 -0.27531818372E+03  0.88885560323E+03  0.96713824530E+03  0.79542247236E+02 0.  0.
        254    2    1    2    0    0  0.25132654208E+03  0.27531818372E+03  0.49217839217E+03  0.10921554899E+04  0.90088784614E+03 0.  0.
         23    2    4    4    0    0 -0.24890469232E+03 -0.10489908224E+03 -0.68149115807E+01  0.28470199572E+03  0.89729705405E+02 0.  0.
         23    2    4    4    0    0  0.50023123439E+03  0.38021726596E+03  0.49899330375E+03  0.80745349417E+03  0.90500667686E+02 0.  0.
          3    1    3    3  502    0 -0.21673696311E+03 -0.25976565172E+03  0.74236385439E+03  0.81581688956E+03  0.00000000000E+00 0. -1.
         -4    1    3    3    0  502 -0.34589578963E+02 -0.15552532000E+02  0.14649174884E+03  0.15132135574E+03  0.00000000000E+00 0.  1.
         11    1    5    5    0    0 -0.11930300871E+03 -0.17081251958E+02 -0.35292594369E+02  0.12558082765E+03  0.00000000000E+00 0. -1.
        -11    1    5    5    0    0 -0.12960168360E+03 -0.87817830286E+02  0.28477682788E+02  0.15912116806E+03  0.00000000000E+00 0.  1.
          3    1    6    6  503    0  0.18259239357E+02  0.15709744627E+02  0.50391706803E+00  0.24092526446E+02  0.00000000000E+00 0. -1.
         -3    1    6    6    0  503  0.48197199504E+03  0.36450752134E+03  0.49848938669E+03  0.78336096772E+03  0.00000000000E+00 0.  1.
<mgrwt>
<rscale>  0 0.15275588E+04</rscale>
<asrwt>0</asrwt>
<pdfrwt beam="1">  1        1 0.26464059E+00 0.15275588E+04</pdfrwt>
<pdfrwt beam="2">  1       -2 0.52173827E-01 0.15275588E+04</pdfrwt>
<totfact> 0.13566054E+01</totfact>
</mgrwt>
</event>
<event>
12    4  0.4207946E-008  0.1560893E+04  0.7818608E-02  0.8844940E-01
         -4   -1    0    0    0  501 -0.00000000000E+00  0.00000000000E+00  0.33684677961E+03  0.33684677961E+03  0.00000000000E+00 0.  1.
          3   -1    0    0  501    0  0.00000000000E+00 -0.00000000000E+00 -0.18082317674E+04  0.18082317674E+04  0.00000000000E+00 0. -1.
        -24    2    1    2    0    0 -0.32742478373E+03 -0.79342037692E+02  0.43120844679E+02  0.34876016502E+03  0.79196575136E+02 0.  0.
        254    2    1    2    0    0  0.32742478373E+03  0.79342037692E+02 -0.15145058325E+04  0.17963183820E+04  0.90527877749E+03 0.  0.
         23    2    4    4    0    0  0.62719420801E+02 -0.37792395926E+03 -0.89105609600E+03  0.97433245839E+03  0.92641937188E+02 0.  0.
         23    2    4    4    0    0  0.26470536293E+03  0.45726599695E+03 -0.62344973651E+03  0.82198592364E+03  0.88375129849E+02 0.  0.
          1    1    3    3  502    0 -0.59000315365E+02 -0.47118465560E+02  0.14639943289E+02  0.76912384890E+02  0.00000000000E+00 0. -1.
         -2    1    3    3    0  502 -0.26842446836E+03 -0.32223572132E+02  0.28480901390E+02  0.27184778013E+03  0.00000000000E+00 0.  1.
         11    1    5    5    0    0  0.83591103161E+02 -0.29161148315E+03 -0.64593628808E+03  0.71362344264E+03  0.00000000000E+00 0.  1.
        -11    1    5    5    0    0 -0.20871682360E+02 -0.86312476112E+02 -0.24511980792E+03  0.26070901575E+03  0.00000000000E+00 0. -1.
          1    1    6    6  503    0  0.13365293598E+03  0.15958798900E+03 -0.20687128672E+03  0.29347429666E+03  0.00000000000E+00 0. -1.
         -1    1    6    6    0  503  0.13105242695E+03  0.29767800796E+03 -0.41657844979E+03  0.52851162699E+03  0.00000000000E+00 0.  1.
<mgrwt>
<rscale>  0 0.15608934E+04</rscale>
<asrwt>0</asrwt>
<pdfrwt beam="1">  1        3 0.27818950E+00 0.15608934E+04</pdfrwt>
<pdfrwt beam="2">  1       -4 0.51822582E-01 0.15608934E+04</pdfrwt>
<totfact> 0.40495901E-01</totfact>
</mgrwt>
</event>
<event>
12    4  0.4207946E-008  0.1349175E+04  0.7818608E-02  0.8991453E-01
         -2   -1    0    0    0  501 -0.00000000000E+00  0.00000000000E+00  0.14223007981E+04  0.14223007981E+04  0.00000000000E+00 0.  1.
          1   -1    0    0  501    0  0.00000000000E+00 -0.00000000000E+00 -0.31995219336E+03  0.31995219336E+03  0.00000000000E+00 0. -1.
        -24    2    1    2    0    0 -0.16488821680E+03 -0.25686193835E+03  0.42179678153E+02  0.31713455680E+03  0.75026811590E+02 0.  0.
        254    2    1    2    0    0  0.16488821680E+03  0.25686193835E+03  0.10601689266E+04  0.14251184347E+04  0.90212982463E+03 0.  0.
         23    2    4    4    0    0  0.44950682125E+03  0.41072547415E+03  0.66283078358E+03  0.90465345254E+03  0.91112151067E+02 0.  0.
         23    2    4    4    0    0 -0.28461860445E+03 -0.15386353580E+03  0.39733814302E+03  0.52046498213E+03  0.91238479110E+02 0.  0.
          3    1    3    3  502    0 -0.11353164296E+03 -0.14814687849E+03 -0.80713569207E+01  0.18682097945E+03  0.00000000000E+00 0. -1.
         -4    1    3    3    0  502 -0.51356573835E+02 -0.10871505986E+03  0.50251035073E+02  0.13031357736E+03  0.00000000000E+00 0.  1.
         11    1    5    5    0    0  0.41901570527E+03  0.37367698167E+03  0.64048924042E+03  0.85172478829E+03  0.00000000000E+00 0. -1.
        -11    1    5    5    0    0  0.30491115983E+02  0.37048492484E+02  0.22341543157E+02  0.52928664256E+02  0.00000000000E+00 0.  1.
          2    1    6    6  503    0 -0.23272412839E+03 -0.83400988917E+02  0.31380026844E+03  0.39948323289E+03  0.00000000000E+00 0. -1.
         -2    1    6    6    0  503 -0.51894476068E+02 -0.70462546880E+02  0.83537874583E+02  0.12098174924E+03  0.00000000000E+00 0.  1.
<mgrwt>
<rscale>  0 0.13491749E+04</rscale>
<asrwt>0</asrwt>
<pdfrwt beam="1">  1        1 0.49223415E-01 0.13491749E+04</pdfrwt>
<pdfrwt beam="2">  1       -2 0.21881550E+00 0.13491749E+04</pdfrwt>
<totfact> 0.69250061E+00</totfact>
</mgrwt>
</event>
<event>
12    4  0.4207946E-008  0.2898391E+04  0.7818608E-02  0.8273356E-01
         -2   -1    0    0    0  501 -0.00000000000E+00  0.00000000000E+00  0.97181119829E+03  0.97181119829E+03  0.00000000000E+00 0.  1.
          1   -1    0    0  501    0  0.00000000000E+00 -0.00000000000E+00 -0.21610864893E+04  0.21610864893E+04  0.00000000000E+00 0. -1.
        -24    2    1    2    0    0  0.56220780264E+03 -0.50359367583E+03 -0.16899015661E+04  0.18524973470E+04  0.79340492280E+02 0.  0.
        254    2    1    2    0    0 -0.56220780264E+03  0.50359367583E+03  0.50062627513E+03  0.12804003406E+04  0.90504925897E+03 0.  0.
         23    2    4    4    0    0  0.22639327923E+03  0.18451283755E+03  0.33724356777E+02  0.30570069169E+03  0.83765604857E+02 0.  0.
         23    2    4    4    0    0 -0.78860108187E+03  0.31908083828E+03  0.46690191836E+03  0.97469964890E+03  0.91311316507E+02 0.  0.
          3    1    3    3  502    0  0.46364119510E+03 -0.43586788068E+03 -0.14781629784E+04  0.16093196568E+04  0.00000000000E+00 0. -1.
         -4    1    3    3    0  502  0.98566607535E+02 -0.67725795145E+02 -0.21173858775E+03  0.24317769016E+03  0.00000000000E+00 0.  1.
         11    1    5    5    0    0  0.13296436044E+03  0.10780460855E+03  0.61101508957E+02  0.18175464002E+03  0.00000000000E+00 0.  1.
        -11    1    5    5    0    0  0.93428918793E+02  0.76708229002E+02 -0.27377152180E+02  0.12394605167E+03  0.00000000000E+00 0. -1.
          3    1    6    6  503    0 -0.22862961996E+03  0.49579606957E+02  0.13718027622E+03  0.27119747184E+03  0.00000000000E+00 0. -1.
         -3    1    6    6    0  503 -0.55997146191E+03  0.26950123132E+03  0.32972164214E+03  0.70350217706E+03  0.00000000000E+00 0.  1.
<mgrwt>
<rscale>  0 0.28983913E+04</rscale>
<asrwt>0</asrwt>
<pdfrwt beam="1">  1        1 0.33247484E+00 0.28983913E+04</pdfrwt>
<pdfrwt beam="2">  1       -2 0.14950942E+00 0.28983913E+04</pdfrwt>
<totfact> 0.52828181E-01</totfact>
</mgrwt>
</event>
<event>
12    4  0.4207946E-008  0.1863941E+04  0.7818608E-02  0.8673016E-01
         -2   -1    0    0    0  501 -0.00000000000E+00  0.00000000000E+00  0.96068311432E+03  0.96068311432E+03  0.00000000000E+00 0.  1.
          1   -1    0    0  501    0  0.00000000000E+00 -0.00000000000E+00 -0.90411649404E+03  0.90411649404E+03  0.00000000000E+00 0. -1.
        -24    2    1    2    0    0 -0.31453374696E+03  0.79165617182E+02 -0.61128097656E+03  0.69662368700E+03  0.80133988266E+02 0.  0.
        254    2    1    2    0    0  0.31453374696E+03 -0.79165617182E+02  0.66784759684E+03  0.11681759214E+04  0.90189572441E+03 0.  0.
         23    2    4    4    0    0  0.61056259054E+03  0.49142025815E+02  0.38414411135E+03  0.72874865127E+03  0.91138810434E+02 0.  0.
         23    2    4    4    0    0 -0.29602884358E+03 -0.12830764300E+03  0.28370348549E+03  0.43942727009E+03  0.92264459758E+02 0.  0.
          3    1    3    3  502    0 -0.23149305573E+03  0.72219686697E+02 -0.51535701393E+03  0.56955910124E+03  0.00000000000E+00 0. -1.
         -4    1    3    3    0  502 -0.83040691224E+02  0.69459304859E+01 -0.95923962631E+02  0.12706458577E+03  0.00000000000E+00 0.  1.
         11    1    5    5    0    0  0.48689432788E+03  0.75831491005E+02  0.30604654902E+03  0.58006981624E+03  0.00000000000E+00 0. -1.
        -11    1    5    5    0    0  0.12366826266E+03 -0.26689465189E+02  0.78097562335E+02  0.14867883503E+03  0.00000000000E+00 0.  1.
          3    1    6    6  503    0 -0.28042343813E+03 -0.13122142892E+03  0.23642609287E+03  0.38955572830E+03  0.00000000000E+00 0. -1.
         -3    1    6    6    0  503 -0.15605405456E+02  0.29137859254E+01  0.47277392617E+02  0.49871541790E+02  0.00000000000E+00 0.  1.
<mgrwt>
<rscale>  0 0.18639415E+04</rscale>
<asrwt>0</asrwt>
<pdfrwt beam="1">  1        1 0.13909485E+00 0.18639415E+04</pdfrwt>
<pdfrwt beam="2">  1       -2 0.14779740E+00 0.18639415E+04</pdfrwt>
<totfact> 0.46260917E+00</totfact>
</mgrwt>
</event>
<event>
12    4  0.4207946E-008  0.1532479E+04  0.7818608E-02  0.8863137E-01
          1   -1    0    0  501    0  0.00000000000E+00  0.00000000000E+00  0.60121440431E+03  0.60121440431E+03  0.00000000000E+00 0. -1.
         -2   -1    0    0    0  501 -0.00000000000E+00 -0.00000000000E+00 -0.97656186701E+03  0.97656186701E+03  0.00000000000E+00 0.  1.
        -24    2    1    2    0    0 -0.90167018757E+02  0.39438013058E+03 -0.43492375154E+03  0.60061968866E+03  0.88991921463E+02 0.  0.
        254    2    1    2    0    0  0.90167018757E+02 -0.39438013058E+03  0.59576288847E+02  0.97715658266E+03  0.88747950634E+03 0.  0.
         23    2    4    4    0    0  0.39485277519E+03 -0.38975612926E+03  0.23803117487E+03  0.61247786895E+03  0.10320729322E+03 0.  0.
         23    2    4    4    0    0 -0.30468575643E+03 -0.46240013200E+01 -0.17845488602E+03  0.36467871371E+03  0.91047385076E+02 0.  0.
          1    1    3    3  502    0 -0.23617695011E+02  0.10430576874E+03 -0.62427982363E+02  0.12383352491E+03  0.00000000000E+00 0. -1.
         -2    1    3    3    0  502 -0.66549323746E+02  0.29007436184E+03 -0.37249576918E+03  0.47678616375E+03  0.00000000000E+00 0.  1.
         11    1    5    5    0    0  0.64316144632E+02 -0.64829631730E+02 -0.23947736568E+00  0.91320890052E+02  0.00000000000E+00 0.  1.
        -11    1    5    5    0    0  0.33053663056E+03 -0.32492649753E+03  0.23827065223E+03  0.52115697889E+03  0.00000000000E+00 0. -1.
          4    1    6    6  503    0 -0.80235501600E+02 -0.10693087929E+02 -0.95795134726E+02  0.12541445564E+03  0.00000000000E+00 0. -1.
         -4    1    6    6    0  503 -0.22445025483E+03  0.60690866089E+01 -0.82659751295E+02  0.23926425807E+03  0.00000000000E+00 0.  1.
<mgrwt>
<rscale>  0 0.15324791E+04</rscale>
<asrwt>0</asrwt>
<pdfrwt beam="1">  1        1 0.92494525E-01 0.15324791E+04</pdfrwt>
<pdfrwt beam="2">  1       -2 0.15024029E+00 0.15324791E+04</pdfrwt>
<totfact> 0.85963476E+00</totfact>
</mgrwt>
</event>
<event>
12    4  0.4207946E-008  0.3231696E+04  0.7818608E-02  0.8180496E-01
         -2   -1    0    0    0  501 -0.00000000000E+00  0.00000000000E+00  0.89727434204E+03  0.89727434204E+03  0.00000000000E+00 0.  1.
          1   -1    0    0  501    0  0.00000000000E+00 -0.00000000000E+00 -0.29098850892E+04  0.29098850892E+04  0.00000000000E+00 0. -1.
        -24    2    1    2    0    0  0.10513215380E+04 -0.70969147428E+03 -0.18410274228E+04  0.22370907524E+04  0.79082853343E+02 0.  0.
        254    2    1    2    0    0 -0.10513215380E+04  0.70969147428E+03 -0.17158332432E+03  0.15700686789E+04  0.90925016040E+03 0.  0.
         23    2    4    4    0    0 -0.48604748289E+03  0.19591580874E+03 -0.50365585269E+03  0.73263359929E+03  0.91965282168E+02 0.  0.
         23    2    4    4    0    0 -0.56527405514E+03  0.51377566554E+03  0.33207252837E+03  0.83743507958E+03  0.86747659896E+02 0.  0.
          3    1    3    3  502    0  0.44780496545E+03 -0.27484315839E+03 -0.81815996283E+03  0.97234447270E+03  0.00000000000E+00 0. -1.
         -4    1    3    3    0  502  0.60351657257E+03 -0.43484831588E+03 -0.10228674600E+04  0.12647462797E+04  0.00000000000E+00 0.  1.
         11    1    5    5    0    0 -0.30308894027E+03  0.14719409941E+03 -0.26919828967E+03  0.43127337940E+03  0.00000000000E+00 0.  1.
        -11    1    5    5    0    0 -0.18295854262E+03  0.48721709326E+02 -0.23445756301E+03  0.30136021989E+03  0.00000000000E+00 0. -1.
          3    1    6    6  503    0 -0.25190881897E+03  0.25361586913E+03  0.11257894593E+03  0.37477070485E+03  0.00000000000E+00 0. -1.
         -3    1    6    6    0  503 -0.31336523617E+03  0.26015979641E+03  0.21949358244E+03  0.46266437473E+03  0.00000000000E+00 0.  1.
<mgrwt>
<rscale>  0 0.32316963E+04</rscale>
<asrwt>0</asrwt>
<pdfrwt beam="1">  1        1 0.44767462E+00 0.32316963E+04</pdfrwt>
<pdfrwt beam="2">  1       -2 0.13804221E+00 0.32316963E+04</pdfrwt>
<totfact> 0.19003525E-01</totfact>
</mgrwt>
</event>
<event>
12    4  0.4207946E-008  0.1186052E+04  0.7818608E-02  0.9125153E-01
          1   -1    0    0  501    0  0.00000000000E+00  0.00000000000E+00  0.41980287365E+03  0.41980287365E+03  0.00000000000E+00 0. -1.
         -2   -1    0    0    0  501 -0.00000000000E+00 -0.00000000000E+00 -0.83772644912E+03  0.83772644912E+03  0.00000000000E+00 0.  1.
        -24    2    1    2    0    0 -0.14609541291E+03 -0.10735161772E+03 -0.25673150535E+03  0.32383895391E+03  0.78053588842E+02 0.  0.
        254    2    1    2    0    0  0.14609541291E+03  0.10735161772E+03 -0.16119207012E+03  0.93369036886E+03  0.90162441290E+03 0.  0.
         23    2    4    4    0    0  0.41688279333E+03  0.12416418203E+03  0.18791065615E+03  0.48274781439E+03  0.92341919642E+02 0.  0.
         23    2    4    4    0    0 -0.27078738042E+03 -0.16812564317E+02 -0.34910272628E+03  0.45094255447E+03  0.88701782532E+02 0.  0.
          1    1    3    3  502    0 -0.85887876927E+02 -0.25997222663E+02 -0.80199379735E+02  0.12035166596E+03  0.00000000000E+00 0. -1.
         -2    1    3    3    0  502 -0.60207535982E+02 -0.81354395055E+02 -0.17653212562E+03  0.20348728795E+03  0.00000000000E+00 0.  1.
         11    1    5    5    0    0  0.18834450719E+03  0.10361431440E+03  0.82812055892E+02  0.23036366063E+03  0.00000000000E+00 0. -1.
        -11    1    5    5    0    0  0.22853828614E+03  0.20549867640E+02  0.10509860026E+03  0.25238415376E+03  0.00000000000E+00 0.  1.
          1    1    6    6  503    0 -0.23671763632E+03 -0.38489760602E+02 -0.32502386838E+03  0.40392724101E+03  0.00000000000E+00 0. -1.
         -1    1    6    6    0  503 -0.34069744106E+02  0.21677196285E+02 -0.24078857901E+02  0.47015313463E+02  0.00000000000E+00 0.  1.
<mgrwt>
<rscale>  0 0.11860522E+04</rscale>
<asrwt>0</asrwt>
<pdfrwt beam="1">  1        1 0.64585057E-01 0.11860522E+04</pdfrwt>
<pdfrwt beam="2">  1       -2 0.12888099E+00 0.11860522E+04</pdfrwt>
<totfact> 0.21599315E+01</totfact>
</mgrwt>
</event>
<event>
12    4  0.4207946E-008  0.2218424E+04  0.7818608E-02  0.8510798E-01
         -2   -1    0    0    0  501 -0.00000000000E+00  0.00000000000E+00  0.90686409553E+03  0.90686409553E+03  0.00000000000E+00 0.  1.
          1   -1    0    0  501    0  0.00000000000E+00 -0.00000000000E+00 -0.13567098598E+04  0.13567098598E+04  0.00000000000E+00 0. -1.
        -24    2    1    2    0    0 -0.18639020162E+03 -0.22388559944E+03 -0.10848421465E+04  0.11259436918E+04  0.77463832651E+02 0.  0.
        254    2    1    2    0    0  0.18639020162E+03  0.22388559944E+03  0.63499638226E+03  0.11376302635E+04  0.89783970844E+03 0.  0.
         23    2    4    4    0    0  0.52023067507E+03  0.21021414745E+02  0.45852974515E+03  0.69965074955E+03  0.90442185917E+02 0.  0.
         23    2    4    4    0    0 -0.33384047345E+03  0.20286418470E+03  0.17646663711E+03  0.43797951395E+03  0.89901287432E+02 0.  0.
          3    1    3    3  502    0 -0.16261334764E+03 -0.20681838925E+03 -0.86393527985E+03  0.90310636956E+03  0.00000000000E+00 0. -1.
         -4    1    3    3    0  502 -0.23776853983E+02 -0.17067210189E+02 -0.22090686664E+03  0.22283732223E+03  0.00000000000E+00 0.  1.
         11    1    5    5    0    0  0.41229309256E+03  0.93785645358E+01  0.31119921340E+03  0.51664156053E+03  0.00000000000E+00 0.  1.
        -11    1    5    5    0    0  0.10793758251E+03  0.11642850209E+02  0.14733053175E+03  0.18300918902E+03  0.00000000000E+00 0. -1.
          1    1    6    6  503    0 -0.30464516525E+03  0.14817786474E+03  0.15257342100E+03  0.37154273658E+03  0.00000000000E+00 0. -1.
         -1    1    6    6    0  503 -0.29195308200E+02  0.54686319960E+02  0.23893216108E+02  0.66436777373E+02  0.00000000000E+00 0.  1.
<mgrwt>
<rscale>  0 0.22184242E+04</rscale>
<asrwt>0</asrwt>
<pdfrwt beam="1">  1        1 0.20872459E+00 0.22184242E+04</pdfrwt>
<pdfrwt beam="2">  1       -2 0.13951755E+00 0.22184242E+04</pdfrwt>
<totfact> 0.23864717E+00</totfact>
</mgrwt>
</event>
<event>
12    4  0.4207946E-008  0.2256010E+04  0.7818608E-02  0.8495470E-01
          1   -1    0    0  501    0  0.00000000000E+00  0.00000000000E+00  0.14816172152E+04  0.14816172152E+04  0.00000000000E+00 0. -1.
         -2   -1    0    0    0  501 -0.00000000000E+00 -0.00000000000E+00 -0.85878818818E+03  0.85878818818E+03  0.00000000000E+00 0.  1.
        -24    2    1    2    0    0  0.15289255733E+03  0.63914703495E+03  0.97448178332E+03  0.11780851843E+04  0.79905501242E+02 0.  0.
        254    2    1    2    0    0 -0.15289255733E+03 -0.63914703495E+03 -0.35165275630E+03  0.11623202190E+04  0.89187642879E+03 0.  0.
         23    2    4    4    0    0  0.17957344102E+03 -0.21811586283E+03  0.22233797441E+03  0.37168142622E+03  0.94296115493E+02 0.  0.
         23    2    4    4    0    0 -0.33246599835E+03 -0.42103117212E+03 -0.57399073071E+03  0.79063879283E+03  0.88563275884E+02 0.  0.
          1    1    3    3  502    0  0.15501359009E+03  0.53248573318E+03  0.79592513525E+03  0.97008612508E+03  0.00000000000E+00 0. -1.
         -2    1    3    3    0  502 -0.21210327674E+01  0.10666130177E+03  0.17855664807E+03  0.20799905924E+03  0.00000000000E+00 0.  1.
         11    1    5    5    0    0  0.38168607275E+02 -0.71314559071E+01  0.55737387872E+02  0.67929056018E+02  0.00000000000E+00 0. -1.
        -11    1    5    5    0    0  0.14140483375E+03 -0.21098440692E+03  0.16660058653E+03  0.30375237020E+03  0.00000000000E+00 0.  1.
          2    1    6    6  503    0 -0.32785695402E+03 -0.42553106037E+03 -0.56538239024E+03  0.77988724366E+03  0.00000000000E+00 0.  1.
         -2    1    6    6    0  503 -0.46090443330E+01  0.44998882473E+01 -0.86083404698E+01  0.10751549170E+02  0.00000000000E+00 0. -1.
<mgrwt>
<rscale>  0 0.22560101E+04</rscale>
<asrwt>0</asrwt>
<pdfrwt beam="1">  1        1 0.22794111E+00 0.22560101E+04</pdfrwt>
<pdfrwt beam="2">  1       -2 0.13212126E+00 0.22560101E+04</pdfrwt>
<totfact> 0.22367556E+00</totfact>
</mgrwt>
</event>
<event>
12    4  0.4207946E-008  0.1406858E+04  0.7818608E-02  0.8948869E-01
          1   -1    0    0  501    0  0.00000000000E+00  0.00000000000E+00  0.14758363343E+04  0.14758363343E+04  0.00000000000E+00 0. -1.
         -2   -1    0    0    0  501 -0.00000000000E+00 -0.00000000000E+00 -0.33527592114E+03  0.33527592114E+03  0.00000000000E+00 0.  1.
        -24    2    1    2    0    0  0.35140298926E+03 -0.22744812644E+03  0.31813600352E+03  0.53193454724E+03  0.80790684617E+02 0.  0.
        254    2    1    2    0    0 -0.35140298926E+03  0.22744812644E+03  0.82242440965E+03  0.12791777082E+04  0.88583124156E+03 0.  0.
         23    2    4    4    0    0  0.24352459070E+03  0.24485008383E+03  0.18474884637E+03  0.40189741782E+03  0.90186520011E+02 0.  0.
         23    2    4    4    0    0 -0.59492757996E+03 -0.17401957390E+02  0.63767556328E+03  0.87728029039E+03  0.93535717180E+02 0.  0.
          3    1    3    3  502    0  0.30404158630E+02 -0.23758310396E+02  0.40423849437E+01  0.38797049513E+02  0.00000000000E+00 0. -1.
         -4    1    3    3    0  502  0.32099883063E+03 -0.20368981604E+03  0.31409361858E+03  0.49313749772E+03  0.00000000000E+00 0.  1.
         11    1    5    5    0    0  0.33326376752E+02  0.66999529300E+02  0.92992665908E+01  0.75405972396E+02  0.00000000000E+00 0. -1.
        -11    1    5    5    0    0  0.21019821394E+03  0.17785055453E+03  0.17544957978E+03  0.32649144542E+03  0.00000000000E+00 0.  1.
          3    1    6    6  503    0 -0.17809385276E+03  0.57594286884E+01  0.13322526511E+03  0.22248497180E+03  0.00000000000E+00 0. -1.
         -3    1    6    6    0  503 -0.41683372719E+03 -0.23161386078E+02  0.50445029817E+03  0.65479531860E+03  0.00000000000E+00 0.  1.
<mgrwt>
<rscale>  0 0.14068580E+04</rscale>
<asrwt>0</asrwt>
<pdfrwt beam="1">  1        1 0.22705174E+00 0.14068580E+04</pdfrwt>
<pdfrwt beam="2">  1       -2 0.51580912E-01 0.14068580E+04</pdfrwt>
<totfact> 0.20641965E+01</totfact>
</mgrwt>
</event>
<event>
12    4  0.4207946E-008  0.1381972E+04  0.7818608E-02  0.8966972E-01
          1   -1    0    0  501    0  0.00000000000E+00  0.00000000000E+00  0.10999831062E+04  0.10999831062E+04  0.00000000000E+00 0. -1.
         -2   -1    0    0    0  501 -0.00000000000E+00 -0.00000000000E+00 -0.43406301696E+03  0.43406301696E+03  0.00000000000E+00 0.  1.
        -24    2    1    2    0    0  0.20094340912E+03  0.28822154456E+03  0.51173054015E+02  0.36355984323E+03  0.78148357225E+02 0.  0.
        254    2    1    2    0    0 -0.20094340912E+03 -0.28822154456E+03  0.61474703518E+03  0.11704862799E+04  0.93202698551E+03 0.  0.
         23    2    4    4    0    0 -0.36296675971E+03 -0.19412248710E+03 -0.94240923010E+02  0.43139746125E+03  0.88283686736E+02 0.  0.
         23    2    4    4    0    0  0.16202335060E+03 -0.94099057457E+02  0.70898795819E+03  0.73908881864E+03  0.92098633138E+02 0.  0.
          3    1    3    3  502    0  0.19389322949E+03  0.24073402231E+03  0.59646657145E+02  0.31480974834E+03  0.00000000000E+00 0. -1.
         -4    1    3    3    0  502  0.70501796272E+01  0.47487522247E+02 -0.84736031305E+01  0.48750094892E+02  0.00000000000E+00 0.  1.
         11    1    5    5    0    0 -0.42075100643E+02 -0.50934855147E+01 -0.33553177900E+02  0.54056206267E+02  0.00000000000E+00 0.  1.
        -11    1    5    5    0    0 -0.32089165907E+03 -0.18902900159E+03 -0.60687745110E+02  0.37734125498E+03  0.00000000000E+00 0. -1.
          4    1    6    6  503    0 -0.71876185415E+01  0.75734572151E+01  0.53951839250E+02  0.54952889578E+02  0.00000000000E+00 0.  1.
         -4    1    6    6    0  503  0.16921096914E+03 -0.10167251467E+03  0.65503611894E+03  0.68413592906E+03  0.00000000000E+00 0. -1.
<mgrwt>
<rscale>  0 0.13819725E+04</rscale>
<asrwt>0</asrwt>
<pdfrwt beam="1">  1        1 0.16922817E+00 0.13819725E+04</pdfrwt>
<pdfrwt beam="2">  1       -2 0.66778926E-01 0.13819725E+04</pdfrwt>
<totfact> 0.22358860E+01</totfact>
</mgrwt>
</event>
<event>
12    4  0.4207946E-008  0.1578407E+04  0.7818608E-02  0.8833924E-01
         -2   -1    0    0    0  501 -0.00000000000E+00  0.00000000000E+00  0.72326147486E+03  0.72326147486E+03  0.00000000000E+00 0.  1.
          1   -1    0    0  501    0  0.00000000000E+00 -0.00000000000E+00 -0.86115816367E+03  0.86115816367E+03  0.00000000000E+00 0. -1.
        -24    2    1    2    0    0  0.14934359650E+02  0.15464926567E+03 -0.53862677973E+03  0.56677023768E+03  0.83488106987E+02 0.  0.
        254    2    1    2    0    0 -0.14934359650E+02 -0.15464926567E+03  0.40073009091E+03  0.10176494009E+04  0.92243496617E+03 0.  0.
         23    2    4    4    0    0 -0.30081344539E+03  0.12835603450E+03  0.49029620241E+03  0.59582976895E+03  0.87514267136E+02 0.  0.
         23    2    4    4    0    0  0.28587908574E+03 -0.28300530016E+03 -0.89566111500E+02  0.42181963190E+03  0.89949218679E+02 0.  0.
          3    1    3    3  502    0  0.30890238811E+02  0.15709293703E+03 -0.49538980980E+03  0.52061834521E+03  0.00000000000E+00 0. -1.
         -4    1    3    3    0  502 -0.15955879162E+02 -0.24436713640E+01 -0.43236969929E+02  0.46151892466E+02  0.00000000000E+00 0.  1.
         11    1    5    5    0    0 -0.22404295540E+03  0.11264727427E+03  0.42660242758E+03  0.49484773970E+03  0.00000000000E+00 0. -1.
        -11    1    5    5    0    0 -0.76770489984E+02  0.15708760222E+02  0.63693774837E+02  0.10098202926E+03  0.00000000000E+00 0.  1.
          1    1    6    6  503    0  0.18989033642E+03 -0.23153615026E+03 -0.39823845015E+02  0.30208155749E+03  0.00000000000E+00 0. -1.
         -1    1    6    6    0  503  0.95988749322E+02 -0.51469149900E+02 -0.49742266485E+02  0.11973807441E+03  0.00000000000E+00 0.  1.
<mgrwt>
<rscale>  0 0.15784075E+04</rscale>
<asrwt>0</asrwt>
<pdfrwt beam="1">  1        1 0.13248587E+00 0.15784075E+04</pdfrwt>
<pdfrwt beam="2">  1       -2 0.11127100E+00 0.15784075E+04</pdfrwt>
<totfact> 0.10546947E+01</totfact>
</mgrwt>
</event>
<event>
12    4  0.4207946E-008  0.1228351E+04  0.7818608E-02  0.9088397E-01
         -2   -1    0    0    0  501 -0.00000000000E+00  0.00000000000E+00  0.11223242205E+03  0.11223242205E+03  0.00000000000E+00 0.  1.
          1   -1    0    0  501    0  0.00000000000E+00 -0.00000000000E+00 -0.33609839100E+04  0.33609839100E+04  0.00000000000E+00 0. -1.
        -24    2    1    2    0    0  0.15531838357E+03 -0.68192237002E+02 -0.12858751289E+04  0.12993925628E+04  0.78563373760E+02 0.  0.
        254    2    1    2    0    0 -0.15531838357E+03  0.68192237002E+02 -0.19628763591E+04  0.21738237692E+04  0.91861428104E+03 0.  0.
         23    2    4    4    0    0  0.33880105776E+03 -0.25845546966E+02 -0.41471191535E+03  0.54335924555E+03  0.88312784797E+02 0.  0.
         23    2    4    4    0    0 -0.49411944133E+03  0.94037783968E+02 -0.15481644437E+04  0.16304645237E+04  0.92759318398E+02 0.  0.
          3    1    3    3  502    0  0.14486965032E+03 -0.55680652347E+02 -0.12542275712E+04  0.12637936347E+04  0.00000000000E+00 0. -1.
         -2    1    3    3    0  502  0.10448733249E+02 -0.12511584655E+02 -0.31647557646E+02  0.35598928103E+02  0.00000000000E+00 0.  1.
         11    1    5    5    0    0  0.32312913691E+03 -0.32633695286E+01 -0.38910529988E+03  0.50579247038E+03  0.00000000000E+00 0.  1.
        -11    1    5    5    0    0  0.15671920850E+02 -0.22582177438E+02 -0.25606615469E+02  0.37566775171E+02  0.00000000000E+00 0. -1.
          1    1    6    6  503    0 -0.96627262791E+02 -0.18294707086E+02 -0.28752318614E+03  0.30387679542E+03  0.00000000000E+00 0. -1.
         -1    1    6    6    0  503 -0.39749217854E+03  0.11233249105E+03 -0.12606412576E+04  0.13265877283E+04  0.00000000000E+00 0.  1.
<mgrwt>
<rscale>  0 0.12283507E+04</rscale>
<asrwt>0</asrwt>
<pdfrwt beam="1">  1        1 0.51707438E+00 0.12283507E+04</pdfrwt>
<pdfrwt beam="2">  1       -2 0.17266529E-01 0.12283507E+04</pdfrwt>
<totfact> 0.78203330E+00</totfact>
</mgrwt>
</event>
<event>
12    4  0.4207946E-008  0.1770863E+04  0.7818608E-02  0.8721949E-01
          1   -1    0    0  501    0  0.00000000000E+00  0.00000000000E+00  0.22340029968E+04  0.22340029968E+04  0.00000000000E+00 0. -1.
         -2   -1    0    0    0  501 -0.00000000000E+00 -0.00000000000E+00 -0.35093477310E+03  0.35093477310E+03  0.00000000000E+00 0.  1.
        -24    2    1    2    0    0  0.19365797376E+03  0.48197530212E+03  0.12809471436E+04  0.13844743213E+04  0.78357890398E+02 0.  0.
        254    2    1    2    0    0 -0.19365797376E+03 -0.48197530212E+03  0.60212108008E+03  0.12004634486E+04  0.89931034334E+03 0.  0.
         23    2    4    4    0    0 -0.52315954571E+03 -0.19034846710E+03  0.20122831794E+03  0.59843241695E+03  0.87750057042E+02 0.  0.
         23    2    4    4    0    0  0.32950157195E+03 -0.29162683502E+03  0.40089276214E+03  0.60203103163E+03  0.90049205929E+02 0.  0.
          1    1    3    3  502    0  0.12523878601E+03  0.34056608438E+03  0.97945962015E+03  0.10445147959E+04  0.00000000000E+00 0. -1.
         -2    1    3    3    0  502  0.68419187750E+02  0.14140921774E+03  0.30148752347E+03  0.33995952542E+03  0.00000000000E+00 0.  1.
         11    1    5    5    0    0 -0.49367642355E+03 -0.16759105388E+03  0.20662219338E+03  0.56079934317E+03  0.00000000000E+00 0. -1.
        -11    1    5    5    0    0 -0.29483122169E+02 -0.22757413227E+02 -0.53938754377E+01  0.37633073777E+02  0.00000000000E+00 0.  1.
          1    1    6    6  503    0  0.31135655297E+03 -0.24146701623E+03  0.36933952093E+03  0.54005639032E+03  0.00000000000E+00 0. -1.
         -1    1    6    6    0  503  0.18145018980E+02 -0.50159818787E+02  0.31553241208E+02  0.61974641308E+02  0.00000000000E+00 0.  1.
<mgrwt>
<rscale>  0 0.17708634E+04</rscale>
<asrwt>0</asrwt>
<pdfrwt beam="1">  1        1 0.34369276E+00 0.17708634E+04</pdfrwt>
<pdfrwt beam="2">  1       -2 0.53989966E-01 0.17708634E+04</pdfrwt>
<totfact> 0.55458031E+00</totfact>
</mgrwt>
</event>
<event>
12    4  0.4207946E-008  0.2982706E+04  0.7818608E-02  0.8248686E-01
          1   -1    0    0  501    0  0.00000000000E+00  0.00000000000E+00  0.34639870185E+04  0.34639870185E+04  0.00000000000E+00 0. -1.
         -2   -1    0    0    0  501 -0.00000000000E+00 -0.00000000000E+00 -0.64207356816E+03  0.64207356816E+03  0.00000000000E+00 0.  1.
        -24    2    1    2    0    0  0.17409266350E+03  0.16621555307E+03  0.31399192832E+04  0.31500384410E+04  0.75585773578E+02 0.  0.
        254    2    1    2    0    0 -0.17409266350E+03 -0.16621555307E+03 -0.31800583288E+03  0.95602214565E+03  0.86885831276E+03 0.  0.
         23    2    4    4    0    0 -0.35868920287E+02  0.21974960165E+03  0.18316804471E+03  0.30213926056E+03  0.90338991031E+02 0.  0.
         23    2    4    4    0    0 -0.13822374322E+03 -0.38596515472E+03 -0.50117387759E+03  0.65388288509E+03  0.91173833893E+02 0.  0.
          1    1    3    3  502    0  0.13397156136E+03  0.14207216751E+03  0.20982492380E+04  0.21073164796E+04  0.00000000000E+00 0. -1.
         -2    1    3    3    0  502  0.40121102141E+02  0.24143385569E+02  0.10416700451E+04  0.10427219614E+04  0.00000000000E+00 0.  1.
         11    1    5    5    0    0 -0.19018977759E+02  0.18885728465E+03  0.10618477966E+03  0.21749483422E+03  0.00000000000E+00 0.  1.
        -11    1    5    5    0    0 -0.16849942527E+02  0.30892317000E+02  0.76983265050E+02  0.84644426340E+02  0.00000000000E+00 0. -1.
          1    1    6    6  503    0 -0.73014560921E+02 -0.22029491414E+03 -0.35192711518E+03  0.42156099167E+03  0.00000000000E+00 0. -1.
         -1    1    6    6    0  503 -0.65209182294E+02 -0.16567024059E+03 -0.14924676241E+03  0.23232189342E+03  0.00000000000E+00 0.  1.
<mgrwt>
<rscale>  0 0.29827065E+04</rscale>
<asrwt>0</asrwt>
<pdfrwt beam="1">  1        1 0.53292107E+00 0.29827065E+04</pdfrwt>
<pdfrwt beam="2">  1       -2 0.98780551E-01 0.29827065E+04</pdfrwt>
<totfact> 0.17002099E-01</totfact>
</mgrwt>
</event>
<event>
12    4  0.4207946E-008  0.1466407E+04  0.7818608E-02  0.8907104E-01
          1   -1    0    0  501    0  0.00000000000E+00  0.00000000000E+00  0.89811319041E+03  0.89811319041E+03  0.00000000000E+00 0. -1.
         -2   -1    0    0    0  501 -0.00000000000E+00 -0.00000000000E+00 -0.59857437085E+03  0.59857437085E+03  0.00000000000E+00 0.  1.
        -24    2    1    2    0    0  0.29641265488E+03 -0.39685219451E+02  0.43391079512E+03  0.53311546790E+03  0.80611074812E+02 0.  0.
        254    2    1    2    0    0 -0.29641265488E+03  0.39685219451E+02 -0.13437197555E+03  0.96357209336E+03  0.90607945163E+03 0.  0.
         23    2    4    4    0    0  0.18818717382E+03 -0.78785530149E+02 -0.34791821561E+03  0.41313195983E+03  0.89495024054E+02 0.  0.
         23    2    4    4    0    0 -0.48459982870E+03  0.11847074960E+03  0.21354624005E+03  0.55044013352E+03  0.92249831784E+02 0.  0.
          3    1    3    3  502    0  0.27945462762E+03 -0.56285006875E+02  0.41056536690E+03  0.49982678139E+03  0.00000000000E+00 0. -1.
         -4    1    3    3    0  502  0.16958027258E+02  0.16599787424E+02  0.23345428213E+02  0.33288686509E+02  0.00000000000E+00 0.  1.
         11    1    5    5    0    0  0.19749262870E+03 -0.69910455731E+02 -0.33317413403E+03  0.39356805485E+03  0.00000000000E+00 0. -1.
        -11    1    5    5    0    0 -0.93054548817E+01 -0.88750744180E+01 -0.14744081575E+02  0.19563904977E+02  0.00000000000E+00 0.  1.
          4    1    6    6  503    0 -0.39180427008E+03  0.13191409374E+03  0.16884081981E+03  0.44656369827E+03  0.00000000000E+00 0. -1.
         -4    1    6    6    0  503 -0.92795558626E+02 -0.13443344139E+02  0.44705420243E+02  0.10387643526E+03  0.00000000000E+00 0.  1.
<mgrwt>
<rscale>  0 0.14664072E+04</rscale>
<asrwt>0</asrwt>
<pdfrwt beam="1">  1        1 0.13817126E+00 0.14664072E+04</pdfrwt>
<pdfrwt beam="2">  1       -2 0.92088364E-01 0.14664072E+04</pdfrwt>
<totfact> 0.15557515E+01</totfact>
</mgrwt>
</event>
<event>
12    4  0.4207946E-008  0.2694612E+04  0.7818608E-02  0.8336755E-01
          1   -1    0    0  501    0  0.00000000000E+00  0.00000000000E+00  0.11531135276E+04  0.11531135276E+04  0.00000000000E+00 0. -1.
         -2   -1    0    0    0  501 -0.00000000000E+00 -0.00000000000E+00 -0.15742012885E+04  0.15742012885E+04  0.00000000000E+00 0.  1.
        -24    2    1    2    0    0  0.21760897673E+03 -0.43070008660E+03  0.92439774374E+03  0.10456539520E+04  0.77619375028E+02 0.  0.
        254    2    1    2    0    0 -0.21760897673E+03  0.43070008660E+03 -0.13454855047E+04  0.16816608640E+04  0.88588700578E+03 0.  0.
         23    2    4    4    0    0 -0.49306608518E+03  0.14206036252E+03 -0.41829552258E+03  0.66818733739E+03  0.90597255387E+02 0.  0.
         23    2    4    4    0    0  0.27545710845E+03  0.28863972408E+03 -0.92718998207E+03  0.10134735266E+04  0.90872533962E+02 0.  0.
          1    1    3    3  502    0  0.17925631038E+03 -0.38508611068E+03  0.85092336733E+03  0.95104927028E+03  0.00000000000E+00 0. -1.
         -2    1    3    3    0  502  0.38352666349E+02 -0.45613975922E+02  0.73474376412E+02  0.94604681727E+02  0.00000000000E+00 0.  1.
         11    1    5    5    0    0 -0.21551001899E+03  0.15843321713E+02 -0.17855372726E+03  0.28031591579E+03  0.00000000000E+00 0.  1.
        -11    1    5    5    0    0 -0.27755606618E+03  0.12621704081E+03 -0.23974179533E+03  0.38787142160E+03  0.00000000000E+00 0. -1.
          3    1    6    6  503    0  0.24861236348E+03  0.24414044960E+03 -0.86426788136E+03  0.93186460237E+03  0.00000000000E+00 0. -1.
         -3    1    6    6    0  503  0.26844744963E+02  0.44499274479E+02 -0.62922100713E+02  0.81608924263E+02  0.00000000000E+00 0.  1.
<mgrwt>
<rscale>  0 0.26946115E+04</rscale>
<asrwt>0</asrwt>
<pdfrwt beam="1">  1        1 0.17740208E+00 0.26946115E+04</pdfrwt>
<pdfrwt beam="2">  1       -2 0.24218481E+00 0.26946115E+04</pdfrwt>
<totfact> 0.63684060E-01</totfact>
</mgrwt>
</event>
<event>
12    4  0.4207946E-008  0.2683576E+04  0.7818608E-02  0.8340354E-01
         -2   -1    0    0    0  501 -0.00000000000E+00  0.00000000000E+00  0.13692846629E+04  0.13692846629E+04  0.00000000000E+00 0.  1.
          1   -1    0    0  501    0  0.00000000000E+00 -0.00000000000E+00 -0.13148437087E+04  0.13148437087E+04  0.00000000000E+00 0. -1.
        -24    2    1    2    0    0  0.11674005279E+04  0.34307544889E+02 -0.20104178305E+03  0.11877730558E+04  0.79912660872E+02 0.  0.
        254    2    1    2    0    0 -0.11674005279E+04 -0.34307544889E+02  0.25548273726E+03  0.14963553157E+04  0.89989266119E+03 0.  0.
         23    2    4    4    0    0 -0.51493485322E+03 -0.83011239399E+01  0.56317399514E+03  0.76873754067E+03  0.92550774779E+02 0.  0.
         23    2    4    4    0    0 -0.65246567469E+03 -0.26006420949E+02 -0.30769125788E+03  0.72761777505E+03  0.91465435124E+02 0.  0.
          1    1    3    3  502    0  0.11486419282E+04  0.34013497463E+02 -0.20789534988E+03  0.11677995006E+04  0.00000000000E+00 0. -1.
         -2    1    3    3    0  502  0.18758599719E+02  0.29404742541E+00  0.68535668371E+01  0.19973555159E+02  0.00000000000E+00 0.  1.
         11    1    5    5    0    0 -0.25733119918E+03 -0.31626558861E+02  0.33661794777E+03  0.42488966574E+03  0.00000000000E+00 0. -1.
        -11    1    5    5    0    0 -0.25760365405E+03  0.23325434921E+02  0.22655604738E+03  0.34384787493E+03  0.00000000000E+00 0.  1.
          2    1    6    6  503    0 -0.16678857657E+03 -0.20985284308E+02 -0.39078640867E+02  0.17258607014E+03  0.00000000000E+00 0. -1.
         -2    1    6    6    0  503 -0.48567709811E+03 -0.50211366407E+01 -0.26861261701E+03  0.55503170492E+03  0.00000000000E+00 0.  1.
<mgrwt>
<rscale>  0 0.26835762E+04</rscale>
<asrwt>0</asrwt>
<pdfrwt beam="1">  1        1 0.20228365E+00 0.26835762E+04</pdfrwt>
<pdfrwt beam="2">  1       -2 0.21065918E+00 0.26835762E+04</pdfrwt>
<totfact> 0.76829061E-01</totfact>
</mgrwt>
</event>
<event>
12    4  0.4207946E-008  0.1268696E+04  0.7818608E-02  0.9054764E-01
         -2   -1    0    0    0  501 -0.00000000000E+00  0.00000000000E+00  0.37577969872E+03  0.37577969872E+03  0.00000000000E+00 0.  1.
          1   -1    0    0  501    0  0.00000000000E+00 -0.00000000000E+00 -0.10708336234E+04  0.10708336234E+04  0.00000000000E+00 0. -1.
        -24    2    1    2    0    0 -0.16306378349E+03  0.33749795676E+03 -0.21566504454E+02  0.38363703823E+03  0.78851725943E+02 0.  0.
        254    2    1    2    0    0  0.16306378349E+03 -0.33749795676E+03 -0.67348742019E+03  0.10629762838E+04  0.73200997710E+03 0.  0.
         23    2    4    4    0    0  0.21439927473E+03  0.12844454601E+03 -0.40750778617E+02  0.27025425352E+03  0.94401722347E+02 0.  0.
         23    2    4    4    0    0 -0.51335491241E+02 -0.46594250277E+03 -0.63273664157E+03  0.79272203033E+03  0.91185586801E+02 0.  0.
          3    1    3    3  502    0 -0.10749398877E+02  0.11215354439E+02 -0.17676361373E+02  0.23532690088E+02  0.00000000000E+00 0. -1.
         -4    1    3    3    0  502 -0.15231438461E+03  0.32628260232E+03 -0.38901430812E+01  0.36010434814E+03  0.00000000000E+00 0.  1.
         11    1    5    5    0    0  0.15279291019E+03  0.42005011435E+02 -0.60417049872E+01  0.15857678452E+03  0.00000000000E+00 0. -1.
        -11    1    5    5    0    0  0.61606364541E+02  0.86439534574E+02 -0.34709073629E+02  0.11167746900E+03  0.00000000000E+00 0.  1.
          1    1    6    6  503    0 -0.18332923549E+02 -0.41362777478E+03 -0.57117097425E+03  0.70545043339E+03  0.00000000000E+00 0. -1.
         -1    1    6    6    0  503 -0.33002567693E+02 -0.52314727991E+02 -0.61565667322E+02  0.87271596936E+02  0.00000000000E+00 0.  1.
<mgrwt>
<rscale>  0 0.12686962E+04</rscale>
<asrwt>0</asrwt>
<pdfrwt beam="1">  1        1 0.16474363E+00 0.12686962E+04</pdfrwt>
<pdfrwt beam="2">  1       -2 0.57812262E-01 0.12686962E+04</pdfrwt>
<totfact> 0.32266568E+01</totfact>
</mgrwt>
</event>
<event>
12    4  0.4207946E-008  0.2118770E+04  0.7818608E-02  0.8553020E-01
          1   -1    0    0  501    0  0.00000000000E+00  0.00000000000E+00  0.81661763624E+03  0.81661763624E+03  0.00000000000E+00 0. -1.
         -2   -1    0    0    0  501 -0.00000000000E+00 -0.00000000000E+00 -0.13743226289E+04  0.13743226289E+04  0.00000000000E+00 0.  1.
        -24    2    1    2    0    0 -0.58625887502E+03  0.60246246968E+03 -0.46377196958E+03  0.96350381481E+03  0.81207545706E+02 0.  0.
        254    2    1    2    0    0  0.58625887502E+03 -0.60246246968E+03 -0.93933023101E+02  0.12274364503E+04  0.88944720523E+03 0.  0.
         23    2    4    4    0    0  0.31304687320E+03 -0.32339090846E+03  0.38715762487E+03  0.60079236289E+03  0.92089154175E+02 0.  0.
         23    2    4    4    0    0  0.27321200182E+03 -0.27907156122E+03 -0.48109064797E+03  0.62664408745E+03  0.93321308127E+02 0.  0.
          3    1    3    3  502    0 -0.96879325112E+02  0.67646631349E+02 -0.45898358333E+02  0.12676091537E+03  0.00000000000E+00 0. -1.
         -4    1    3    3    0  502 -0.48937954991E+03  0.53481583833E+03 -0.41787361125E+03  0.83674289945E+03  0.00000000000E+00 0.  1.
         11    1    5    5    0    0  0.18953377905E+03 -0.19924960360E+03  0.29350194441E+03  0.40220249788E+03  0.00000000000E+00 0.  1.
        -11    1    5    5    0    0  0.12351309415E+03 -0.12414130486E+03  0.93655680465E+02  0.19858986501E+03  0.00000000000E+00 0. -1.
          4    1    6    6  503    0  0.58827302533E+02 -0.64904406825E+02 -0.17621464364E+03  0.19678626523E+03  0.00000000000E+00 0. -1.
         -4    1    6    6    0  503  0.21438469929E+03 -0.21416715439E+03 -0.30487600433E+03  0.42985782222E+03  0.00000000000E+00 0.  1.
<mgrwt>
<rscale>  0 0.21187695E+04</rscale>
<asrwt>0</asrwt>
<pdfrwt beam="1">  1        1 0.12563348E+00 0.21187695E+04</pdfrwt>
<pdfrwt beam="2">  1       -2 0.21143425E+00 0.21187695E+04</pdfrwt>
<totfact> 0.19283592E+00</totfact>
</mgrwt>
</event>
<event>
12    4  0.4207946E-008  0.2379718E+04  0.7818608E-02  0.8447136E-01
          1   -1    0    0  501    0  0.00000000000E+00  0.00000000000E+00  0.14256723692E+04  0.14256723692E+04  0.00000000000E+00 0. -1.
         -2   -1    0    0    0  501 -0.00000000000E+00 -0.00000000000E+00 -0.99305052847E+03  0.99305052847E+03  0.00000000000E+00 0.  1.
        -24    2    1    2    0    0 -0.25423139097E+03 -0.94301168707E+03 -0.10961598601E+03  0.98617477473E+03  0.81365716392E+02 0.  0.
        254    2    1    2    0    0  0.25423139097E+03  0.94301168707E+03  0.54223782677E+03  0.14325481230E+04  0.89680969092E+03 0.  0.
         23    2    4    4    0    0 -0.15341751240E+02  0.32319528797E+03 -0.22634698713E+03  0.40516164738E+03  0.90732785866E+02 0.  0.
         23    2    4    4    0    0  0.26957314221E+03  0.61981639911E+03  0.76858481390E+03  0.10273864756E+04  0.89209340676E+02 0.  0.
          3    1    3    3  502    0 -0.52127427308E+01 -0.50512234049E+02 -0.22366201379E+02  0.55487885521E+02  0.00000000000E+00 0. -1.
         -4    1    3    3    0  502 -0.24901864824E+03 -0.89249945303E+03 -0.87249784631E+02  0.93068688921E+03  0.00000000000E+00 0.  1.
         11    1    5    5    0    0 -0.20918281097E+02  0.68689588239E+02 -0.93879862405E+02  0.11819163499E+03  0.00000000000E+00 0.  1.
        -11    1    5    5    0    0  0.55765298564E+01  0.25450569973E+03 -0.13246712473E+03  0.28697001239E+03  0.00000000000E+00 0. -1.
          3    1    6    6  503    0  0.24067989369E+03  0.53206264832E+03  0.70392671570E+03  0.91462030047E+03  0.00000000000E+00 0. -1.
         -3    1    6    6    0  503  0.28893248519E+02  0.87753750792E+02  0.64658098204E+02  0.11276617512E+03  0.00000000000E+00 0.  1.
<mgrwt>
<rscale>  0 0.23797182E+04</rscale>
<asrwt>0</asrwt>
<pdfrwt beam="1">  1        1 0.21933421E+00 0.23797182E+04</pdfrwt>
<pdfrwt beam="2">  1       -2 0.15277700E+00 0.23797182E+04</pdfrwt>
<totfact> 0.16574551E+00</totfact>
</mgrwt>
</event>
<event>
12    4  0.4207946E-008  0.1383216E+04  0.7818608E-02  0.8966058E-01
         -2   -1    0    0    0  501 -0.00000000000E+00  0.00000000000E+00  0.18354415047E+03  0.18354415047E+03  0.00000000000E+00 0.  1.
          1   -1    0    0  501    0  0.00000000000E+00 -0.00000000000E+00 -0.26060315961E+04  0.26060315961E+04  0.00000000000E+00 0. -1.
        -24    2    1    2    0    0 -0.16338144114E+03  0.93647720949E+02 -0.68376656349E+01  0.20512881184E+03  0.81041253858E+02 0.  0.
        254    2    1    2    0    0  0.16338144114E+03 -0.93647720949E+02 -0.24156497800E+04  0.25844469347E+04  0.89918780457E+03 0.  0.
         23    2    4    4    0    0  0.12281866564E+03 -0.26921264367E+03 -0.23527046948E+04  0.23730538299E+04  0.92764361524E+02 0.  0.
         23    2    4    4    0    0  0.40562775504E+02  0.17556492272E+03 -0.62945085199E+02  0.21139310478E+03  0.90865725955E+02 0.  0.
          3    1    3    3  502    0 -0.99466489953E+01 -0.10956144837E+02  0.11196056587E+02  0.18555986070E+02  0.00000000000E+00 0. -1.
         -4    1    3    3    0  502 -0.15343479215E+03  0.10460386579E+03 -0.18033722222E+02  0.18657282577E+03  0.00000000000E+00 0.  1.
         11    1    5    5    0    0  0.16198253115E+02 -0.33936042456E+02 -0.12817360652E+03  0.13357586530E+03  0.00000000000E+00 0. -1.
        -11    1    5    5    0    0  0.10662041252E+03 -0.23527660121E+03 -0.22245310882E+04  0.22394779646E+04  0.00000000000E+00 0.  1.
          1    1    6    6  503    0 -0.21589100879E+02  0.88446697588E+01 -0.12418141351E+02  0.26429674507E+02  0.00000000000E+00 0. -1.
         -1    1    6    6    0  503  0.62151876383E+02  0.16672025296E+03 -0.50526943848E+02  0.18496343028E+03  0.00000000000E+00 0.  1.
<mgrwt>
<rscale>  0 0.13832163E+04</rscale>
<asrwt>0</asrwt>
<pdfrwt beam="1">  1        1 0.40092794E+00 0.13832163E+04</pdfrwt>
<pdfrwt beam="2">  1       -2 0.28237561E-01 0.13832163E+04</pdfrwt>
<totfact> 0.11292550E+01</totfact>
</mgrwt>
</event>
<event>
12    4  0.4207946E-008  0.1699575E+04  0.7818608E-02  0.8761607E-01
          1   -1    0    0  501    0  0.00000000000E+00  0.00000000000E+00  0.28538005386E+04  0.28538005386E+04  0.00000000000E+00 0. -1.
         -2   -1    0    0    0  501 -0.00000000000E+00 -0.00000000000E+00 -0.25304455755E+03  0.25304455755E+03  0.00000000000E+00 0.  1.
        -24    2    1    2    0    0  0.28018526848E+03 -0.49457779867E+03  0.51677224886E+03  0.77248938726E+03  0.81088301407E+02 0.  0.
        254    2    1    2    0    0 -0.28018526848E+03  0.49457779867E+03  0.20839837322E+04  0.23343557089E+04  0.88493920466E+03 0.  0.
         23    2    4    4    0    0  0.29875246766E+03  0.62487396646E+02  0.74188324344E+03  0.80739052498E+03  0.91274318723E+02 0.  0.
         23    2    4    4    0    0 -0.57893773615E+03  0.43209040203E+03  0.13421004888E+04  0.15269651839E+04  0.92292649159E+02 0.  0.
          1    1    3    3  502    0  0.27053482012E+02 -0.93879549741E+02  0.62471854832E+02  0.11596548364E+03  0.00000000000E+00 0. -1.
         -2    1    3    3    0  502  0.25313178647E+03 -0.40069824893E+03  0.45430039403E+03  0.65652390362E+03  0.00000000000E+00 0.  1.
         11    1    5    5    0    0 -0.24854961019E+01 -0.82228459299E+01  0.29116644454E+02  0.30357402233E+02  0.00000000000E+00 0.  1.
        -11    1    5    5    0    0  0.30123796377E+03  0.70710242576E+02  0.71276659898E+03  0.77703312275E+03  0.00000000000E+00 0. -1.
          1    1    6    6  503    0 -0.29462699209E+03  0.20127155327E+03  0.75399900066E+03  0.83416412990E+03  0.00000000000E+00 0. -1.
         -1    1    6    6    0  503 -0.28431074405E+03  0.23081884875E+03  0.58810148810E+03  0.69280105401E+03  0.00000000000E+00 0.  1.
<mgrwt>
<rscale>  0 0.16995749E+04</rscale>
<asrwt>0</asrwt>
<pdfrwt beam="1">  1        1 0.43904621E+00 0.16995749E+04</pdfrwt>
<pdfrwt beam="2">  1       -2 0.38929934E-01 0.16995749E+04</pdfrwt>
<totfact> 0.39879065E+00</totfact>
</mgrwt>
</event>
<event>
12    4  0.4207946E-008  0.1233125E+04  0.7818608E-02  0.9084347E-01
          1   -1    0    0  501    0  0.00000000000E+00  0.00000000000E+00  0.14117395170E+04  0.14117395170E+04  0.00000000000E+00 0. -1.
         -2   -1    0    0    0  501 -0.00000000000E+00 -0.00000000000E+00 -0.26927706479E+03  0.26927706479E+03  0.00000000000E+00 0.  1.
        -24    2    1    2    0    0 -0.18930471377E+03 -0.12428518058E+03  0.52399654160E+02  0.24619240651E+03  0.81128888192E+02 0.  0.
        254    2    1    2    0    0  0.18930471377E+03  0.12428518058E+03  0.10900627981E+04  0.14348241753E+04  0.90509691718E+03 0.  0.
         23    2    4    4    0    0  0.29136047550E+02  0.46861386886E+01  0.11888024649E+04  0.11927955649E+04  0.92946704891E+02 0.  0.
         23    2    4    4    0    0  0.16016866622E+03  0.11959904189E+03 -0.98739666795E+02  0.24202861042E+03  0.94182769127E+02 0.  0.
          3    1    3    3  502    0 -0.77214660167E+02 -0.28452184496E+02  0.54507005190E+02  0.98704833530E+02  0.00000000000E+00 0. -1.
         -4    1    3    3    0  502 -0.11209005361E+03 -0.95832996081E+02 -0.21073510302E+01  0.14748757298E+03  0.00000000000E+00 0.  1.
         11    1    5    5    0    0  0.32830464105E+02 -0.39879261712E+02  0.72712187346E+03  0.72895432899E+03  0.00000000000E+00 0. -1.
        -11    1    5    5    0    0 -0.36944165553E+01  0.44565400401E+02  0.46168059139E+03  0.46384123587E+03  0.00000000000E+00 0.  1.
          4    1    6    6  503    0  0.98478681475E+02  0.15679349736E+02 -0.51913443891E+02  0.11242285519E+03  0.00000000000E+00 0. -1.
         -4    1    6    6    0  503  0.61689984749E+02  0.10391969215E+03 -0.46826222904E+02  0.12960575522E+03  0.00000000000E+00 0.  1.
<mgrwt>
<rscale>  0 0.12331246E+04</rscale>
<asrwt>0</asrwt>
<pdfrwt beam="1">  1        1 0.21719069E+00 0.12331246E+04</pdfrwt>
<pdfrwt beam="2">  1       -2 0.41427242E-01 0.12331246E+04</pdfrwt>
<totfact> 0.36041952E+01</totfact>
</mgrwt>
</event>
<event>
12    4  0.4207946E-008  0.2624962E+04  0.7818608E-02  0.8359771E-01
         -2   -1    0    0    0  501 -0.00000000000E+00  0.00000000000E+00  0.10961819207E+04  0.10961819207E+04  0.00000000000E+00 0.  1.
          1   -1    0    0  501    0  0.00000000000E+00 -0.00000000000E+00 -0.15714602273E+04  0.15714602273E+04  0.00000000000E+00 0. -1.
        -24    2    1    2    0    0 -0.45657141573E+03  0.25559449301E+03  0.84048217300E+03  0.99314414516E+03  0.78351818177E+02 0.  0.
        254    2    1    2    0    0  0.45657141573E+03 -0.25559449301E+03 -0.13157604796E+04  0.16744980029E+04  0.89382991645E+03 0.  0.
         23    2    4    4    0    0  0.48778831792E+03  0.21097150631E+03 -0.85817512457E+03  0.10138239465E+04  0.94488255895E+02 0.  0.
         23    2    4    4    0    0 -0.31216902195E+02 -0.46656599933E+03 -0.45758535500E+03  0.66067405638E+03  0.91910418059E+02 0.  0.
          3    1    3    3  502    0 -0.10398576887E+03  0.71474946592E+02  0.14739729245E+03  0.19403007483E+03  0.00000000000E+00 0. -1.
         -4    1    3    3    0  502 -0.35258564686E+03  0.18411954642E+03  0.69308488056E+03  0.79911407033E+03  0.00000000000E+00 0.  1.
         11    1    5    5    0    0  0.92512902835E+01  0.46414157229E+01 -0.65046133018E+00  0.10370738246E+02  0.00000000000E+00 0. -1.
        -11    1    5    5    0    0  0.47853702764E+03  0.20633009059E+03 -0.85752466324E+03  0.10034532083E+04  0.00000000000E+00 0.  1.
          3    1    6    6  503    0  0.33980634619E+01 -0.16261043012E+03 -0.21861069710E+03  0.27247813803E+03  0.00000000000E+00 0. -1.
         -3    1    6    6    0  503 -0.34614965657E+02 -0.30395556921E+03 -0.23897465790E+03  0.38819591834E+03  0.00000000000E+00 0.  1.
<mgrwt>
<rscale>  0 0.26249619E+04</rscale>
<asrwt>0</asrwt>
<pdfrwt beam="1">  1        1 0.24176311E+00 0.26249619E+04</pdfrwt>
<pdfrwt beam="2">  1       -2 0.16864337E+00 0.26249619E+04</pdfrwt>
<totfact> 0.98215031E-01</totfact>
</mgrwt>
</event>
<event>
12    4  0.4207946E-008  0.1496245E+04  0.7818608E-02  0.8886954E-01
         -2   -1    0    0    0  501 -0.00000000000E+00  0.00000000000E+00  0.10871945585E+04  0.10871945585E+04  0.00000000000E+00 0.  1.
          1   -1    0    0  501    0  0.00000000000E+00 -0.00000000000E+00 -0.51479936727E+03  0.51479936727E+03  0.00000000000E+00 0. -1.
        -24    2    1    2    0    0  0.18970186040E+03 -0.14977135466E+02  0.62424236711E+03  0.65738810278E+03  0.79180012363E+02 0.  0.
        254    2    1    2    0    0 -0.18970186040E+03  0.14977135466E+02 -0.51847175907E+02  0.94460582295E+03  0.92378618775E+03 0.  0.
         23    2    4    4    0    0 -0.17706877800E+03 -0.43525968144E+03  0.26210232548E+02  0.47904510027E+03  0.89402960683E+02 0.  0.
         23    2    4    4    0    0 -0.12633082406E+02  0.45023681690E+03 -0.78057408455E+02  0.46556072268E+03  0.88210211570E+02 0.  0.
          3    1    3    3  502    0  0.66668179450E+02 -0.17298664258E+02  0.12013302841E+03  0.13847683724E+03  0.00000000000E+00 0. -1.
         -4    1    3    3    0  502  0.12303368095E+03  0.23215287922E+01  0.50410933870E+03  0.51891126555E+03  0.00000000000E+00 0.  1.
         11    1    5    5    0    0 -0.10492779597E+03 -0.35575449479E+03  0.23628865214E+02  0.37165767341E+03  0.00000000000E+00 0. -1.
        -11    1    5    5    0    0 -0.72140982025E+02 -0.79505186642E+02  0.25813673340E+01  0.10738742686E+03  0.00000000000E+00 0.  1.
          3    1    6    6  503    0 -0.24655493305E+02  0.26211791941E+03 -0.47861283762E+01  0.26331844609E+03  0.00000000000E+00 0. -1.
         -3    1    6    6    0  503  0.12022410899E+02  0.18811889749E+03 -0.73271280079E+02  0.20224227659E+03  0.00000000000E+00 0.  1.
<mgrwt>
<rscale>  0 0.14962447E+04</rscale>
<asrwt>0</asrwt>
<pdfrwt beam="1">  1        1 0.79199903E-01 0.14962447E+04</pdfrwt>
<pdfrwt beam="2">  1       -2 0.16726070E+00 0.14962447E+04</pdfrwt>
<totfact> 0.80249638E+00</totfact>
</mgrwt>
</event>
<event>
12    4  0.4207946E-008  0.1656395E+04  0.7818608E-02  0.8786632E-01
         -2   -1    0    0    0  501 -0.00000000000E+00  0.00000000000E+00  0.11980679177E+04  0.11980679177E+04  0.00000000000E+00 0.  1.
          1   -1    0    0  501    0  0.00000000000E+00 -0.00000000000E+00 -0.57251423993E+03  0.57251423993E+03  0.00000000000E+00 0. -1.
        -24    2    1    2    0    0  0.57236027736E+03  0.86558944590E+02  0.28235474281E+03  0.64903219595E+03  0.80186361662E+02 0.  0.
        254    2    1    2    0    0 -0.57236027736E+03 -0.86558944590E+02  0.34319893500E+03  0.11215499617E+04  0.89721796106E+03 0.  0.
         23    2    4    4    0    0 -0.11999709773E+03 -0.45343685973E+03  0.14621223738E+03  0.50005781546E+03  0.93142424402E+02 0.  0.
         23    2    4    4    0    0 -0.45236317964E+03  0.36687791514E+03  0.19698669762E+03  0.62149214625E+03  0.90646996135E+02 0.  0.
          1    1    3    3  502    0  0.12205822851E+02  0.96656035950E+01 -0.27494173773E+01  0.15810290960E+02  0.00000000000E+00 0. -1.
         -2    1    3    3    0  502  0.56015445451E+03  0.76893340995E+02  0.28510416018E+03  0.63322190499E+03  0.00000000000E+00 0.  1.
         11    1    5    5    0    0 -0.21308349792E+02 -0.30817593273E+02  0.36739835989E+02  0.52474616478E+02  0.00000000000E+00 0. -1.
        -11    1    5    5    0    0 -0.98688747936E+02 -0.42261926645E+03  0.10947240139E+03  0.44758319898E+03  0.00000000000E+00 0.  1.
          3    1    6    6  503    0 -0.39930362597E+01  0.12316683046E+02 -0.68097659860E+01  0.14629351750E+02  0.00000000000E+00 0. -1.
         -3    1    6    6    0  503 -0.44837014338E+03  0.35456123209E+03  0.20379646361E+03  0.60686279450E+03  0.00000000000E+00 0.  1.
<mgrwt>
<rscale>  0 0.16563948E+04</rscale>
<asrwt>0</asrwt>
<pdfrwt beam="1">  1        1 0.88079114E-01 0.16563948E+04</pdfrwt>
<pdfrwt beam="2">  1       -2 0.18431814E+00 0.16563948E+04</pdfrwt>
<totfact> 0.51815668E+00</totfact>
</mgrwt>
</event>
<event>
12    4  0.4207946E-008  0.2399550E+04  0.7818608E-02  0.8439672E-01
          1   -1    0    0  501    0  0.00000000000E+00  0.00000000000E+00  0.16299416183E+04  0.16299416183E+04  0.00000000000E+00 0. -1.
         -2   -1    0    0    0  501 -0.00000000000E+00 -0.00000000000E+00 -0.88313617373E+03  0.88313617373E+03  0.00000000000E+00 0.  1.
        -24    2    1    2    0    0  0.99749587442E+03 -0.20643093601E+03  0.16829231107E+03  0.10354718252E+04  0.79169741442E+02 0.  0.
        254    2    1    2    0    0 -0.99749587442E+03  0.20643093601E+03  0.57851313347E+03  0.14776059668E+04  0.90057214966E+03 0.  0.
         23    2    4    4    0    0 -0.85674332086E+03  0.51510858567E+03  0.37882592227E+03  0.10733876669E+04  0.96467772359E+02 0.  0.
         23    2    4    4    0    0 -0.14075255357E+03 -0.30867764966E+03  0.19968721120E+03  0.40421829997E+03  0.91783870975E+02 0.  0.
          1    1    3    3  502    0  0.88417338366E+02 -0.25868506325E+02  0.37449849052E+02  0.99444942241E+02  0.00000000000E+00 0. -1.
         -2    1    3    3    0  502  0.90907853606E+03 -0.18056242968E+03  0.13084246202E+03  0.93602688295E+03  0.00000000000E+00 0.  1.
         11    1    5    5    0    0 -0.80860766045E+03  0.49894283457E+03  0.37805958191E+03  0.10226041992E+04  0.00000000000E+00 0. -1.
        -11    1    5    5    0    0 -0.48135660409E+02  0.16165751102E+02  0.76634036399E+00  0.50783467677E+02  0.00000000000E+00 0.  1.
          3    1    6    6  503    0 -0.15077537943E+03 -0.30519076826E+03  0.18994439279E+03  0.38981212452E+03  0.00000000000E+00 0. -1.
         -3    1    6    6    0  503  0.10022825867E+02 -0.34868814090E+01  0.97428184083E+01  0.14406175442E+02  0.00000000000E+00 0.  1.
<mgrwt>
<rscale>  0 0.23995503E+04</rscale>
<asrwt>0</asrwt>
<pdfrwt beam="1">  1        1 0.25076025E+00 0.23995503E+04</pdfrwt>
<pdfrwt beam="2">  1       -2 0.13586710E+00 0.23995503E+04</pdfrwt>
<totfact> 0.16256909E+00</totfact>
</mgrwt>
</event>
<event>
12    4  0.4207946E-008  0.1798640E+04  0.7818608E-02  0.8707023E-01
         -2   -1    0    0    0  501 -0.00000000000E+00  0.00000000000E+00  0.55009356570E+03  0.55009356570E+03  0.00000000000E+00 0.  1.
          1   -1    0    0  501    0  0.00000000000E+00 -0.00000000000E+00 -0.14702526854E+04  0.14702526854E+04  0.00000000000E+00 0. -1.
        -24    2    1    2    0    0  0.46408955678E+03  0.27335407119E+03  0.12731105688E+03  0.55918491013E+03  0.79862967418E+02 0.  0.
        254    2    1    2    0    0 -0.46408955678E+03 -0.27335407119E+03 -0.10474701765E+04  0.14611613409E+04  0.86469481813E+03 0.  0.
         23    2    4    4    0    0  0.21916176021E+02 -0.26900434841E+02  0.12782580284E+03  0.16253119160E+03  0.94196603989E+02 0.  0.
         23    2    4    4    0    0 -0.48600573281E+03 -0.24645363635E+03 -0.11752959794E+04  0.12986301493E+04  0.90435935261E+02 0.  0.
          1    1    3    3  502    0  0.73648985063E+02  0.33995075066E+02  0.48422484931E+02  0.94469969707E+02  0.00000000000E+00 0. -1.
         -2    1    3    3    0  502  0.39044057172E+03  0.23935899613E+03  0.78888571949E+02  0.46471494043E+03  0.00000000000E+00 0.  1.
         11    1    5    5    0    0 -0.23491750074E+01 -0.42740338242E+02  0.12647474168E+03  0.13352196605E+03  0.00000000000E+00 0. -1.
        -11    1    5    5    0    0  0.24265351029E+02  0.15839903401E+02  0.13510611654E+01  0.29009225543E+02  0.00000000000E+00 0.  1.
          1    1    6    6  503    0 -0.29603616031E+03 -0.15780109061E+03 -0.61750188304E+03  0.70274260435E+03  0.00000000000E+00 0. -1.
         -1    1    6    6    0  503 -0.18996957249E+03 -0.88652545747E+02 -0.55779409634E+03  0.59588754498E+03  0.00000000000E+00 0.  1.
<mgrwt>
<rscale>  0 0.17986401E+04</rscale>
<asrwt>0</asrwt>
<pdfrwt beam="1">  1        1 0.22619272E+00 0.17986401E+04</pdfrwt>
<pdfrwt beam="2">  1       -2 0.84629779E-01 0.17986401E+04</pdfrwt>
<totfact> 0.69143182E+00</totfact>
</mgrwt>
</event>
<event>
12    4  0.4207946E-008  0.1451971E+04  0.7818608E-02  0.8917035E-01
         -2   -1    0    0    0  501 -0.00000000000E+00  0.00000000000E+00  0.62061450710E+03  0.62061450710E+03  0.00000000000E+00 0.  1.
          1   -1    0    0  501    0  0.00000000000E+00 -0.00000000000E+00 -0.84924700427E+03  0.84924700427E+03  0.00000000000E+00 0. -1.
        -24    2    1    2    0    0 -0.36348253152E+03 -0.87208407377E+02 -0.30738187348E+03  0.49038845206E+03  0.79198236956E+02 0.  0.
        254    2    1    2    0    0  0.36348253152E+03  0.87208407377E+02  0.78749376312E+02  0.97947305930E+03  0.90190972530E+03 0.  0.
         23    2    4    4    0    0  0.44223001854E+03  0.28166679092E+03  0.34056439245E+03  0.63183700753E+03  0.91270632076E+02 0.  0.
         23    2    4    4    0    0 -0.78747487019E+02 -0.19445838354E+03 -0.26181501614E+03  0.34763605177E+03  0.91041156491E+02 0.  0.
          1    1    3    3  502    0 -0.35040424677E+03 -0.92250165978E+02 -0.30909223700E+03  0.47626803404E+03  0.00000000000E+00 0. -1.
         -2    1    3    3    0  502 -0.13078284747E+02  0.50417586016E+01  0.17103635181E+01  0.14120418021E+02  0.00000000000E+00 0.  1.
         11    1    5    5    0    0  0.44030116740E+03  0.26188351593E+03  0.32670955862E+03  0.60760779260E+03  0.00000000000E+00 0. -1.
        -11    1    5    5    0    0  0.19288511352E+01  0.19783274982E+02  0.13854833832E+02  0.24229214932E+02  0.00000000000E+00 0.  1.
          4    1    6    6  503    0 -0.75820851615E+02 -0.99572356900E+02 -0.10071113370E+03  0.16064304607E+03  0.00000000000E+00 0.  1.
         -4    1    6    6    0  503 -0.29266354034E+01 -0.94886026640E+02 -0.16110388244E+03  0.18699300570E+03  0.00000000000E+00 0. -1.
<mgrwt>
<rscale>  0 0.14519711E+04</rscale>
<asrwt>0</asrwt>
<pdfrwt beam="1">  1        1 0.13065339E+00 0.14519711E+04</pdfrwt>
<pdfrwt beam="2">  1       -2 0.95479155E-01 0.14519711E+04</pdfrwt>
<totfact> 0.15720512E+01</totfact>
</mgrwt>
</event>
<event>
12    4  0.4207946E-008  0.1423180E+04  0.7818608E-02  0.8937209E-01
         -2   -1    0    0    0  501 -0.00000000000E+00  0.00000000000E+00  0.25326657507E+03  0.25326657507E+03  0.00000000000E+00 0.  1.
          1   -1    0    0  501    0  0.00000000000E+00 -0.00000000000E+00 -0.19993167865E+04  0.19993167865E+04  0.00000000000E+00 0. -1.
        -24    2    1    2    0    0 -0.34069927306E+03  0.27526685592E+02 -0.91567187257E+03  0.98059677036E+03  0.79254872016E+02 0.  0.
        254    2    1    2    0    0  0.34069927306E+03 -0.27526685592E+02 -0.83037833881E+03  0.12719865912E+04  0.90088178438E+03 0.  0.
         23    2    4    4    0    0  0.57207340898E+03  0.55925449928E+02 -0.82496580169E+03  0.10093564433E+04  0.88522394946E+02 0.  0.
         23    2    4    4    0    0 -0.23137413593E+03 -0.83452135520E+02 -0.54125371202E+01  0.26263014788E+03  0.91907830562E+02 0.  0.
          1    1    3    3  502    0 -0.27750163474E+03  0.10349737165E+02 -0.80997042698E+03  0.85625134565E+03  0.00000000000E+00 0. -1.
         -2    1    3    3    0  502 -0.63197638321E+02  0.17176948426E+02 -0.10570144559E+03  0.12434542471E+03  0.00000000000E+00 0.  1.
         11    1    5    5    0    0  0.55874932796E+03  0.59010268395E+02 -0.82147617475E+03  0.99524174397E+03  0.00000000000E+00 0.  1.
        -11    1    5    5    0    0  0.13324081028E+02 -0.30848184667E+01 -0.34896269422E+01  0.14114699303E+02  0.00000000000E+00 0. -1.
          3    1    6    6  503    0 -0.18783845938E+02 -0.41783352263E+02  0.21615326136E+01  0.45862333322E+02  0.00000000000E+00 0. -1.
         -3    1    6    6    0  503 -0.21259028999E+03 -0.41668783257E+02 -0.75740697338E+01  0.21676781456E+03  0.00000000000E+00 0.  1.
<mgrwt>
<rscale>  0 0.14231797E+04</rscale>
<asrwt>0</asrwt>
<pdfrwt beam="1">  1        1 0.30758719E+00 0.14231797E+04</pdfrwt>
<pdfrwt beam="2">  1       -2 0.38964089E-01 0.14231797E+04</pdfrwt>
<totfact> 0.15882267E+01</totfact>
</mgrwt>
</event>
<event>
12    4  0.4207946E-008  0.1115941E+04  0.7818608E-02  0.9189792E-01
         -2   -1    0    0    0  501 -0.00000000000E+00  0.00000000000E+00  0.75835864101E+03  0.75835864101E+03  0.00000000000E+00 0.  1.
          1   -1    0    0  501    0  0.00000000000E+00 -0.00000000000E+00 -0.41053281800E+03  0.41053281800E+03  0.00000000000E+00 0. -1.
        -24    2    1    2    0    0  0.13940558813E+03 -0.97547887169E+02  0.11545217084E+03  0.22084447908E+03  0.80582702208E+02 0.  0.
        254    2    1    2    0    0 -0.13940558813E+03  0.97547887169E+02  0.23237365217E+03  0.94804697993E+03  0.90324196849E+03 0.  0.
         23    2    4    4    0    0 -0.46228301352E+03 -0.77889945238E+02  0.29658402654E+03  0.56209448222E+03  0.90640465481E+02 0.  0.
         23    2    4    4    0    0  0.32287742539E+03  0.17543783241E+03 -0.64210374365E+02  0.38595249772E+03  0.99035819036E+02 0.  0.
          1    1    3    3  502    0  0.13683459980E+02 -0.89402853954E+01  0.51916778599E+02  0.54429015057E+02  0.00000000000E+00 0. -1.
         -2    1    3    3    0  502  0.12572212815E+03 -0.88607601774E+02  0.63535392243E+02  0.16641546402E+03  0.00000000000E+00 0.  1.
         11    1    5    5    0    0 -0.10150932649E+02 -0.50088295752E+01  0.30282420337E+02  0.32328853813E+02  0.00000000000E+00 0.  1.
        -11    1    5    5    0    0 -0.45213208087E+03 -0.72881115663E+02  0.26630160620E+03  0.52976562840E+03  0.00000000000E+00 0. -1.
          1    1    6    6  503    0  0.16612116237E+03  0.40461388246E+02 -0.52094186274E+02  0.17873770942E+03  0.00000000000E+00 0. -1.
         -1    1    6    6    0  503  0.15675626302E+03  0.13497644416E+03 -0.12116188091E+02  0.20721478829E+03  0.00000000000E+00 0.  1.
<mgrwt>
<rscale>  0 0.11159411E+04</rscale>
<asrwt>0</asrwt>
<pdfrwt beam="1">  1        1 0.63158895E-01 0.11159411E+04</pdfrwt>
<pdfrwt beam="2">  1       -2 0.11667056E+00 0.11159411E+04</pdfrwt>
<totfact> 0.28679426E+01</totfact>
</mgrwt>
</event>
<event>
12    4  0.4207946E-008  0.1521413E+04  0.7818608E-02  0.8870337E-01
         -2   -1    0    0    0  501 -0.00000000000E+00  0.00000000000E+00  0.66066069622E+03  0.66066069622E+03  0.00000000000E+00 0.  1.
          1   -1    0    0  501    0  0.00000000000E+00 -0.00000000000E+00 -0.87590202875E+03  0.87590202875E+03  0.00000000000E+00 0. -1.
        -24    2    1    2    0    0  0.29929607716E+03 -0.23816179017E+03  0.23311289067E+03  0.45598172475E+03  0.85314321249E+02 0.  0.
        254    2    1    2    0    0 -0.29929607716E+03  0.23816179017E+03 -0.44835422320E+03  0.10805810002E+04  0.90572325159E+03 0.  0.
         23    2    4    4    0    0  0.79975037785E+02  0.24660108589E+03 -0.60185143804E+03  0.66109702204E+03  0.87269793433E+02 0.  0.
         23    2    4    4    0    0 -0.37927111494E+03 -0.84392957196E+01  0.15349721485E+03  0.41948397818E+03  0.92128240175E+02 0.  0.
          1    1    3    3  502    0  0.73136319441E+02 -0.28944345303E+02  0.79059784419E+02  0.11152195236E+03  0.00000000000E+00 0. -1.
         -2    1    3    3    0  502  0.22615975772E+03 -0.20921744487E+03  0.15405310625E+03  0.34445977239E+03  0.00000000000E+00 0.  1.
         11    1    5    5    0    0  0.90797147423E+02  0.24241791761E+03 -0.59101815620E+03  0.64522324022E+03  0.00000000000E+00 0. -1.
        -11    1    5    5    0    0 -0.10822109638E+02  0.41831682846E+01 -0.10833281840E+02  0.15873781822E+02  0.00000000000E+00 0.  1.
          3    1    6    6  503    0 -0.30531872667E+03  0.22541462710E+02  0.96102047353E+02  0.32087886484E+03  0.00000000000E+00 0. -1.
         -3    1    6    6    0  503 -0.73952388278E+02 -0.30980758429E+02  0.57395167494E+02  0.98605113338E+02  0.00000000000E+00 0.  1.
<mgrwt>
<rscale>  0 0.15214126E+04</rscale>
<asrwt>0</asrwt>
<pdfrwt beam="1">  1        1 0.13475416E+00 0.15214126E+04</pdfrwt>
<pdfrwt beam="2">  1       -2 0.10164011E+00 0.15214126E+04</pdfrwt>
<totfact> 0.12810312E+01</totfact>
</mgrwt>
</event>
<event>
12    4  0.4207946E-008  0.2044938E+04  0.7818608E-02  0.8585894E-01
         -2   -1    0    0    0  501 -0.00000000000E+00  0.00000000000E+00  0.14418701545E+04  0.14418701545E+04  0.00000000000E+00 0.  1.
          1   -1    0    0  501    0  0.00000000000E+00 -0.00000000000E+00 -0.72506032771E+03  0.72506032771E+03  0.00000000000E+00 0. -1.
        -24    2    1    2    0    0 -0.29628471905E+03  0.58380254517E+03 -0.23415406791E+03  0.69983134242E+03  0.79534481974E+02 0.  0.
        254    2    1    2    0    0  0.29628471905E+03 -0.58380254517E+03  0.95096389466E+03  0.14670991398E+04  0.90522787762E+03 0.  0.
         23    2    4    4    0    0  0.26532208061E+03 -0.43996192642E+03  0.11125681318E+04  0.12288018197E+04  0.90464141160E+02 0.  0.
         23    2    4    4    0    0  0.30962638441E+02 -0.14384061875E+03 -0.16160423718E+03  0.23829732010E+03  0.94978285449E+02 0.  0.
          3    1    3    3  502    0 -0.28614860383E+03  0.58177153285E+03 -0.23462277155E+03  0.68948312876E+03  0.00000000000E+00 0. -1.
         -4    1    3    3    0  502 -0.10136115227E+02  0.20310123210E+01  0.46870364645E+00  0.10348213664E+02  0.00000000000E+00 0.  1.
         11    1    5    5    0    0 -0.58999181074E+01 -0.26424933522E+02  0.61859645056E+02  0.67525564283E+02  0.00000000000E+00 0. -1.
        -11    1    5    5    0    0  0.27122199872E+03 -0.41353699290E+03  0.10507084868E+04  0.11612762554E+04  0.00000000000E+00 0.  1.
          3    1    6    6  503    0  0.42273670183E+02 -0.90080009446E+02 -0.44613704204E+02  0.10904977715E+03  0.00000000000E+00 0. -1.
         -3    1    6    6    0  503 -0.11311031742E+02 -0.53760609308E+02 -0.11699053298E+03  0.12924754295E+03  0.00000000000E+00 0.  1.
<mgrwt>
<rscale>  0 0.20449380E+04</rscale>
<asrwt>0</asrwt>
<pdfrwt beam="1">  1        1 0.11154774E+00 0.20449380E+04</pdfrwt>
<pdfrwt beam="2">  1       -2 0.22182618E+00 0.20449380E+04</pdfrwt>
<totfact> 0.20101987E+00</totfact>
</mgrwt>
</event>
<event>
12    4  0.4207946E-008  0.1726594E+04  0.7818608E-02  0.8746341E-01
         -2   -1    0    0    0  501 -0.00000000000E+00  0.00000000000E+00  0.45496858338E+03  0.45496858338E+03  0.00000000000E+00 0.  1.
          1   -1    0    0  501    0  0.00000000000E+00 -0.00000000000E+00 -0.16380940142E+04  0.16380940142E+04  0.00000000000E+00 0. -1.
        -24    2    1    2    0    0 -0.27509497484E+03  0.53984709844E+03 -0.24332278787E+03  0.65721363883E+03  0.74910967732E+02 0.  0.
        254    2    1    2    0    0  0.27509497484E+03 -0.53984709844E+03 -0.93980264295E+03  0.14358489587E+04  0.90073363974E+03 0.  0.
         23    2    4    4    0    0  0.26053050793E+03  0.11045992665E+03 -0.65611467217E+03  0.72047600484E+03  0.92312889428E+02 0.  0.
         23    2    4    4    0    0  0.14564466911E+02 -0.65030702509E+03 -0.28368797077E+03  0.71537295390E+03  0.90378359302E+02 0.  0.
          3    1    3    3  502    0 -0.21099317024E+03  0.35619826864E+03 -0.19003994657E+03  0.45553321039E+03  0.00000000000E+00 0. -1.
         -4    1    3    3    0  502 -0.64101804596E+02  0.18364882980E+03 -0.53282841303E+02  0.20168042844E+03  0.00000000000E+00 0.  1.
         11    1    5    5    0    0  0.18048075613E+03  0.93092367614E+02 -0.36093658226E+03  0.41414334313E+03  0.00000000000E+00 0. -1.
        -11    1    5    5    0    0  0.80049751799E+02  0.17367559037E+02 -0.29517808991E+03  0.30633266171E+03  0.00000000000E+00 0.  1.
          3    1    6    6  503    0  0.12257584337E+02 -0.55657646183E+03 -0.27579787688E+03  0.62128260488E+03  0.00000000000E+00 0. -1.
         -3    1    6    6    0  503  0.23068825740E+01 -0.93730563262E+02 -0.78900938908E+01  0.94090349017E+02  0.00000000000E+00 0.  1.
<mgrwt>
<rscale>  0 0.17265935E+04</rscale>
<asrwt>0</asrwt>
<pdfrwt beam="1">  1        1 0.25201446E+00 0.17265935E+04</pdfrwt>
<pdfrwt beam="2">  1       -2 0.69995168E-01 0.17265935E+04</pdfrwt>
<totfact> 0.81405405E+00</totfact>
</mgrwt>
</event>
<event>
12    4  0.4207946E-008  0.2944359E+04  0.7818608E-02  0.8259801E-01
         -2   -1    0    0    0  501 -0.00000000000E+00  0.00000000000E+00  0.15389766400E+04  0.15389766400E+04  0.00000000000E+00 0.  1.
          1   -1    0    0  501    0  0.00000000000E+00 -0.00000000000E+00 -0.14082812119E+04  0.14082812119E+04  0.00000000000E+00 0. -1.
        -24    2    1    2    0    0  0.38988345780E+03 -0.33501249341E+03  0.12836193549E+04  0.13850616778E+04  0.80465655398E+02 0.  0.
        254    2    1    2    0    0 -0.38988345780E+03  0.33501249341E+03 -0.11529239268E+04  0.15621961742E+04  0.92031561119E+03 0.  0.
         23    2    4    4    0    0  0.11231676153E+02 -0.29095259159E+03 -0.35994480542E+03  0.47134354512E+03  0.88458541005E+02 0.  0.
         23    2    4    4    0    0 -0.40111513395E+03  0.62596508500E+03 -0.79297912138E+03  0.10908526291E+04  0.91749294492E+02 0.  0.
          3    1    3    3  502    0  0.39078050846E+02 -0.71693755879E+02  0.19739484101E+03  0.21361603860E+03  0.00000000000E+00 0. -1.
         -4    1    3    3    0  502  0.35080540695E+03 -0.26331873753E+03  0.10862245139E+04  0.11714456392E+04  0.00000000000E+00 0.  1.
         11    1    5    5    0    0  0.10955329432E+02 -0.33458754260E+02 -0.97556820406E+02  0.10371519024E+03  0.00000000000E+00 0.  1.
        -11    1    5    5    0    0  0.27634672110E+00 -0.25749383733E+03 -0.26238798501E+03  0.36762835488E+03  0.00000000000E+00 0. -1.
          4    1    6    6  503    0 -0.34781953436E+03  0.57979467074E+03 -0.74197642268E+03  0.10038273260E+04  0.00000000000E+00 0. -1.
         -4    1    6    6    0  503 -0.53295599591E+02  0.46170414257E+02 -0.51002698702E+02  0.87025303007E+02  0.00000000000E+00 0.  1.
<mgrwt>
<rscale>  0 0.29443586E+04</rscale>
<asrwt>0</asrwt>
<pdfrwt beam="1">  1        1 0.21665865E+00 0.29443586E+04</pdfrwt>
<pdfrwt beam="2">  1       -2 0.23676564E+00 0.29443586E+04</pdfrwt>
<totfact> 0.44158717E-01</totfact>
</mgrwt>
</event>
<event>
12    4  0.4207946E-008  0.1964057E+04  0.7818608E-02  0.8623612E-01
          1   -1    0    0  501    0  0.00000000000E+00  0.00000000000E+00  0.12948020564E+04  0.12948020564E+04  0.00000000000E+00 0. -1.
         -2   -1    0    0    0  501 -0.00000000000E+00 -0.00000000000E+00 -0.74480850595E+03  0.74480850595E+03  0.00000000000E+00 0.  1.
        -24    2    1    2    0    0 -0.51234933094E+03  0.10217141897E+02 -0.37525159162E+03  0.64013543140E+03  0.79708133935E+02 0.  0.
        254    2    1    2    0    0  0.51234933094E+03 -0.10217141897E+02  0.92524514205E+03  0.13994751309E+04  0.91643103521E+03 0.  0.
         23    2    4    4    0    0  0.46468295475E+03 -0.36510500723E+03  0.28894428694E+03  0.66356530123E+03  0.87167616112E+02 0.  0.
         23    2    4    4    0    0  0.47666376193E+02  0.35488786533E+03  0.63630085512E+03  0.73590982971E+03  0.92016405369E+02 0.  0.
          3    1    3    3  502    0 -0.20083171944E+03  0.14658158226E+02 -0.19443601549E+03  0.27991713998E+03  0.00000000000E+00 0. -1.
         -2    1    3    3    0  502 -0.31151761150E+03 -0.44410163294E+01 -0.18081557613E+03  0.36021829142E+03  0.00000000000E+00 0.  1.
         11    1    5    5    0    0  0.25417095306E+03 -0.25302535357E+03  0.16469310320E+03  0.39464987162E+03  0.00000000000E+00 0. -1.
        -11    1    5    5    0    0  0.21051200169E+03 -0.11207965366E+03  0.12425118374E+03  0.26891542961E+03  0.00000000000E+00 0.  1.
          3    1    6    6  503    0  0.39472148673E+02  0.31936769328E+03  0.61388786602E+03  0.69311765674E+03  0.00000000000E+00 0. -1.
         -3    1    6    6    0  503  0.81942275198E+01  0.35520172052E+02  0.22412989094E+02  0.42792172969E+02  0.00000000000E+00 0.  1.
<mgrwt>
<rscale>  0 0.19640566E+04</rscale>
<asrwt>0</asrwt>
<pdfrwt beam="1">  1        1 0.19920032E+00 0.19640566E+04</pdfrwt>
<pdfrwt beam="2">  1       -2 0.11458592E+00 0.19640566E+04</pdfrwt>
<totfact> 0.44310021E+00</totfact>
</mgrwt>
</event>
<event>
12    4  0.4207946E-008  0.1172848E+04  0.7818608E-02  0.9136960E-01
         -2   -1    0    0    0  501 -0.00000000000E+00  0.00000000000E+00  0.36640230215E+03  0.36640230215E+03  0.00000000000E+00 0.  1.
          1   -1    0    0  501    0  0.00000000000E+00 -0.00000000000E+00 -0.93856758557E+03  0.93856758557E+03  0.00000000000E+00 0. -1.
        -24    2    1    2    0    0  0.53968740448E+02 -0.22303933139E+03 -0.17383665303E+03  0.30074134291E+03  0.86988534333E+02 0.  0.
        254    2    1    2    0    0 -0.53968740448E+02  0.22303933139E+03 -0.39832863039E+03  0.10042285448E+04  0.89283262940E+03 0.  0.
         23    2    4    4    0    0 -0.39009732478E+03  0.36492212765E+03 -0.28057328747E+03  0.61017327971E+03  0.90807376226E+02 0.  0.
         23    2    4    4    0    0  0.33612858433E+03 -0.14188279625E+03 -0.11775534292E+03  0.39405526510E+03  0.91104764377E+02 0.  0.
          1    1    3    3  502    0  0.51906552697E+02 -0.10614364149E+03 -0.44150253171E+02  0.12613487898E+03  0.00000000000E+00 0. -1.
         -2    1    3    3    0  502  0.20621877504E+01 -0.11689568991E+03 -0.12968639986E+03  0.17460646393E+03  0.00000000000E+00 0.  1.
         11    1    5    5    0    0 -0.36125809312E+03  0.32148979898E+03 -0.27837337291E+03  0.55799178796E+03  0.00000000000E+00 0.  1.
        -11    1    5    5    0    0 -0.28839231664E+02  0.43432328667E+02 -0.21999145642E+01  0.52181491742E+02  0.00000000000E+00 0. -1.
          3    1    6    6  503    0  0.47600577489E+02 -0.20156341532E+02 -0.53467897322E+02  0.74370082192E+02  0.00000000000E+00 0. -1.
         -3    1    6    6    0  503  0.28852800684E+03 -0.12172645472E+03 -0.64287445596E+02  0.31968518291E+03  0.00000000000E+00 0.  1.
<mgrwt>
<rscale>  0 0.11728484E+04</rscale>
<asrwt>0</asrwt>
<pdfrwt beam="1">  1        1 0.14439501E+00 0.11728484E+04</pdfrwt>
<pdfrwt beam="2">  1       -2 0.56369586E-01 0.11728484E+04</pdfrwt>
<totfact> 0.43458910E+01</totfact>
</mgrwt>
</event>
<event>
12    4  0.4207946E-008  0.1130307E+04  0.7818608E-02  0.9176146E-01
         -2   -1    0    0    0  501 -0.00000000000E+00  0.00000000000E+00  0.25695025936E+03  0.25695025936E+03  0.00000000000E+00 0.  1.
          1   -1    0    0  501    0  0.00000000000E+00 -0.00000000000E+00 -0.12430360552E+04  0.12430360552E+04  0.00000000000E+00 0. -1.
        -24    2    1    2    0    0  0.12947598981E+03 -0.94631435722E+02 -0.10246476963E+03  0.20608241708E+03  0.79068280927E+02 0.  0.
        254    2    1    2    0    0 -0.12947598981E+03  0.94631435722E+02 -0.88362102619E+03  0.12939038975E+04  0.93149451818E+03 0.  0.
         23    2    4    4    0    0 -0.38228322603E+03 -0.20347365976E+03 -0.75065785046E+03  0.87123789805E+03  0.89589460404E+02 0.  0.
         23    2    4    4    0    0  0.25280723622E+03  0.29810509549E+03 -0.13296317573E+03  0.42266599942E+03  0.90494167344E+02 0.  0.
          1    1    3    3  502    0  0.32571824878E+02  0.11079225649E+02 -0.11573260466E+02  0.36298944540E+02  0.00000000000E+00 0. -1.
         -2    1    3    3    0  502  0.96904164934E+02 -0.10571066137E+03 -0.90891509163E+02  0.16978347254E+03  0.00000000000E+00 0.  1.
         11    1    5    5    0    0 -0.16040414427E+03 -0.42270031265E+02 -0.24273498635E+03  0.29400088204E+03  0.00000000000E+00 0.  1.
        -11    1    5    5    0    0 -0.22187908177E+03 -0.16120362850E+03 -0.50792286411E+03  0.57723701601E+03  0.00000000000E+00 0. -1.
          4    1    6    6  503    0  0.23748229818E+03  0.30309879574E+03 -0.12870951538E+03  0.40599613455E+03  0.00000000000E+00 0. -1.
         -4    1    6    6    0  503  0.15324938044E+02 -0.49937002484E+01 -0.42536603480E+01  0.16669864863E+02  0.00000000000E+00 0.  1.
<mgrwt>
<rscale>  0 0.11303069E+04</rscale>
<asrwt>0</asrwt>
<pdfrwt beam="1">  1        1 0.19123631E+00 0.11303069E+04</pdfrwt>
<pdfrwt beam="2">  1       -2 0.39530809E-01 0.11303069E+04</pdfrwt>
<totfact> 0.52467161E+01</totfact>
</mgrwt>
</event>
<event>
12    4  0.4207946E-008  0.2285553E+04  0.7818608E-02  0.8483639E-01
         -2   -1    0    0    0  501 -0.00000000000E+00  0.00000000000E+00  0.17103669972E+04  0.17103669972E+04  0.00000000000E+00 0.  1.
          1   -1    0    0  501    0  0.00000000000E+00 -0.00000000000E+00 -0.76354252358E+03  0.76354252358E+03  0.00000000000E+00 0. -1.
        -24    2    1    2    0    0 -0.76811485580E+03  0.30669638670E+03  0.93013323459E+03  0.12470319994E+04  0.76667255697E+02 0.  0.
        254    2    1    2    0    0  0.76811485580E+03 -0.30669638670E+03  0.16691239055E+02  0.12268775214E+04  0.90602800717E+03 0.  0.
         23    2    4    4    0    0 -0.58865993709E+02 -0.52031077310E+02  0.28948343973E+03  0.31518600877E+03  0.96794214842E+02 0.  0.
         23    2    4    4    0    0  0.82698084951E+03 -0.25466530939E+03 -0.27279220068E+03  0.91169151264E+03  0.89521417599E+02 0.  0.
          1    1    3    3  502    0 -0.13099388918E+03  0.23638533661E+02  0.16263094305E+03  0.21015947020E+03  0.00000000000E+00 0. -1.
         -2    1    3    3    0  502 -0.63712096661E+03  0.28305785304E+03  0.76750229154E+03  0.10368725292E+04  0.00000000000E+00 0.  1.
         11    1    5    5    0    0 -0.92244212005E+01  0.27073087994E+02  0.43396177280E+02  0.51973745704E+02  0.00000000000E+00 0. -1.
        -11    1    5    5    0    0 -0.49641572509E+02 -0.79104165304E+02  0.24608726245E+03  0.26321226307E+03  0.00000000000E+00 0.  1.
          1    1    6    6  503    0  0.34413973867E+02  0.72890170401E+01 -0.11919933482E+02  0.37142107923E+02  0.00000000000E+00 0. -1.
         -1    1    6    6    0  503  0.79256687564E+03 -0.26195432643E+03 -0.26087226719E+03  0.87454940472E+03  0.00000000000E+00 0.  1.
<mgrwt>
<rscale>  0 0.22855528E+04</rscale>
<asrwt>0</asrwt>
<pdfrwt beam="1">  1        1 0.11746808E+00 0.22855528E+04</pdfrwt>
<pdfrwt beam="2">  1       -2 0.26313338E+00 0.22855528E+04</pdfrwt>
<totfact> 0.10083436E+00</totfact>
</mgrwt>
</event>
<event>
12    4  0.4207946E-008  0.1858331E+04  0.7818608E-02  0.8675880E-01
          1   -1    0    0  501    0  0.00000000000E+00  0.00000000000E+00  0.82551105770E+03  0.82551105770E+03  0.00000000000E+00 0. -1.
         -2   -1    0    0    0  501 -0.00000000000E+00 -0.00000000000E+00 -0.10458353109E+04  0.10458353109E+04  0.00000000000E+00 0.  1.
        -24    2    1    2    0    0  0.57224208164E+03  0.40213049670E+03 -0.14796204339E+03  0.71954882063E+03  0.81778986357E+02 0.  0.
        254    2    1    2    0    0 -0.57224208164E+03 -0.40213049670E+03 -0.72362209839E+02  0.11517975480E+04  0.91226715703E+03 0.  0.
         23    2    4    4    0    0 -0.73261708148E+03 -0.10971649080E+03 -0.21740582818E+03  0.77697167761E+03  0.87488269190E+02 0.  0.
         23    2    4    4    0    0  0.16037499984E+03 -0.29241400590E+03  0.14504361834E+03  0.37482587040E+03  0.90723152920E+02 0.  0.
          3    1    3    3  502    0  0.21138393969E+03  0.13949875877E+03 -0.93294242995E+02  0.26990162918E+03  0.00000000000E+00 0. -1.
         -4    1    3    3    0  502  0.36085814195E+03  0.26263173793E+03 -0.54667800397E+02  0.44964719145E+03  0.00000000000E+00 0.  1.
         11    1    5    5    0    0 -0.53027666008E+03 -0.11848896488E+03 -0.15430592629E+03  0.56483917172E+03  0.00000000000E+00 0.  1.
        -11    1    5    5    0    0 -0.20234042140E+03  0.87724740817E+01 -0.63099901891E+02  0.21213250589E+03  0.00000000000E+00 0. -1.
          2    1    6    6  503    0 -0.59737392286E+01  0.65269926041E+00 -0.30440075673E+01  0.67362867194E+01  0.00000000000E+00 0. -1.
         -2    1    6    6    0  503  0.16634873907E+03 -0.29306670516E+03  0.14808762591E+03  0.36808958368E+03  0.00000000000E+00 0.  1.
<mgrwt>
<rscale>  0 0.18583311E+04</rscale>
<asrwt>0</asrwt>
<pdfrwt beam="1">  1        1 0.12700170E+00 0.18583311E+04</pdfrwt>
<pdfrwt beam="2">  1       -2 0.16089774E+00 0.18583311E+04</pdfrwt>
<totfact> 0.42866420E+00</totfact>
</mgrwt>
</event>
<event>
12    4  0.4207946E-008  0.1208425E+04  0.7818608E-02  0.9105514E-01
          1   -1    0    0  501    0  0.00000000000E+00  0.00000000000E+00  0.15180861221E+04  0.15180861221E+04  0.00000000000E+00 0. -1.
         -2   -1    0    0    0  501 -0.00000000000E+00 -0.00000000000E+00 -0.24048235199E+03  0.24048235199E+03  0.00000000000E+00 0.  1.
        -24    2    1    2    0    0 -0.84134251369E+02  0.16964615320E+03  0.56781214751E+03  0.60389936545E+03  0.80158712437E+02 0.  0.
        254    2    1    2    0    0  0.84134251369E+02 -0.16964615320E+03  0.70979162255E+03  0.11546691086E+04  0.89084129528E+03 0.  0.
         23    2    4    4    0    0  0.11010504905E+03 -0.50547677396E+03  0.26115475076E+03  0.58662795103E+03  0.91107948330E+02 0.  0.
         23    2    4    4    0    0 -0.25970797676E+02  0.33583062077E+03  0.44863687179E+03  0.56804115757E+03  0.89101210912E+02 0.  0.
          1    1    3    3  502    0  0.25113306826E+01  0.83180206410E+02  0.23159146276E+03  0.24608912845E+03  0.00000000000E+00 0. -1.
         -2    1    3    3    0  502 -0.86645582052E+02  0.86465946786E+02  0.33622068475E+03  0.35781023700E+03  0.00000000000E+00 0.  1.
         11    1    5    5    0    0  0.68889523560E+02 -0.35537878693E+03  0.22696885006E+03  0.42726421281E+03  0.00000000000E+00 0. -1.
        -11    1    5    5    0    0  0.41215525486E+02 -0.15009798704E+03  0.34185900705E+02  0.15936373822E+03  0.00000000000E+00 0.  1.
          1    1    6    6  503    0 -0.29244926806E+02  0.29999209485E+03  0.34389958929E+03  0.45729361490E+03  0.00000000000E+00 0. -1.
         -1    1    6    6    0  503  0.32741291297E+01  0.35838525919E+02  0.10473728250E+03  0.11074754267E+03  0.00000000000E+00 0.  1.
<mgrwt>
<rscale>  0 0.12084253E+04</rscale>
<asrwt>0</asrwt>
<pdfrwt beam="1">  1        1 0.23355170E+00 0.12084253E+04</pdfrwt>
<pdfrwt beam="2">  1       -2 0.36997286E-01 0.12084253E+04</pdfrwt>
<totfact> 0.37974722E+01</totfact>
</mgrwt>
</event>
<event>
12    4  0.4207946E-008  0.1838266E+04  0.7818608E-02  0.8686210E-01
          1   -1    0    0  501    0  0.00000000000E+00  0.00000000000E+00  0.77993215190E+03  0.77993215190E+03  0.00000000000E+00 0. -1.
         -2   -1    0    0    0  501 -0.00000000000E+00 -0.00000000000E+00 -0.10831785844E+04  0.10831785844E+04  0.00000000000E+00 0.  1.
        -24    2    1    2    0    0  0.58236900418E+03  0.40017387180E+03 -0.16388146636E+03  0.73002093730E+03  0.82344697315E+02 0.  0.
        254    2    1    2    0    0 -0.58236900418E+03 -0.40017387180E+03 -0.13936496614E+03  0.11330897990E+04  0.87474402776E+03 0.  0.
         23    2    4    4    0    0  0.15446644369E+03 -0.71448613081E+02  0.17701172836E+03  0.26117695223E+03  0.88968881441E+02 0.  0.
         23    2    4    4    0    0 -0.73683544787E+03 -0.32872525872E+03 -0.31637669450E+03  0.87191284677E+03  0.95660998178E+02 0.  0.
          3    1    3    3  502    0  0.21773623209E+03  0.12870891519E+03 -0.22389415456E+02  0.25392191228E+03  0.00000000000E+00 0. -1.
         -4    1    3    3    0  502  0.36463277210E+03  0.27146495662E+03 -0.14149205090E+03  0.47609902502E+03  0.00000000000E+00 0.  1.
         11    1    5    5    0    0  0.14304577579E+03 -0.41774772131E+02  0.17421937720E+03  0.22925884269E+03  0.00000000000E+00 0.  1.
        -11    1    5    5    0    0  0.11420667900E+02 -0.29673840950E+02  0.27923511553E+01  0.31918109546E+02  0.00000000000E+00 0. -1.
          1    1    6    6  503    0 -0.48977946273E+02 -0.14919232422E+02 -0.46407153970E+02  0.69101712401E+02  0.00000000000E+00 0. -1.
         -1    1    6    6    0  503 -0.68785750160E+03 -0.31380602630E+03 -0.26996954053E+03  0.80281113436E+03  0.00000000000E+00 0.  1.
<mgrwt>
<rscale>  0 0.18382664E+04</rscale>
<asrwt>0</asrwt>
<pdfrwt beam="1">  1        1 0.11998956E+00 0.18382664E+04</pdfrwt>
<pdfrwt beam="2">  1       -2 0.16664286E+00 0.18382664E+04</pdfrwt>
<totfact> 0.42717264E+00</totfact>
</mgrwt>
</event>
<event>
12    4  0.4207946E-008  0.1769666E+04  0.7818608E-02  0.8722599E-01
          1   -1    0    0  501    0  0.00000000000E+00  0.00000000000E+00  0.32595477328E+04  0.32595477328E+04  0.00000000000E+00 0. -1.
         -2   -1    0    0    0  501 -0.00000000000E+00 -0.00000000000E+00 -0.24019580270E+03  0.24019580270E+03  0.00000000000E+00 0.  1.
        -24    2    1    2    0    0  0.48747687077E+02 -0.55587011351E+03  0.42181878180E+03  0.70125504607E+03  0.49594706131E+02 0.  0.
        254    2    1    2    0    0 -0.48747687077E+02  0.55587011351E+03  0.25975331483E+04  0.27984884894E+04  0.87919932261E+03 0.  0.
         23    2    4    4    0    0  0.15291967889E+03  0.37919594364E+03  0.38861944842E+03  0.57145296058E+03  0.91429856160E+02 0.  0.
         23    2    4    4    0    0 -0.20166736596E+03  0.17667416987E+03  0.22089136999E+04  0.22270355288E+04  0.92217267731E+02 0.  0.
          1    1    3    3  502    0  0.24885809971E+01 -0.16317962016E+03  0.99645964343E+02  0.19121479985E+03  0.00000000000E+00 0. -1.
         -2    1    3    3    0  502  0.46259106080E+02 -0.39269049335E+03  0.32217281746E+03  0.51004024623E+03  0.00000000000E+00 0.  1.
         11    1    5    5    0    0  0.93292072642E+02  0.21954154596E+03  0.16391817583E+03  0.28943232299E+03  0.00000000000E+00 0.  1.
        -11    1    5    5    0    0  0.59627606245E+02  0.15965439768E+03  0.22470127258E+03  0.28202063759E+03  0.00000000000E+00 0. -1.
          3    1    6    6  503    0 -0.17452238713E+03  0.11016318667E+03  0.18075097960E+04  0.18192541477E+04  0.00000000000E+00 0. -1.
         -3    1    6    6    0  503 -0.27144978830E+02  0.66510983193E+02  0.40140390387E+03  0.40778138114E+03  0.00000000000E+00 0.  1.
<mgrwt>
<rscale>  0 0.17696663E+04</rscale>
<asrwt>0</asrwt>
<pdfrwt beam="1">  1        1 0.50146885E+00 0.17696663E+04</pdfrwt>
<pdfrwt beam="2">  1       -2 0.36953203E-01 0.17696663E+04</pdfrwt>
<totfact> 0.22091911E+00</totfact>
</mgrwt>
</event>
<event>
12    4  0.4207946E-008  0.2405215E+04  0.7818608E-02  0.8437554E-01
          3   -1    0    0  501    0  0.00000000000E+00  0.00000000000E+00  0.30130084392E+04  0.30130084392E+04  0.00000000000E+00 0. -1.
         -4   -1    0    0    0  501 -0.00000000000E+00 -0.00000000000E+00 -0.48000706045E+03  0.48000706045E+03  0.00000000000E+00 0.  1.
        -24    2    1    2    0    0 -0.50126943603E+03  0.77616453431E+03  0.42037683147E+03  0.10183111348E+04  0.80860713939E+02 0.  0.
        254    2    1    2    0    0  0.50126943603E+03 -0.77616453431E+03  0.21126245472E+04  0.24747043648E+04  0.89848582831E+03 0.  0.
         23    2    4    4    0    0  0.13893279828E+03 -0.77461431056E+03  0.18652421446E+04  0.20268877747E+04  0.99076439652E+02 0.  0.
         23    2    4    4    0    0  0.36233663775E+03 -0.15502237452E+01  0.24738240265E+03  0.44781659004E+03  0.89729610094E+02 0.  0.
          1    1    3    3  502    0 -0.68873870023E+02  0.10249322777E+03  0.87582182032E+02  0.15139058861E+03  0.00000000000E+00 0. -1.
         -2    1    3    3    0  502 -0.43239556601E+03  0.67367130653E+03  0.33279464944E+03  0.86692054621E+03  0.00000000000E+00 0.  1.
         11    1    5    5    0    0  0.71572590502E+02 -0.33556968616E+03  0.93691906180E+03  0.99777100496E+03  0.00000000000E+00 0.  1.
        -11    1    5    5    0    0  0.67360207780E+02 -0.43904462440E+03  0.92832308279E+03  0.10291167698E+04  0.00000000000E+00 0. -1.
          2    1    6    6  503    0  0.70981737212E+02 -0.36536175311E+02  0.52053345967E+02  0.95303987065E+02  0.00000000000E+00 0. -1.
         -2    1    6    6    0  503  0.29135490054E+03  0.34985951566E+02  0.19532905669E+03  0.35251260298E+03  0.00000000000E+00 0.  1.
<mgrwt>
<rscale>  0 0.24052154E+04</rscale>
<asrwt>0</asrwt>
<pdfrwt beam="1">  1        3 0.46353975E+00 0.24052154E+04</pdfrwt>
<pdfrwt beam="2">  1       -4 0.73847242E-01 0.24052154E+04</pdfrwt>
<totfact> 0.17835400E-02</totfact>
</mgrwt>
</event>
<event>
12    4  0.4207946E-008  0.1384099E+04  0.7818608E-02  0.8965410E-01
         -2   -1    0    0    0  501 -0.00000000000E+00  0.00000000000E+00  0.25991238764E+03  0.25991238764E+03  0.00000000000E+00 0.  1.
          1   -1    0    0  501    0  0.00000000000E+00 -0.00000000000E+00 -0.18426680375E+04  0.18426680375E+04  0.00000000000E+00 0. -1.
        -24    2    1    2    0    0  0.15651135732E+02 -0.17820594911E+02  0.14093658329E+03  0.16513715272E+03  0.82732261217E+02 0.  0.
        254    2    1    2    0    0 -0.15651135732E+02  0.17820594911E+02 -0.17236922331E+04  0.19374432724E+04  0.88431272046E+03 0.  0.
         23    2    4    4    0    0  0.31277188326E+03  0.22371458346E+03 -0.43137838550E+03  0.58526452555E+03  0.92589349153E+02 0.  0.
         23    2    4    4    0    0 -0.32842301899E+03 -0.20589398855E+03 -0.12923138476E+04  0.13521787468E+04  0.89767860360E+02 0.  0.
          1    1    3    3  502    0 -0.99283043029E+01 -0.81804031919E+01 -0.70346982886E+01  0.14662100897E+02  0.00000000000E+00 0. -1.
         -2    1    3    3    0  502  0.25579440035E+02 -0.96401917196E+01  0.14797128157E+03  0.15047505182E+03  0.00000000000E+00 0.  1.
         11    1    5    5    0    0  0.29214333313E+03  0.22618463013E+03 -0.38077741653E+03  0.53056446822E+03  0.00000000000E+00 0. -1.
        -11    1    5    5    0    0  0.20628550128E+02 -0.24700466642E+01 -0.50600968970E+02  0.54700057327E+02  0.00000000000E+00 0.  1.
          3    1    6    6  503    0 -0.28575963317E+03 -0.20043439441E+03 -0.10621877178E+04  0.11180676465E+04  0.00000000000E+00 0. -1.
         -3    1    6    6    0  503 -0.42663385819E+02 -0.54595941441E+01 -0.23012612983E+03  0.23411110031E+03  0.00000000000E+00 0.  1.
<mgrwt>
<rscale>  0 0.13840986E+04</rscale>
<asrwt>0</asrwt>
<pdfrwt beam="1">  1        1 0.28348740E+00 0.13840986E+04</pdfrwt>
<pdfrwt beam="2">  1       -2 0.39986520E-01 0.13840986E+04</pdfrwt>
<totfact> 0.19336080E+01</totfact>
</mgrwt>
</event>
<event>
12    4  0.4207946E-008  0.2063110E+04  0.7818608E-02  0.8577670E-01
          1   -1    0    0  501    0  0.00000000000E+00  0.00000000000E+00  0.11291923948E+04  0.11291923948E+04  0.00000000000E+00 0. -1.
         -2   -1    0    0    0  501 -0.00000000000E+00 -0.00000000000E+00 -0.94236010187E+03  0.94236010187E+03  0.00000000000E+00 0.  1.
        -24    2    1    2    0    0  0.29182176100E+02 -0.62034935230E+03  0.62810047377E+03  0.88651940868E+03  0.75640852101E+02 0.  0.
        254    2    1    2    0    0 -0.29182176100E+02  0.62034935230E+03 -0.44126818085E+03  0.11850330880E+04  0.90768986658E+03 0.  0.
         23    2    4    4    0    0  0.22848407938E+03  0.67308574100E+02  0.17806391146E+03  0.31101197862E+03  0.91028982197E+02 0.  0.
         23    2    4    4    0    0 -0.25766625548E+03  0.55304077820E+03 -0.61933209231E+03  0.87402110937E+03  0.89970314478E+02 0.  0.
          1    1    3    3  502    0  0.50552716809E+02 -0.49437908081E+03  0.51827181943E+03  0.71803337773E+03  0.00000000000E+00 0. -1.
         -2    1    3    3    0  502 -0.21370540709E+02 -0.12597027149E+03  0.10982865434E+03  0.16848603095E+03  0.00000000000E+00 0.  1.
         11    1    5    5    0    0  0.42386334975E+02  0.43597708490E+02  0.15439757283E+02  0.62735537641E+02  0.00000000000E+00 0.  1.
        -11    1    5    5    0    0  0.18609774441E+03  0.23710865611E+02  0.16262415418E+03  0.24827644097E+03  0.00000000000E+00 0. -1.
          1    1    6    6  503    0 -0.20571569432E+03  0.42159601964E+03 -0.41991480967E+03  0.62959558293E+03  0.00000000000E+00 0. -1.
         -1    1    6    6    0  503 -0.51950561166E+02  0.13144475856E+03 -0.19941728264E+03  0.24442552644E+03  0.00000000000E+00 0.  1.
<mgrwt>
<rscale>  0 0.20631101E+04</rscale>
<asrwt>0</asrwt>
<pdfrwt beam="1">  1        1 0.17372191E+00 0.20631101E+04</pdfrwt>
<pdfrwt beam="2">  1       -2 0.14497848E+00 0.20631101E+04</pdfrwt>
<totfact> 0.31975089E+00</totfact>
</mgrwt>
</event>
<event>
12    4  0.4207946E-008  0.1625095E+04  0.7818608E-02  0.8805278E-01
          1   -1    0    0  501    0  0.00000000000E+00  0.00000000000E+00  0.94721373710E+03  0.94721373710E+03  0.00000000000E+00 0. -1.
         -2   -1    0    0    0  501 -0.00000000000E+00 -0.00000000000E+00 -0.69702689856E+03  0.69702689856E+03  0.00000000000E+00 0.  1.
        -24    2    1    2    0    0  0.47351647795E+02  0.28775058385E+03 -0.39174787754E+03  0.49447684239E+03  0.77449151363E+02 0.  0.
        254    2    1    2    0    0 -0.47351647795E+02 -0.28775058385E+03  0.64193471607E+03  0.11497637933E+04  0.90820373461E+03 0.  0.
         23    2    4    4    0    0 -0.38415588739E+03 -0.81175874458E+02  0.15162636624E+02  0.40346251270E+03  0.91579611234E+02 0.  0.
         23    2    4    4    0    0  0.33680423959E+03 -0.20657470939E+03  0.62677207945E+03  0.74630128057E+03  0.89510644270E+02 0.  0.
          1    1    3    3  502    0  0.41080026594E+02  0.12702343854E+03 -0.12443277458E+03  0.18249941894E+03  0.00000000000E+00 0. -1.
         -2    1    3    3    0  502  0.62716212010E+01  0.16072714531E+03 -0.26731510295E+03  0.31197742344E+03  0.00000000000E+00 0.  1.
         11    1    5    5    0    0 -0.18818856994E+03 -0.13264400750E+02 -0.30471497371E+02  0.19110048230E+03  0.00000000000E+00 0.  1.
        -11    1    5    5    0    0 -0.19596731744E+03 -0.67911473708E+02  0.45634133995E+02  0.21236203039E+03  0.00000000000E+00 0. -1.
          4    1    6    6  503    0  0.24112118107E+03 -0.11846839929E+03  0.48096881272E+03  0.55091304613E+03  0.00000000000E+00 0. -1.
         -4    1    6    6    0  503  0.95683058517E+02 -0.88106310104E+02  0.14580326673E+03  0.19538823444E+03  0.00000000000E+00 0.  1.
<mgrwt>
<rscale>  0 0.16250950E+04</rscale>
<asrwt>0</asrwt>
<pdfrwt beam="1">  1        1 0.14572519E+00 0.16250950E+04</pdfrwt>
<pdfrwt beam="2">  1       -2 0.10723491E+00 0.16250950E+04</pdfrwt>
<totfact> 0.97701732E+00</totfact>
</mgrwt>
</event>
<event>
12    4  0.4207946E-008  0.2778804E+04  0.7818608E-02  0.8309879E-01
         -2   -1    0    0    0  501 -0.00000000000E+00  0.00000000000E+00  0.17481480695E+04  0.17481480695E+04  0.00000000000E+00 0.  1.
          1   -1    0    0  501    0  0.00000000000E+00 -0.00000000000E+00 -0.11042756465E+04  0.11042756465E+04  0.00000000000E+00 0. -1.
        -24    2    1    2    0    0  0.50462463854E+03  0.47639155383E+03 -0.76946752469E+03  0.10395794654E+04  0.83965795674E+02 0.  0.
        254    2    1    2    0    0 -0.50462463854E+03 -0.47639155383E+03  0.14133399477E+04  0.18128442506E+04  0.89848735708E+03 0.  0.
         23    2    4    4    0    0 -0.51038626280E+03 -0.35078814081E+03  0.31095574795E+03  0.69955172321E+03  0.95565052619E+02 0.  0.
         23    2    4    4    0    0  0.57616242533E+01 -0.12560341302E+03  0.11023841998E+04  0.11132925274E+04  0.91432565356E+02 0.  0.
          1    1    3    3  502    0  0.41888296475E+03  0.34950990327E+03 -0.61421243918E+03  0.82150899635E+03  0.00000000000E+00 0. -1.
         -2    1    3    3    0  502  0.85741673791E+02  0.12688165056E+03 -0.15525508551E+03  0.21807046900E+03  0.00000000000E+00 0.  1.
         11    1    5    5    0    0 -0.25648523401E+03 -0.20233322273E+03  0.21105675278E+03  0.38893233497E+03  0.00000000000E+00 0.  1.
        -11    1    5    5    0    0 -0.25390102878E+03 -0.14845491808E+03  0.99898995168E+02  0.31061938825E+03  0.00000000000E+00 0. -1.
          3    1    6    6  503    0 -0.27602533257E+02 -0.11558884946E+03  0.77469552956E+03  0.78375751702E+03  0.00000000000E+00 0. -1.
         -3    1    6    6    0  503  0.33364157510E+02 -0.10014563555E+02  0.32768867023E+03  0.32953501041E+03  0.00000000000E+00 0.  1.
<mgrwt>
<rscale>  0 0.27788036E+04</rscale>
<asrwt>0</asrwt>
<pdfrwt beam="1">  1        1 0.16988856E+00 0.27788036E+04</pdfrwt>
<pdfrwt beam="2">  1       -2 0.26894586E+00 0.27788036E+04</pdfrwt>
<totfact> 0.47111792E-01</totfact>
</mgrwt>
</event>
<event>
12    4  0.4207946E-008  0.3258925E+04  0.7818608E-02  0.8173426E-01
         -2   -1    0    0    0  501 -0.00000000000E+00  0.00000000000E+00  0.18445499649E+04  0.18445499649E+04  0.00000000000E+00 0.  1.
          1   -1    0    0  501    0  0.00000000000E+00 -0.00000000000E+00 -0.14394555052E+04  0.14394555052E+04  0.00000000000E+00 0. -1.
        -24    2    1    2    0    0 -0.60961704528E+03  0.10112030239E+04 -0.75549200768E+03  0.14040839695E+04  0.80741080888E+02 0.  0.
        254    2    1    2    0    0  0.60961704528E+03 -0.10112030239E+04  0.11605864675E+04  0.18799215006E+04  0.89049390939E+03 0.  0.
         23    2    4    4    0    0  0.60849193455E+03 -0.20505167086E+03  0.36863939582E+03  0.74604751343E+03  0.91560176990E+02 0.  0.
         23    2    4    4    0    0  0.11251107316E+01 -0.80615135305E+03  0.79194707164E+03  0.11338739872E+04  0.92783536794E+02 0.  0.
          3    1    3    3  502    0 -0.13331524668E+03  0.25353796191E+03 -0.14791938697E+03  0.32238889275E+03  0.00000000000E+00 0. -1.
         -4    1    3    3    0  502 -0.47630179860E+03  0.75766506200E+03 -0.60757262071E+03  0.10816950767E+04  0.00000000000E+00 0.  1.
         11    1    5    5    0    0  0.59786880899E+02  0.52718909332E+01  0.22833903517E+02  0.64215660952E+02  0.00000000000E+00 0. -1.
        -11    1    5    5    0    0  0.54870505365E+03 -0.21032356180E+03  0.34580549230E+03  0.68183185248E+03  0.00000000000E+00 0.  1.
          1    1    6    6  503    0  0.28528752844E+02 -0.33725917513E+03  0.38274249011E+03  0.51092999000E+03  0.00000000000E+00 0. -1.
         -1    1    6    6    0  503 -0.27403642112E+02 -0.46889217792E+03  0.40920458153E+03  0.62294399721E+03  0.00000000000E+00 0.  1.
<mgrwt>
<rscale>  0 0.32589247E+04</rscale>
<asrwt>0</asrwt>
<pdfrwt beam="1">  1        1 0.22145469E+00 0.32589247E+04</pdfrwt>
<pdfrwt beam="2">  1       -2 0.28377692E+00 0.32589247E+04</pdfrwt>
<totfact> 0.21046713E-01</totfact>
</mgrwt>
</event>
<event>
12    4  0.4519086E-008  0.2400238E+04  0.7818608E-02  0.8439415E-01
          1   -1    0    0  501    0  0.00000000000E+00  0.00000000000E+00  0.12315335536E+04  0.12315335536E+04  0.00000000000E+00 0. -1.
         -2   -1    0    0    0  501 -0.00000000000E+00 -0.00000000000E+00 -0.11695056296E+04  0.11695056296E+04  0.00000000000E+00 0.  1.
        -24    2    1    2    0    0 -0.29289043116E+03  0.34286774990E+03  0.94985242400E+03  0.10544664748E+04  0.79604148971E+02 0.  0.
        254    2    1    2    0    0  0.29289043116E+03 -0.34286774990E+03 -0.88782449997E+03  0.13465727084E+04  0.90646710788E+03 0.  0.
         23    2    4    4    0    0 -0.60292363939E+02 -0.43311789247E+03 -0.86102602782E+03  0.96994698961E+03  0.90581809168E+02 0.  0.
         23    2    4    4    0    0  0.35318279509E+03  0.90250142571E+02 -0.26798472154E+02  0.37662571879E+03  0.90805280452E+02 0.  0.
          1    1    3    3  502    0 -0.20688683946E+03  0.23336742886E+03  0.56745910947E+03  0.64751244167E+03  0.00000000000E+00 0. -1.
         -2    1    3    3    0  502 -0.86003591697E+02  0.10950032104E+03  0.38239331453E+03  0.40695403314E+03  0.00000000000E+00 0.  1.
         11    1    5    5    0    0 -0.21188156533E+02 -0.21935864435E+02 -0.35087895848E+02  0.46489574754E+02  0.00000000000E+00 0. -1.
        -11    1    5    5    0    0 -0.39104207406E+02 -0.41118202804E+03 -0.82593813197E+03  0.92345741486E+03  0.00000000000E+00 0.  1.
          2    1    6    6  503    0 -0.96442445533E+00 -0.56603412948E+00 -0.10602224590E+02  0.10661035382E+02  0.00000000000E+00 0. -1.
         -2    1    6    6    0  503  0.35414721955E+03  0.90816176700E+02 -0.16196247564E+02  0.36596468341E+03  0.00000000000E+00 0.  1.
<mgrwt>
<rscale>  0 0.24002378E+04</rscale>
<asrwt>0</asrwt>
<pdfrwt beam="1">  1        1 0.18946670E+00 0.24002378E+04</pdfrwt>
<pdfrwt beam="2">  1       -2 0.17992394E+00 0.24002378E+04</pdfrwt>
<totfact> 0.14466782E+00</totfact>
</mgrwt>
</event>
<event>
12    4  0.4207946E-008  0.1980324E+04  0.7818608E-02  0.8615875E-01
         -2   -1    0    0    0  501 -0.00000000000E+00  0.00000000000E+00  0.19520971164E+04  0.19520971164E+04  0.00000000000E+00 0.  1.
          1   -1    0    0  501    0  0.00000000000E+00 -0.00000000000E+00 -0.50223989726E+03  0.50223989726E+03  0.00000000000E+00 0. -1.
        -24    2    1    2    0    0 -0.16193269211E+03  0.14597273885E+03 -0.35709294489E+03  0.42542963633E+03  0.77102314580E+02 0.  0.
        254    2    1    2    0    0  0.16193269211E+03 -0.14597273885E+03  0.18069501640E+04  0.20289073773E+04  0.89658575340E+03 0.  0.
         23    2    4    4    0    0 -0.27815966391E+03 -0.68697708829E+02  0.13500561452E+04  0.13833013442E+04  0.93695462659E+02 0.  0.
         23    2    4    4    0    0  0.44009235601E+03 -0.77275030024E+02  0.45689401878E+03  0.64560603312E+03  0.91664025197E+02 0.  0.
          3    1    3    3  502    0 -0.15452421497E+03  0.15393586177E+03 -0.32384513914E+03  0.39044802048E+03  0.00000000000E+00 0. -1.
         -4    1    3    3    0  502 -0.74084771369E+01 -0.79631229178E+01 -0.33247805755E+02  0.34981615852E+02  0.00000000000E+00 0.  1.
         11    1    5    5    0    0 -0.17704363469E+03 -0.20124683543E+01  0.89871226767E+03  0.91598702975E+03  0.00000000000E+00 0. -1.
        -11    1    5    5    0    0 -0.10111602921E+03 -0.66685240475E+02  0.45134387757E+03  0.46731431444E+03  0.00000000000E+00 0.  1.
          1    1    6    6  503    0  0.30897185419E+03 -0.86076513836E+02  0.36113730432E+03  0.48300406364E+03  0.00000000000E+00 0. -1.
         -1    1    6    6    0  503  0.13112050183E+03  0.88014838121E+01  0.95756714458E+02  0.16260196948E+03  0.00000000000E+00 0.  1.
<mgrwt>
<rscale>  0 0.19803243E+04</rscale>
<asrwt>0</asrwt>
<pdfrwt beam="1">  1        1 0.77267677E-01 0.19803243E+04</pdfrwt>
<pdfrwt beam="2">  1       -2 0.30032263E+00 0.19803243E+04</pdfrwt>
<totfact> 0.11348415E+00</totfact>
</mgrwt>
</event>
<event>
12    4  0.4207946E-008  0.1272351E+04  0.7818608E-02  0.9051783E-01
          1   -1    0    0  501    0  0.00000000000E+00  0.00000000000E+00  0.15737746624E+04  0.15737746624E+04  0.00000000000E+00 0. -1.
         -2   -1    0    0    0  501 -0.00000000000E+00 -0.00000000000E+00 -0.25716463046E+03  0.25716463046E+03  0.00000000000E+00 0.  1.
        -24    2    1    2    0    0  0.14332551247E+03  0.18381077887E+03  0.62758970467E+03  0.67426368291E+03  0.80212665710E+02 0.  0.
        254    2    1    2    0    0 -0.14332551247E+03 -0.18381077887E+03  0.68902032725E+03  0.11566756099E+04  0.89934467824E+03 0.  0.
         23    2    4    4    0    0  0.27218109094E+03 -0.68263830389E+02  0.65077778651E+03  0.71439854590E+03  0.90061413315E+02 0.  0.
         23    2    4    4    0    0 -0.41550660340E+03 -0.11554694848E+03  0.38242540749E+02  0.44227706403E+03  0.90275548552E+02 0.  0.
          1    1    3    3  502    0  0.22526258746E+02 -0.16417491161E+01  0.34626590613E+02  0.41341606775E+02  0.00000000000E+00 0. -1.
         -2    1    3    3    0  502  0.12079925372E+03  0.18545252798E+03  0.59296311405E+03  0.63292207614E+03  0.00000000000E+00 0.  1.
         11    1    5    5    0    0  0.20287550322E+03 -0.31747423002E+02  0.37302262158E+03  0.42580775578E+03  0.00000000000E+00 0.  1.
        -11    1    5    5    0    0  0.69305587722E+02 -0.36516407388E+02  0.27775516492E+03  0.28859079011E+03  0.00000000000E+00 0. -1.
          1    1    6    6  503    0 -0.35934624187E+02 -0.15124165015E+02  0.30614997534E+02  0.49571318894E+02  0.00000000000E+00 0. -1.
         -1    1    6    6    0  503 -0.37957197922E+03 -0.10042278346E+03  0.76275432152E+01  0.39270574513E+03  0.00000000000E+00 0.  1.
<mgrwt>
<rscale>  0 0.12723509E+04</rscale>
<asrwt>0</asrwt>
<pdfrwt beam="1">  1        1 0.24211917E+00 0.12723509E+04</pdfrwt>
<pdfrwt beam="2">  1       -2 0.39563790E-01 0.12723509E+04</pdfrwt>
<totfact> 0.30368254E+01</totfact>
</mgrwt>
</event>
<event>
12    4  0.4207946E-008  0.3275027E+04  0.7818608E-02  0.8169279E-01
         -2   -1    0    0    0  501 -0.00000000000E+00  0.00000000000E+00  0.16086139303E+04  0.16086139303E+04  0.00000000000E+00 0.  1.
          1   -1    0    0  501    0  0.00000000000E+00 -0.00000000000E+00 -0.16669322122E+04  0.16669322122E+04  0.00000000000E+00 0. -1.
        -24    2    1    2    0    0 -0.13195095612E+04  0.46451354302E+03 -0.60270594721E+03  0.15252487081E+04  0.79062310284E+02 0.  0.
        254    2    1    2    0    0  0.13195095612E+04 -0.46451354302E+03  0.54438766533E+03  0.17502974344E+04  0.90016935360E+03 0.  0.
         23    2    4    4    0    0  0.90967534353E+03 -0.72167753571E+03  0.31237920210E+03  0.12061266251E+04  0.93983901624E+02 0.  0.
         23    2    4    4    0    0  0.40983421766E+03  0.25716399269E+03  0.23200846323E+03  0.54417080932E+03  0.90534731507E+02 0.  0.
          3    1    3    3  502    0 -0.10772082160E+04  0.37871760720E+03 -0.45798978367E+03  0.12302679418E+04  0.00000000000E+00 0. -1.
         -2    1    3    3    0  502 -0.24230134517E+03  0.85795935823E+02 -0.14471616354E+03  0.29498076626E+03  0.00000000000E+00 0.  1.
         11    1    5    5    0    0  0.75354546214E+03 -0.63857179856E+03  0.27585392303E+03  0.10255243012E+04  0.00000000000E+00 0. -1.
        -11    1    5    5    0    0  0.15612988139E+03 -0.83105737148E+02  0.36525279075E+02  0.18060232396E+03  0.00000000000E+00 0.  1.
          2    1    6    6  503    0  0.21244998642E+03  0.14748684308E+03  0.75481092174E+02  0.26941559140E+03  0.00000000000E+00 0. -1.
         -2    1    6    6    0  503  0.19738423124E+03  0.10967714961E+03  0.15652737106E+03  0.27475521793E+03  0.00000000000E+00 0.  1.
<mgrwt>
<rscale>  0 0.32750269E+04</rscale>
<asrwt>0</asrwt>
<pdfrwt beam="1">  1        1 0.25645111E+00 0.32750269E+04</pdfrwt>
<pdfrwt beam="2">  1       -2 0.24747907E+00 0.32750269E+04</pdfrwt>
<totfact> 0.24425583E-01</totfact>
</mgrwt>
</event>
<event>
12    4  0.4207946E-008  0.1260534E+04  0.7818608E-02  0.9061461E-01
          1   -1    0    0  501    0  0.00000000000E+00  0.00000000000E+00  0.19812792308E+04  0.19812792308E+04  0.00000000000E+00 0. -1.
         -2   -1    0    0    0  501 -0.00000000000E+00 -0.00000000000E+00 -0.20049494848E+03  0.20049494848E+03  0.00000000000E+00 0.  1.
        -24    2    1    2    0    0  0.29681262599E+02 -0.77817323843E+02 -0.63248788781E+02  0.12907074642E+03  0.75646117275E+02 0.  0.
        254    2    1    2    0    0 -0.29681262599E+02  0.77817323843E+02  0.18440330711E+04  0.20527034329E+04  0.89788468233E+03 0.  0.
         23    2    4    4    0    0 -0.25646772592E+03 -0.12874988376E+03  0.16560991866E+03  0.34400836565E+03  0.92535849659E+02 0.  0.
         23    2    4    4    0    0  0.22678646332E+03  0.20656720760E+03  0.16784231524E+04  0.17086950672E+04  0.91828333716E+02 0.  0.
          1    1    3    3  502    0 -0.15833429380E+02 -0.55415068732E+01  0.72948645194E+01  0.18292644224E+02  0.00000000000E+00 0. -1.
         -2    1    3    3    0  502  0.45514691979E+02 -0.72275816970E+02 -0.70543653300E+02  0.11077810219E+03  0.00000000000E+00 0.  1.
         11    1    5    5    0    0 -0.21338470899E+03 -0.12243832311E+03  0.10065967457E+03  0.26581299269E+03  0.00000000000E+00 0.  1.
        -11    1    5    5    0    0 -0.43083016934E+02 -0.63115606458E+01  0.64950244086E+02  0.78195372963E+02  0.00000000000E+00 0. -1.
          1    1    6    6  503    0  0.69731897170E+02  0.33187744174E+02  0.26426230491E+03  0.27531532765E+03  0.00000000000E+00 0. -1.
         -1    1    6    6    0  503  0.15705456615E+03  0.17337946343E+03  0.14141608475E+04  0.14333797396E+04  0.00000000000E+00 0.  1.
<mgrwt>
<rscale>  0 0.12605340E+04</rscale>
<asrwt>0</asrwt>
<pdfrwt beam="1">  1        1 0.30481218E+00 0.12605340E+04</pdfrwt>
<pdfrwt beam="2">  1       -2 0.30845378E-01 0.12605340E+04</pdfrwt>
<totfact> 0.25874342E+01</totfact>
</mgrwt>
</event>
<event>
12    4  0.4207946E-008  0.1716821E+04  0.7818608E-02  0.8751829E-01
          1   -1    0    0  501    0  0.00000000000E+00  0.00000000000E+00  0.96845393239E+03  0.96845393239E+03  0.00000000000E+00 0. -1.
         -2   -1    0    0    0  501 -0.00000000000E+00 -0.00000000000E+00 -0.76087095633E+03  0.76087095633E+03  0.00000000000E+00 0.  1.
        -24    2    1    2    0    0 -0.30931996436E+03 -0.61683549911E+02  0.61486479945E+03  0.69582420527E+03  0.81418071420E+02 0.  0.
        254    2    1    2    0    0  0.30931996436E+03  0.61683549911E+02 -0.40728182339E+03  0.10335006835E+04  0.89596957446E+03 0.  0.
         23    2    4    4    0    0 -0.38631387851E+02  0.41037937341E+03 -0.30894220738E+03  0.52330623563E+03  0.92198234809E+02 0.  0.
         23    2    4    4    0    0  0.34795135221E+03 -0.34869582350E+03 -0.98339616007E+02  0.51019444782E+03  0.89267987990E+02 0.  0.
          1    1    3    3  502    0 -0.29765613295E+03 -0.40927962964E+02  0.54982120646E+03  0.62656015729E+03  0.00000000000E+00 0. -1.
         -2    1    3    3    0  502 -0.11663831408E+02 -0.20755586947E+02  0.65043592994E+02  0.69264047977E+02  0.00000000000E+00 0.  1.
         11    1    5    5    0    0 -0.58828042614E+01  0.74322616877E+01 -0.31733814584E+02  0.33119192138E+02  0.00000000000E+00 0.  1.
        -11    1    5    5    0    0 -0.32748583590E+02  0.40294711172E+03 -0.27720839280E+03  0.49018704349E+03  0.00000000000E+00 0. -1.
          3    1    6    6  503    0  0.19642836986E+03 -0.23338656538E+03 -0.95915153346E+02  0.31977040205E+03  0.00000000000E+00 0. -1.
         -3    1    6    6    0  503  0.15152298235E+03 -0.11530925812E+03 -0.24244626604E+01  0.19042404577E+03  0.00000000000E+00 0.  1.
<mgrwt>
<rscale>  0 0.17168209E+04</rscale>
<asrwt>0</asrwt>
<pdfrwt beam="1">  1        1 0.14899291E+00 0.17168209E+04</pdfrwt>
<pdfrwt beam="2">  1       -2 0.11705707E+00 0.17168209E+04</pdfrwt>
<totfact> 0.75349280E+00</totfact>
</mgrwt>
</event>
<event>
12    4  0.4207946E-008  0.1818296E+04  0.7818608E-02  0.8696630E-01
         -2   -1    0    0    0  501 -0.00000000000E+00  0.00000000000E+00  0.35334542904E+03  0.35334542904E+03  0.00000000000E+00 0.  1.
          1   -1    0    0  501    0  0.00000000000E+00 -0.00000000000E+00 -0.23392133453E+04  0.23392133453E+04  0.00000000000E+00 0. -1.
        -24    2    1    2    0    0  0.53807060075E+03 -0.40987943437E+03 -0.92669616775E+03  0.11500509165E+04  0.79562561262E+02 0.  0.
        254    2    1    2    0    0 -0.53807060075E+03  0.40987943437E+03 -0.10591717485E+04  0.15425078578E+04  0.89440738843E+03 0.  0.
         23    2    4    4    0    0  0.11894460060E+03  0.22837455467E+03 -0.73140677760E+03  0.78073899110E+03  0.91075477905E+02 0.  0.
         23    2    4    4    0    0 -0.65701520136E+03  0.18150487970E+03 -0.32776497094E+03  0.76176886674E+03  0.90823642213E+02 0.  0.
          3    1    3    3  502    0  0.40283818177E+03 -0.29232957640E+03 -0.73480232262E+03  0.88750754096E+03  0.00000000000E+00 0. -1.
         -4    1    3    3    0  502  0.13523241899E+03 -0.11754985797E+03 -0.19189384512E+03  0.26254337556E+03  0.00000000000E+00 0.  1.
         11    1    5    5    0    0  0.14752011842E+02  0.12630891770E+03 -0.35141847625E+03  0.37371982821E+03  0.00000000000E+00 0.  1.
        -11    1    5    5    0    0  0.10419258876E+03  0.10206563697E+03 -0.37998830135E+03  0.40701916290E+03  0.00000000000E+00 0. -1.
          3    1    6    6  503    0 -0.63802278785E+03  0.16970105833E+03 -0.33204240967E+03  0.73900181924E+03  0.00000000000E+00 0. -1.
         -3    1    6    6    0  503 -0.18992413505E+02  0.11803821372E+02  0.42774387311E+01  0.22767047499E+02  0.00000000000E+00 0.  1.
<mgrwt>
<rscale>  0 0.18182963E+04</rscale>
<asrwt>0</asrwt>
<pdfrwt beam="1">  1        1 0.35987899E+00 0.18182963E+04</pdfrwt>
<pdfrwt beam="2">  1       -2 0.54360834E-01 0.18182963E+04</pdfrwt>
<totfact> 0.46136633E+00</totfact>
</mgrwt>
</event>
<event>
12    4  0.4207946E-008  0.1856181E+04  0.7818608E-02  0.8676981E-01
          1   -1    0    0  501    0  0.00000000000E+00  0.00000000000E+00  0.47052953005E+04  0.47052953005E+04  0.00000000000E+00 0. -1.
         -2   -1    0    0    0  501 -0.00000000000E+00 -0.00000000000E+00 -0.18306005526E+03  0.18306005526E+03  0.00000000000E+00 0.  1.
        -24    2    1    2    0    0  0.27329484482E+03  0.59445359693E+03  0.25894321452E+04  0.26720867793E+04  0.82606117302E+02 0.  0.
        254    2    1    2    0    0 -0.27329484482E+03 -0.59445359693E+03  0.19328031001E+04  0.22162685765E+04  0.86490081988E+03 0.  0.
         23    2    4    4    0    0 -0.18388844162E+03 -0.79375425745E+03  0.16843761994E+04  0.18732338172E+04  0.89559882822E+02 0.  0.
         23    2    4    4    0    0 -0.89406403206E+02  0.19930066052E+03  0.24842690065E+03  0.34303475924E+03  0.90789112020E+02 0.  0.
          1    1    3    3  502    0  0.18915263338E+03  0.49009396716E+03  0.20791895132E+04  0.21445278844E+04  0.00000000000E+00 0. -1.
         -2    1    3    3    0  502  0.84142211439E+02  0.10435962977E+03  0.51024263199E+03  0.52755889489E+03  0.00000000000E+00 0.  1.
         11    1    5    5    0    0 -0.14180542189E+03 -0.61919014874E+03  0.12225674594E+04  0.13777432310E+04  0.00000000000E+00 0. -1.
        -11    1    5    5    0    0 -0.42083019724E+02 -0.17456410871E+03  0.46180874008E+03  0.49549058620E+03  0.00000000000E+00 0.  1.
          3    1    6    6  503    0 -0.31610141719E+02  0.16644170392E+03  0.16666195087E+03  0.23765152583E+03  0.00000000000E+00 0. -1.
         -3    1    6    6    0  503 -0.57796261487E+02  0.32858956603E+02  0.81764949777E+02  0.10538323341E+03  0.00000000000E+00 0.  1.
<mgrwt>
<rscale>  0 0.18561806E+04</rscale>
<asrwt>0</asrwt>
<pdfrwt beam="1">  1        1 0.72389149E+00 0.18561806E+04</pdfrwt>
<pdfrwt beam="2">  1       -2 0.28163089E-01 0.18561806E+04</pdfrwt>
<totfact> 0.18868768E-01</totfact>
</mgrwt>
</event>
<event>
12    4  0.4207946E-008  0.1741238E+04  0.7818608E-02  0.8738188E-01
         -2   -1    0    0    0  501 -0.00000000000E+00  0.00000000000E+00  0.20536873213E+03  0.20536873213E+03  0.00000000000E+00 0.  1.
          1   -1    0    0  501    0  0.00000000000E+00 -0.00000000000E+00 -0.36908133745E+04  0.36908133745E+04  0.00000000000E+00 0. -1.
        -24    2    1    2    0    0 -0.12496952794E+03 -0.37033837766E+03 -0.23916218846E+04  0.24246422376E+04  0.79163404786E+02 0.  0.
        254    2    1    2    0    0  0.12496952794E+03  0.37033837766E+03 -0.10938227578E+04  0.14715398690E+04  0.90344532972E+03 0.  0.
         23    2    4    4    0    0 -0.12099580613E+03 -0.14882443476E+03 -0.78459517972E+03  0.81263636620E+03  0.89440316100E+02 0.  0.
         23    2    4    4    0    0  0.24596533407E+03  0.51916281242E+03 -0.30922757804E+03  0.65890350281E+03  0.92212578472E+02 0.  0.
          1    1    3    3  502    0 -0.12985462497E+03 -0.35874134550E+03 -0.23594535818E+04  0.23901001613E+04  0.00000000000E+00 0. -1.
         -2    1    3    3    0  502  0.48850970346E+01 -0.11597032162E+02 -0.32168302777E+02  0.34542076249E+02  0.00000000000E+00 0.  1.
         11    1    5    5    0    0 -0.39797112876E+02 -0.87808056168E+01 -0.27342996979E+03  0.27645046775E+03  0.00000000000E+00 0. -1.
        -11    1    5    5    0    0 -0.81198693257E+02 -0.14004362914E+03 -0.51116520993E+03  0.53618589845E+03  0.00000000000E+00 0.  1.
          4    1    6    6  503    0  0.38143859900E+02  0.80959366525E+02 -0.12550319325E+02  0.90370811612E+02  0.00000000000E+00 0. -1.
         -4    1    6    6    0  503  0.20782147417E+03  0.43820344590E+03 -0.29667725872E+03  0.56853269120E+03  0.00000000000E+00 0.  1.
<mgrwt>
<rscale>  0 0.17412383E+04</rscale>
<asrwt>0</asrwt>
<pdfrwt beam="1">  1        1 0.56781745E+00 0.17412383E+04</pdfrwt>
<pdfrwt beam="2">  1       -2 0.31595189E-01 0.17412383E+04</pdfrwt>
<totfact> 0.13732657E+00</totfact>
</mgrwt>
</event>
<event>
12    4  0.4207946E-008  0.1755069E+04  0.7818608E-02  0.8730565E-01
          1   -1    0    0  501    0  0.00000000000E+00  0.00000000000E+00  0.11805791946E+04  0.11805791946E+04  0.00000000000E+00 0. -1.
         -2   -1    0    0    0  501 -0.00000000000E+00 -0.00000000000E+00 -0.65227856148E+03  0.65227856148E+03  0.00000000000E+00 0.  1.
        -24    2    1    2    0    0 -0.47607436998E+03 -0.23665051330E+03 -0.22501602614E+03  0.58266932837E+03  0.78873715547E+02 0.  0.
        254    2    1    2    0    0  0.47607436998E+03  0.23665051330E+03  0.75331665931E+03  0.12501884278E+04  0.84429547228E+03 0.  0.
         23    2    4    4    0    0 -0.14608027000E+03  0.35930648220E+02  0.51995702055E+03  0.54990811964E+03  0.97021544362E+02 0.  0.
         23    2    4    4    0    0  0.62215463998E+03  0.20071986508E+03  0.23335963876E+03  0.70028030811E+03  0.92579310006E+02 0.  0.
          1    1    3    3  502    0 -0.43284723031E+02 -0.49478676038E+02 -0.22407596915E+02  0.69453632229E+02  0.00000000000E+00 0. -1.
         -2    1    3    3    0  502 -0.43278964695E+03 -0.18717183726E+03 -0.20260842923E+03  0.51321569614E+03  0.00000000000E+00 0.  1.
         11    1    5    5    0    0 -0.11948485177E+03  0.32950164456E+02  0.25420309820E+03  0.28281010992E+03  0.00000000000E+00 0.  1.
        -11    1    5    5    0    0 -0.26595418228E+02  0.29804837644E+01  0.26575392235E+03  0.26709800972E+03  0.00000000000E+00 0. -1.
          3    1    6    6  503    0  0.59128953948E+03  0.19200500449E+03  0.19779311008E+03  0.65238896039E+03  0.00000000000E+00 0. -1.
         -3    1    6    6    0  503  0.30865100498E+02  0.87148605893E+01  0.35566528679E+02  0.47891347717E+02  0.00000000000E+00 0.  1.
<mgrwt>
<rscale>  0 0.17550687E+04</rscale>
<asrwt>0</asrwt>
<pdfrwt beam="1">  1        1 0.18162757E+00 0.17550687E+04</pdfrwt>
<pdfrwt beam="2">  1       -2 0.10035055E+00 0.17550687E+04</pdfrwt>
<totfact> 0.75150137E+00</totfact>
</mgrwt>
</event>
<event>
12    4  0.4207946E-008  0.2916803E+04  0.7818608E-02  0.8267896E-01
          1   -1    0    0  501    0  0.00000000000E+00  0.00000000000E+00  0.32678139472E+04  0.32678139472E+04  0.00000000000E+00 0. -1.
         -2   -1    0    0    0  501 -0.00000000000E+00 -0.00000000000E+00 -0.65087400306E+03  0.65087400306E+03  0.00000000000E+00 0.  1.
        -24    2    1    2    0    0 -0.50473690942E+03 -0.94432683569E+03  0.15574069493E+03  0.10849584196E+04  0.79794033715E+02 0.  0.
        254    2    1    2    0    0  0.50473690942E+03  0.94432683569E+03  0.24611992492E+04  0.28337295307E+04  0.90885025634E+03 0.  0.
         23    2    4    4    0    0  0.45406233861E+03  0.54401972796E+03  0.61756422712E+03  0.94425889908E+03  0.90051219455E+02 0.  0.
         23    2    4    4    0    0  0.50674570809E+02  0.40030710773E+03  0.18436350221E+04  0.18894706316E+04  0.91079527911E+02 0.  0.
          3    1    3    3  502    0 -0.15895222333E+03 -0.25597260170E+03  0.74343744968E+02  0.31034621722E+03  0.00000000000E+00 0. -1.
         -4    1    3    3    0  502 -0.34578468608E+03 -0.68835423399E+03  0.81396949964E+02  0.77461220236E+03  0.00000000000E+00 0.  1.
         11    1    5    5    0    0  0.44864392675E+03  0.54630798777E+03  0.61707328947E+03  0.93835666731E+03  0.00000000000E+00 0.  1.
        -11    1    5    5    0    0  0.54184118574E+01 -0.22882598120E+01  0.49093764209E+00  0.59022317637E+01  0.00000000000E+00 0. -1.
          3    1    6    6  503    0  0.69532165554E+02  0.25729524812E+03  0.10861189591E+04  0.11183425057E+04  0.00000000000E+00 0. -1.
         -3    1    6    6    0  503 -0.18857594745E+02  0.14301185961E+03  0.75751606298E+03  0.77112812590E+03  0.00000000000E+00 0.  1.
<mgrwt>
<rscale>  0 0.29168031E+04</rscale>
<asrwt>0</asrwt>
<pdfrwt beam="1">  1        1 0.50274060E+00 0.29168031E+04</pdfrwt>
<pdfrwt beam="2">  1       -2 0.10013446E+00 0.29168031E+04</pdfrwt>
<totfact> 0.23450890E-01</totfact>
</mgrwt>
</event>
<event>
12    4  0.4207946E-008  0.1271807E+04  0.7818608E-02  0.9052226E-01
          1   -1    0    0  501    0  0.00000000000E+00  0.00000000000E+00  0.16795022695E+04  0.16795022695E+04  0.00000000000E+00 0. -1.
         -2   -1    0    0    0  501 -0.00000000000E+00 -0.00000000000E+00 -0.24076973899E+03  0.24076973899E+03  0.00000000000E+00 0.  1.
        -24    2    1    2    0    0  0.10809671419E+03 -0.22889011635E+02  0.79361985648E+03  0.80534564509E+03  0.80872275788E+02 0.  0.
        254    2    1    2    0    0 -0.10809671419E+03  0.22889011635E+02  0.64511267403E+03  0.11149263634E+04  0.90259715663E+03 0.  0.
         23    2    4    4    0    0 -0.16831029731E+03  0.64565882296E+02  0.85287872547E+03  0.87673872592E+03  0.93656627305E+02 0.  0.
         23    2    4    4    0    0  0.60213583121E+02 -0.41676870661E+02 -0.20776605144E+03  0.23818763749E+03  0.90575832208E+02 0.  0.
          3    1    3    3  502    0  0.78728066093E+02 -0.51837188660E+02  0.60236078027E+03  0.60969148930E+03  0.00000000000E+00 0. -1.
         -4    1    3    3    0  502  0.29368648094E+02  0.28948177025E+02  0.19125907621E+03  0.19565415579E+03  0.00000000000E+00 0.  1.
         11    1    5    5    0    0 -0.16397705884E+03  0.82328939920E+02  0.80054017297E+03  0.82129842245E+03  0.00000000000E+00 0.  1.
        -11    1    5    5    0    0 -0.43332384628E+01 -0.17763057624E+02  0.52338552497E+02  0.55440303473E+02  0.00000000000E+00 0. -1.
          4    1    6    6  503    0  0.68319027576E+02  0.28914846616E+01 -0.98549769018E+02  0.11994960269E+03  0.00000000000E+00 0. -1.
         -4    1    6    6    0  503 -0.81054444555E+01 -0.44568355323E+02 -0.10921628242E+03  0.11823803479E+03  0.00000000000E+00 0.  1.
<mgrwt>
<rscale>  0 0.12718071E+04</rscale>
<asrwt>0</asrwt>
<pdfrwt beam="1">  1        1 0.25838496E+00 0.12718071E+04</pdfrwt>
<pdfrwt beam="2">  1       -2 0.37041499E-01 0.12718071E+04</pdfrwt>
<totfact> 0.29221380E+01</totfact>
</mgrwt>
</event>
<event>
12    4  0.4207946E-008  0.2454849E+04  0.7818608E-02  0.8419250E-01
         -2   -1    0    0    0  501 -0.00000000000E+00  0.00000000000E+00  0.65783441768E+03  0.65783441768E+03  0.00000000000E+00 0.  1.
          1   -1    0    0  501    0  0.00000000000E+00 -0.00000000000E+00 -0.22901973002E+04  0.22901973002E+04  0.00000000000E+00 0. -1.
        -24    2    1    2    0    0  0.27671159321E+02 -0.71487465791E+03 -0.16508460883E+04  0.18009259164E+04  0.78929587869E+02 0.  0.
        254    2    1    2    0    0 -0.27671159321E+02  0.71487465791E+03  0.18483205775E+02  0.11471058014E+04  0.89649239881E+03 0.  0.
         23    2    4    4    0    0  0.19818170397E+03  0.47020924149E+03 -0.36226617346E+03  0.63239771187E+03  0.91199599603E+02 0.  0.
         23    2    4    4    0    0 -0.22585286329E+03  0.24466541642E+03  0.38074937924E+03  0.51470808953E+03  0.95308162259E+02 0.  0.
          3    1    3    3  502    0  0.35470853774E+02 -0.57272153033E+03 -0.12461217731E+04  0.13718919805E+04  0.00000000000E+00 0. -1.
         -4    1    3    3    0  502 -0.77996944527E+01 -0.14215312758E+03 -0.40472431515E+03  0.42903393594E+03  0.00000000000E+00 0.  1.
         11    1    5    5    0    0  0.11144651208E+01  0.54733914733E+02 -0.16869497498E+02  0.57285455399E+02  0.00000000000E+00 0. -1.
        -11    1    5    5    0    0  0.19706723885E+03  0.41547532676E+03 -0.34539667596E+03  0.57511225647E+03  0.00000000000E+00 0.  1.
          2    1    6    6  503    0 -0.81068494092E+02  0.92561506112E+02  0.21279971394E+03  0.24581182112E+03  0.00000000000E+00 0. -1.
         -2    1    6    6    0  503 -0.14478436920E+03  0.15210391030E+03  0.16794966530E+03  0.26889626841E+03  0.00000000000E+00 0.  1.
<mgrwt>
<rscale>  0 0.24548488E+04</rscale>
<asrwt>0</asrwt>
<pdfrwt beam="1">  1        1 0.35233804E+00 0.24548488E+04</pdfrwt>
<pdfrwt beam="2">  1       -2 0.10120530E+00 0.24548488E+04</pdfrwt>
<totfact> 0.11893377E+00</totfact>
</mgrwt>
</event>
<event>
12    4  0.4207946E-008  0.1887890E+04  0.7818608E-02  0.8660908E-01
         -2   -1    0    0    0  501 -0.00000000000E+00  0.00000000000E+00  0.46782939599E+03  0.46782939599E+03  0.00000000000E+00 0.  1.
          1   -1    0    0  501    0  0.00000000000E+00 -0.00000000000E+00 -0.19046083293E+04  0.19046083293E+04  0.00000000000E+00 0. -1.
        -24    2    1    2    0    0  0.32887697747E+03  0.27065322211E+03 -0.12948324354E+04  0.13654504806E+04  0.80316539200E+02 0.  0.
        254    2    1    2    0    0 -0.32887697747E+03 -0.27065322211E+03 -0.14194649795E+03  0.10069872447E+04  0.90136633489E+03 0.  0.
         23    2    4    4    0    0  0.84692314936E+02 -0.10695277099E+03  0.31923915607E+03  0.35943612152E+03  0.93107482267E+02 0.  0.
         23    2    4    4    0    0 -0.41356929241E+03 -0.16370045113E+03 -0.46118565401E+03  0.64755112314E+03  0.93770210031E+02 0.  0.
          3    1    3    3  502    0  0.29217998662E+03  0.26065092089E+03 -0.12233045063E+04  0.12844383840E+04  0.00000000000E+00 0. -1.
         -4    1    3    3    0  502  0.36696990856E+02  0.10002301226E+02 -0.71527929058E+02  0.81012096646E+02  0.00000000000E+00 0.  1.
         11    1    5    5    0    0  0.10053533415E+03 -0.98075382982E+02  0.23940479117E+03  0.27756222400E+03  0.00000000000E+00 0. -1.
        -11    1    5    5    0    0 -0.15843019210E+02 -0.88773880048E+01  0.79834364899E+02  0.81873897515E+02  0.00000000000E+00 0.  1.
          1    1    6    6  503    0 -0.24318948426E+03 -0.56135221837E+02 -0.21499069969E+03  0.32941355367E+03  0.00000000000E+00 0. -1.
         -1    1    6    6    0  503 -0.17037980815E+03 -0.10756522929E+03 -0.24619495432E+03  0.31813756947E+03  0.00000000000E+00 0.  1.
<mgrwt>
<rscale>  0 0.18878896E+04</rscale>
<asrwt>0</asrwt>
<pdfrwt beam="1">  1        1 0.29301666E+00 0.18878896E+04</pdfrwt>
<pdfrwt beam="2">  1       -2 0.71973754E-01 0.18878896E+04</pdfrwt>
<totfact> 0.49751192E+00</totfact>
</mgrwt>
</event>
<event>
12    4  0.4207946E-008  0.1272089E+04  0.7818608E-02  0.9051996E-01
          3   -1    0    0  501    0  0.00000000000E+00  0.00000000000E+00  0.17641407190E+03  0.17641407190E+03  0.00000000000E+00 0. -1.
         -4   -1    0    0    0  501 -0.00000000000E+00 -0.00000000000E+00 -0.22931992052E+04  0.22931992052E+04  0.00000000000E+00 0.  1.
        -24    2    1    2    0    0 -0.31630897878E+03 -0.11009182744E+02 -0.45694297339E+03  0.56181165745E+03  0.81626499099E+02 0.  0.
        254    2    1    2    0    0  0.31630897878E+03  0.11009182744E+02 -0.16598421599E+04  0.19078016196E+04  0.88569659137E+03 0.  0.
         23    2    4    4    0    0 -0.27757131188E+03 -0.92681520535E+02 -0.36390407230E+03  0.47563527275E+03  0.90371684789E+02 0.  0.
         23    2    4    4    0    0  0.59388029066E+03  0.10369070328E+03 -0.12959380876E+04  0.14321663469E+04  0.90550299413E+02 0.  0.
          3    1    3    3  502    0 -0.94697077832E+02  0.16191787287E+02 -0.86447871715E+02  0.12923987407E+03  0.00000000000E+00 0. -1.
         -4    1    3    3    0  502 -0.22161190095E+03 -0.27200970031E+02 -0.37049510167E+03  0.43257178338E+03  0.00000000000E+00 0.  1.
         11    1    5    5    0    0  0.48436658048E+01 -0.72006629724E+01 -0.24117702456E+01  0.90070684125E+01  0.00000000000E+00 0.  1.
        -11    1    5    5    0    0 -0.28241497769E+03 -0.85480857562E+02 -0.36149230206E+03  0.46662820433E+03  0.00000000000E+00 0. -1.
          4    1    6    6  503    0  0.59186488408E+03  0.94732067651E+02 -0.12847267792E+04  0.14176745405E+04  0.00000000000E+00 0. -1.
         -4    1    6    6    0  503  0.20154065862E+01  0.89586356281E+01 -0.11211308355E+02  0.14491806342E+02  0.00000000000E+00 0.  1.
<mgrwt>
<rscale>  0 0.12720890E+04</rscale>
<asrwt>0</asrwt>
<pdfrwt beam="1">  1        3 0.27140627E-01 0.12720890E+04</pdfrwt>
<pdfrwt beam="2">  1       -4 0.35279987E+00 0.12720890E+04</pdfrwt>
<totfact> 0.42542545E-01</totfact>
</mgrwt>
</event>
<event>
12    4  0.4207946E-008  0.1538899E+04  0.7818608E-02  0.8858990E-01
          1   -1    0    0  501    0  0.00000000000E+00  0.00000000000E+00  0.28709146680E+04  0.28709146680E+04  0.00000000000E+00 0. -1.
         -2   -1    0    0    0  501 -0.00000000000E+00 -0.00000000000E+00 -0.20622428332E+03  0.20622428332E+03  0.00000000000E+00 0.  1.
        -24    2    1    2    0    0  0.28370081080E+03 -0.30136371184E+02  0.52624675822E+02  0.30144487533E+03  0.81885929462E+02 0.  0.
        254    2    1    2    0    0 -0.28370081080E+03  0.30136371184E+02  0.26120657089E+04  0.27756940760E+04  0.89453674333E+03 0.  0.
         23    2    4    4    0    0 -0.55797009072E+03  0.16525083894E+03  0.19986425268E+04  0.20835049986E+04  0.88219427080E+02 0.  0.
         23    2    4    4    0    0  0.27426927993E+03 -0.13511446775E+03  0.61342318210E+03  0.69218907743E+03  0.96737589793E+02 0.  0.
          3    1    3    3  502    0  0.52940911664E+02  0.25981393814E+02  0.16417093160E+02  0.61215144369E+02  0.00000000000E+00 0. -1.
         -4    1    3    3    0  502  0.23075989913E+03 -0.56117764999E+02  0.36207582663E+02  0.24022973096E+03  0.00000000000E+00 0.  1.
         11    1    5    5    0    0 -0.49666278223E+03  0.12654514894E+03  0.16661467916E+04  0.17431961236E+04  0.00000000000E+00 0. -1.
        -11    1    5    5    0    0 -0.61307308496E+02  0.38705689999E+02  0.33249573513E+03  0.34030887499E+03  0.00000000000E+00 0.  1.
          4    1    6    6  503    0  0.18224389814E+03 -0.11492321533E+03  0.33542922664E+03  0.39866395613E+03  0.00000000000E+00 0.  1.
         -4    1    6    6    0  503  0.92025381781E+02 -0.20191252422E+02  0.27799395546E+03  0.29352512131E+03  0.00000000000E+00 0. -1.
<mgrwt>
<rscale>  0 0.15388987E+04</rscale>
<asrwt>0</asrwt>
<pdfrwt beam="1">  1        1 0.44167915E+00 0.15388987E+04</pdfrwt>
<pdfrwt beam="2">  1       -2 0.31726815E-01 0.15388987E+04</pdfrwt>
<totfact> 0.58234174E+00</totfact>
</mgrwt>
</event>
<event>
12    4  0.4207946E-008  0.1865085E+04  0.7818608E-02  0.8672434E-01
          1   -1    0    0  501    0  0.00000000000E+00  0.00000000000E+00  0.88425864314E+03  0.88425864314E+03  0.00000000000E+00 0. -1.
         -2   -1    0    0    0  501 -0.00000000000E+00 -0.00000000000E+00 -0.98346284011E+03  0.98346284011E+03  0.00000000000E+00 0.  1.
        -24    2    1    2    0    0  0.13167086262E+03  0.65027502989E+03 -0.30050505343E+03  0.73280178386E+03  0.80624665740E+02 0.  0.
        254    2    1    2    0    0 -0.13167086262E+03 -0.65027502989E+03  0.20130085646E+03  0.11349196994E+04  0.89851313776E+03 0.  0.
         23    2    4    4    0    0  0.13867333956E+03 -0.22092559544E+03 -0.30453382029E+03  0.41234362193E+03  0.96166527563E+02 0.  0.
         23    2    4    4    0    0 -0.27034420218E+03 -0.42934943445E+03  0.50583467675E+03  0.72257607747E+03  0.93917746005E+02 0.  0.
          1    1    3    3  502    0  0.87845341903E+02  0.51153094239E+03 -0.26623325235E+03  0.58331882686E+03  0.00000000000E+00 0. -1.
         -2    1    3    3    0  502  0.43825520713E+02  0.13874408750E+03 -0.34271801079E+02  0.14948295700E+03  0.00000000000E+00 0.  1.
         11    1    5    5    0    0  0.30953690184E+02 -0.79248444419E+02 -0.41260244168E+02  0.94556092494E+02  0.00000000000E+00 0.  1.
        -11    1    5    5    0    0  0.10771964938E+03 -0.14167715102E+03 -0.26327357612E+03  0.31778752944E+03  0.00000000000E+00 0. -1.
          1    1    6    6  503    0 -0.27052150101E+03 -0.42469634166E+03  0.50973313606E+03  0.71650312988E+03  0.00000000000E+00 0. -1.
         -1    1    6    6    0  503  0.17729883670E+00 -0.46530927885E+01 -0.38984593126E+01  0.60729475865E+01  0.00000000000E+00 0.  1.
<mgrwt>
<rscale>  0 0.18650850E+04</rscale>
<asrwt>0</asrwt>
<pdfrwt beam="1">  1        1 0.13603979E+00 0.18650850E+04</pdfrwt>
<pdfrwt beam="2">  1       -2 0.15130198E+00 0.18650850E+04</pdfrwt>
<totfact> 0.45133946E+00</totfact>
</mgrwt>
</event>
<event>
12    4  0.4207946E-008  0.1619286E+04  0.7818608E-02  0.8808787E-01
          1   -1    0    0  501    0  0.00000000000E+00  0.00000000000E+00  0.61795403123E+03  0.61795403123E+03  0.00000000000E+00 0. -1.
         -2   -1    0    0    0  501 -0.00000000000E+00 -0.00000000000E+00 -0.10607940838E+04  0.10607940838E+04  0.00000000000E+00 0.  1.
        -24    2    1    2    0    0  0.28775820481E+03 -0.24881618920E+03  0.26971307629E+03  0.47313931418E+03  0.80008666125E+02 0.  0.
        254    2    1    2    0    0 -0.28775820481E+03  0.24881618920E+03 -0.71255312886E+03  0.12056088008E+04  0.89501192102E+03 0.  0.
         23    2    4    4    0    0 -0.48410580872E+03  0.12661115247E+03 -0.65509927957E+02  0.51251302819E+03  0.89382523106E+02 0.  0.
         23    2    4    4    0    0  0.19634760391E+03  0.12220503673E+03 -0.64704320090E+03  0.69309577265E+03  0.90721517139E+02 0.  0.
          3    1    3    3  502    0  0.28002500318E+03 -0.21925227093E+03  0.23212667794E+03  0.42469795776E+03  0.00000000000E+00 0. -1.
         -4    1    3    3    0  502  0.77332016343E+01 -0.29563918265E+02  0.37586398350E+02  0.48441356418E+02  0.00000000000E+00 0.  1.
         11    1    5    5    0    0 -0.20137654718E+03  0.15837075116E+02 -0.60944122141E+00  0.20199925278E+03  0.00000000000E+00 0.  1.
        -11    1    5    5    0    0 -0.28272926154E+03  0.11077407735E+03 -0.64900486736E+02  0.31051377541E+03  0.00000000000E+00 0. -1.
          3    1    6    6  503    0  0.37480698097E+02 -0.11600287872E+02 -0.13325203147E+03  0.13890814699E+03  0.00000000000E+00 0. -1.
         -3    1    6    6    0  503  0.15886690581E+03  0.13380532460E+03 -0.51379116943E+03  0.55418762566E+03  0.00000000000E+00 0.  1.
<mgrwt>
<rscale>  0 0.16192862E+04</rscale>
<asrwt>0</asrwt>
<pdfrwt beam="1">  1        1 0.95069852E-01 0.16192862E+04</pdfrwt>
<pdfrwt beam="2">  1       -2 0.16319909E+00 0.16192862E+04</pdfrwt>
<totfact> 0.65597856E+00</totfact>
</mgrwt>
</event>
<event>
12    4  0.4207946E-008  0.2319567E+04  0.7818608E-02  0.8470246E-01
         -2   -1    0    0    0  501 -0.00000000000E+00  0.00000000000E+00  0.70395257648E+03  0.70395257648E+03  0.00000000000E+00 0.  1.
          1   -1    0    0  501    0  0.00000000000E+00 -0.00000000000E+00 -0.19107795759E+04  0.19107795759E+04  0.00000000000E+00 0. -1.
        -24    2    1    2    0    0 -0.92414365437E+03  0.82851942095E+02 -0.85428757666E+03  0.12637940991E+04  0.80388575327E+02 0.  0.
        254    2    1    2    0    0  0.92414365437E+03 -0.82851942095E+02 -0.35253942280E+03  0.13509380533E+04  0.91642983426E+03 0.  0.
         23    2    4    4    0    0  0.75718314030E+03  0.22591941608E+03 -0.52088283251E+03  0.95075839444E+03  0.90866434275E+02 0.  0.
         23    2    4    4    0    0  0.16696051406E+03 -0.30877135818E+03  0.16834340971E+03  0.40017965890E+03  0.92675190394E+02 0.  0.
          3    1    3    3  502    0 -0.64692936251E+03  0.47140932033E+02 -0.64374258562E+03  0.91386234416E+03  0.00000000000E+00 0. -1.
         -4    1    3    3    0  502 -0.27721429186E+03  0.35711010062E+02 -0.21054499104E+03  0.34993175492E+03  0.00000000000E+00 0.  1.
         11    1    5    5    0    0  0.29355112548E+03  0.12362681737E+03 -0.24302986782E+03  0.40064868638E+03  0.00000000000E+00 0.  1.
        -11    1    5    5    0    0  0.46363201482E+03  0.10229259871E+03 -0.27785296469E+03  0.55010970806E+03  0.00000000000E+00 0. -1.
          4    1    6    6  503    0  0.11189084255E+02 -0.40126704651E+02  0.56320985096E+02  0.70052847157E+02  0.00000000000E+00 0. -1.
         -4    1    6    6    0  503  0.15577142981E+03 -0.26864465352E+03  0.11202242462E+03  0.33012681174E+03  0.00000000000E+00 0.  1.
<mgrwt>
<rscale>  0 0.23195674E+04</rscale>
<asrwt>0</asrwt>
<pdfrwt beam="1">  1        1 0.29396609E+00 0.23195674E+04</pdfrwt>
<pdfrwt beam="2">  1       -2 0.10830039E+00 0.23195674E+04</pdfrwt>
<totfact> 0.18527613E+00</totfact>
</mgrwt>
</event>
<event>
12    4  0.4207946E-008  0.2729468E+04  0.7818608E-02  0.8325506E-01
         -4   -1    0    0    0  501 -0.00000000000E+00  0.00000000000E+00  0.83748258465E+03  0.83748258465E+03  0.00000000000E+00 0.  1.
          3   -1    0    0  501    0  0.00000000000E+00 -0.00000000000E+00 -0.22239261020E+04  0.22239261020E+04  0.00000000000E+00 0. -1.
        -24    2    1    2    0    0 -0.57946170380E+03 -0.85451084263E+03  0.10142022624E+03  0.10405017128E+04  0.79956899573E+02 0.  0.
        254    2    1    2    0    0  0.57946170380E+03  0.85451084263E+03 -0.14878637436E+04  0.20209069738E+04  0.89686221404E+03 0.  0.
         23    2    4    4    0    0  0.28443509414E+03 -0.68705598720E+02 -0.92068746897E+02  0.31913998662E+03  0.88033486983E+02 0.  0.
         23    2    4    4    0    0  0.29502660965E+03  0.92321644135E+03 -0.13957949967E+04  0.17017669872E+04  0.91640099876E+02 0.  0.
          1    1    3    3  502    0 -0.51238804784E+03 -0.75759737759E+03  0.63975189835E+02  0.91683593026E+03  0.00000000000E+00 0. -1.
         -2    1    3    3    0  502 -0.67073655958E+02 -0.96913465042E+02  0.37445036404E+02  0.12366578258E+03  0.00000000000E+00 0.  1.
         11    1    5    5    0    0  0.27717757980E+03 -0.73542660464E+02 -0.69679767028E+02  0.29511218813E+03  0.00000000000E+00 0.  1.
        -11    1    5    5    0    0  0.72575143474E+01  0.48370617442E+01 -0.22388979869E+02  0.24027798493E+02  0.00000000000E+00 0. -1.
          3    1    6    6  503    0  0.13717723662E+03  0.29903798840E+03 -0.44174711044E+03  0.55080107329E+03  0.00000000000E+00 0. -1.
         -3    1    6    6    0  503  0.15784937303E+03  0.62417845295E+03 -0.95404788627E+03  0.11509659139E+04  0.00000000000E+00 0.  1.
<mgrwt>
<rscale>  0 0.27294684E+04</rscale>
<asrwt>0</asrwt>
<pdfrwt beam="1">  1        3 0.34214248E+00 0.27294684E+04</pdfrwt>
<pdfrwt beam="2">  1       -4 0.12884347E+00 0.27294684E+04</pdfrwt>
<totfact> 0.20119661E-02</totfact>
</mgrwt>
</event>
<event>
12    4  0.4207946E-008  0.1915038E+04  0.7818608E-02  0.8647407E-01
          1   -1    0    0  501    0  0.00000000000E+00  0.00000000000E+00  0.83291982363E+03  0.83291982363E+03  0.00000000000E+00 0. -1.
         -2   -1    0    0    0  501 -0.00000000000E+00 -0.00000000000E+00 -0.11007573412E+04  0.11007573412E+04  0.00000000000E+00 0.  1.
        -24    2    1    2    0    0 -0.69434630290E+03  0.21769844961E+03  0.53964832159E+02  0.73400411557E+03  0.79626850031E+02 0.  0.
        254    2    1    2    0    0  0.69434630290E+03 -0.21769844961E+03 -0.32180234972E+03  0.11996730492E+04  0.89785815665E+03 0.  0.
         23    2    4    4    0    0  0.78152236538E+03 -0.42901093525E+03 -0.32630103776E+03  0.95382527213E+03  0.92101532968E+02 0.  0.
         23    2    4    4    0    0 -0.87176062471E+02  0.21131248563E+03  0.44986880419E+01  0.24584777710E+03  0.90378420322E+02 0.  0.
          1    1    3    3  502    0 -0.48000343706E+03  0.13380427543E+03  0.32860695629E+01  0.49831484221E+03  0.00000000000E+00 0. -1.
         -2    1    3    3    0  502 -0.21434286585E+03  0.83894174179E+02  0.50678762596E+02  0.23568927336E+03  0.00000000000E+00 0.  1.
         11    1    5    5    0    0  0.75784776767E+03 -0.42105796354E+03 -0.29961193364E+03  0.91727332808E+03  0.00000000000E+00 0. -1.
        -11    1    5    5    0    0  0.23674597708E+02 -0.79529717031E+01 -0.26689104123E+02  0.36551944058E+02  0.00000000000E+00 0.  1.
          4    1    6    6  503    0  0.42014437432E+01  0.47397449980E+02 -0.28264313229E+02  0.55344754010E+02  0.00000000000E+00 0.  1.
         -4    1    6    6    0  503 -0.91377506214E+02  0.16391503565E+03  0.32763001271E+02  0.19050302309E+03  0.00000000000E+00 0. -1.
<mgrwt>
<rscale>  0 0.19150380E+04</rscale>
<asrwt>0</asrwt>
<pdfrwt beam="1">  1        1 0.12814151E+00 0.19150380E+04</pdfrwt>
<pdfrwt beam="2">  1       -2 0.16934728E+00 0.19150380E+04</pdfrwt>
<totfact> 0.36510665E+00</totfact>
</mgrwt>
</event>
<event>
12    4  0.4207946E-008  0.2065913E+04  0.7818608E-02  0.8576409E-01
         -2   -1    0    0    0  501 -0.00000000000E+00  0.00000000000E+00  0.10098420230E+04  0.10098420230E+04  0.00000000000E+00 0.  1.
          1   -1    0    0  501    0  0.00000000000E+00 -0.00000000000E+00 -0.10566002388E+04  0.10566002388E+04  0.00000000000E+00 0. -1.
        -24    2    1    2    0    0 -0.74572338745E+03  0.22477508907E+03  0.27917773796E+03  0.83157543364E+03  0.83368346500E+02 0.  0.
        254    2    1    2    0    0  0.74572338745E+03 -0.22477508907E+03 -0.32593595379E+03  0.12348668282E+04  0.90112963890E+03 0.  0.
         23    2    4    4    0    0 -0.15787067836E+03  0.11935804162E+03 -0.41269659072E+02  0.22273922371E+03  0.93488415504E+02 0.  0.
         23    2    4    4    0    0  0.90359406581E+03 -0.34413313070E+03 -0.28466629472E+03  0.10121276045E+04  0.91964889866E+02 0.  0.
          1    1    3    3  502    0 -0.12969783311E+03  0.41798276859E+02  0.83513323590E+02  0.15982208571E+03  0.00000000000E+00 0. -1.
         -4    1    3    3    0  502 -0.61602555434E+03  0.18297681222E+03  0.19566441437E+03  0.67175334793E+03  0.00000000000E+00 0.  1.
         11    1    5    5    0    0 -0.81267184531E+02  0.11609104734E+03 -0.19566413091E+02  0.14305359512E+03  0.00000000000E+00 0. -1.
        -11    1    5    5    0    0 -0.76603493825E+02  0.32669942807E+01 -0.21703245981E+02  0.79685628591E+02  0.00000000000E+00 0.  1.
          4    1    6    6  503    0  0.43733495340E+03 -0.11885983575E+03 -0.12154655030E+03  0.46921539394E+03  0.00000000000E+00 0. -1.
         -4    1    6    6    0  503  0.46625911240E+03 -0.22527329495E+03 -0.16311974442E+03  0.54291221053E+03  0.00000000000E+00 0.  1.
<mgrwt>
<rscale>  0 0.20659132E+04</rscale>
<asrwt>0</asrwt>
<pdfrwt beam="1">  1        1 0.16255388E+00 0.20659132E+04</pdfrwt>
<pdfrwt beam="2">  1       -2 0.15536031E+00 0.20659132E+04</pdfrwt>
<totfact> 0.30180447E+00</totfact>
</mgrwt>
</event>
<event>
12    4  0.4207946E-008  0.1831382E+04  0.7818608E-02  0.8689787E-01
         -2   -1    0    0    0  501 -0.00000000000E+00  0.00000000000E+00  0.11535150997E+04  0.11535150997E+04  0.00000000000E+00 0.  1.
          1   -1    0    0  501    0  0.00000000000E+00 -0.00000000000E+00 -0.72689968643E+03  0.72689968643E+03  0.00000000000E+00 0. -1.
        -24    2    1    2    0    0 -0.20601264884E+02  0.23988000865E+03  0.83022235869E+03  0.86815519287E+03  0.80358219060E+02 0.  0.
        254    2    1    2    0    0  0.20601264884E+02 -0.23988000865E+03 -0.40360694541E+03  0.10122595933E+04  0.89655121834E+03 0.  0.
         23    2    4    4    0    0 -0.80567749181E+02 -0.56219234037E+03 -0.21219854500E+03  0.61302867536E+03  0.90689274654E+02 0.  0.
         23    2    4    4    0    0  0.10116901406E+03  0.32231233173E+03 -0.19140840041E+03  0.39923091790E+03  0.92885636527E+02 0.  0.
          3    1    3    3  502    0  0.30883347994E+02  0.10331982713E+03  0.34521497324E+03  0.36166579270E+03  0.00000000000E+00 0. -1.
         -4    1    3    3    0  502 -0.51484612878E+02  0.13656018152E+03  0.48500738545E+03  0.50648940016E+03  0.00000000000E+00 0.  1.
         11    1    5    5    0    0 -0.35724195248E+02 -0.36992100112E+03 -0.95613259395E+02  0.38374426454E+03  0.00000000000E+00 0. -1.
        -11    1    5    5    0    0 -0.44843553933E+02 -0.19227133926E+03 -0.11658528561E+03  0.22928441083E+03  0.00000000000E+00 0.  1.
          3    1    6    6  503    0  0.56537514819E+02  0.25851729710E+03 -0.18117104773E+03  0.32070333958E+03  0.00000000000E+00 0. -1.
         -3    1    6    6    0  503  0.44631499246E+02  0.63795034628E+02 -0.10237352685E+02  0.78527578328E+02  0.00000000000E+00 0.  1.
<mgrwt>
<rscale>  0 0.18313817E+04</rscale>
<asrwt>0</asrwt>
<pdfrwt beam="1">  1        1 0.11183072E+00 0.18313817E+04</pdfrwt>
<pdfrwt beam="2">  1       -2 0.17746386E+00 0.18313817E+04</pdfrwt>
<totfact> 0.39995501E+00</totfact>
</mgrwt>
</event>
<event>
12    4  0.4207946E-008  0.1500828E+04  0.7818608E-02  0.8883903E-01
         -2   -1    0    0    0  501 -0.00000000000E+00  0.00000000000E+00  0.45441391090E+03  0.45441391090E+03  0.00000000000E+00 0.  1.
          1   -1    0    0  501    0  0.00000000000E+00 -0.00000000000E+00 -0.12392249177E+04  0.12392249177E+04  0.00000000000E+00 0. -1.
        -24    2    1    2    0    0 -0.10279219399E+03 -0.31925115553E+03 -0.60729006724E+03  0.69839179392E+03  0.80388659661E+02 0.  0.
        254    2    1    2    0    0  0.10279219399E+03  0.31925115553E+03 -0.17752093955E+03  0.99524703466E+03  0.92006273730E+03 0.  0.
         23    2    4    4    0    0  0.48589145543E+03  0.48738964391E+02 -0.13564315200E+03  0.51500617698E+03  0.91467505312E+02 0.  0.
         23    2    4    4    0    0 -0.38309926144E+03  0.27051219114E+03 -0.41877787551E+02  0.48024085768E+03  0.94528528093E+02 0.  0.
          3    1    3    3  502    0 -0.10805522203E+03 -0.31454885142E+03 -0.60592497529E+03  0.69120328892E+03  0.00000000000E+00 0. -1.
         -4    1    3    3    0  502  0.52630280391E+01 -0.47023041147E+01 -0.13650919447E+01  0.71885050007E+01  0.00000000000E+00 0.  1.
         11    1    5    5    0    0  0.46686059565E+03  0.65188315546E+02 -0.13248858546E+03  0.48965452876E+03  0.00000000000E+00 0.  1.
        -11    1    5    5    0    0  0.19030859782E+02 -0.16449351155E+02 -0.31545665407E+01  0.25351648221E+02  0.00000000000E+00 0. -1.
          3    1    6    6  503    0 -0.10495301433E+03  0.10640831718E+03 -0.48784712222E+02  0.15721899799E+03  0.00000000000E+00 0. -1.
         -3    1    6    6    0  503 -0.27814624711E+03  0.16410387397E+03  0.69069246708E+01  0.32302185970E+03  0.00000000000E+00 0.  1.
<mgrwt>
<rscale>  0 0.15008278E+04</rscale>
<asrwt>0</asrwt>
<pdfrwt beam="1">  1        1 0.19064999E+00 0.15008278E+04</pdfrwt>
<pdfrwt beam="2">  1       -2 0.69909832E-01 0.15008278E+04</pdfrwt>
<totfact> 0.15824003E+01</totfact>
</mgrwt>
</event>
<event>
12    4  0.4207946E-008  0.1904365E+04  0.7818608E-02  0.8652687E-01
          1   -1    0    0  501    0  0.00000000000E+00  0.00000000000E+00  0.77672853503E+03  0.77672853503E+03  0.00000000000E+00 0. -1.
         -2   -1    0    0    0  501 -0.00000000000E+00 -0.00000000000E+00 -0.11672690740E+04  0.11672690740E+04  0.00000000000E+00 0.  1.
        -24    2    1    2    0    0 -0.43648922989E+02  0.39401013238E+03  0.48037151251E+03  0.62792587329E+03  0.79905565614E+02 0.  0.
        254    2    1    2    0    0  0.43648922989E+02 -0.39401013238E+03 -0.87091205152E+03  0.13160717358E+04  0.90355287580E+03 0.  0.
         23    2    4    4    0    0 -0.33280566519E+03 -0.63395216284E+02 -0.56724979573E+02  0.35576211440E+03  0.92576425224E+02 0.  0.
         23    2    4    4    0    0  0.37645458818E+03 -0.33061491609E+03 -0.81418707195E+03  0.96030962139E+03  0.90937896937E+02 0.  0.
          1    1    3    3  502    0 -0.52754877661E+01  0.29388324613E+03  0.31503474164E+03  0.43086202150E+03  0.00000000000E+00 0. -1.
         -2    1    3    3    0  502 -0.38373435222E+02  0.10012688624E+03  0.16533677087E+03  0.19706385179E+03  0.00000000000E+00 0.  1.
         11    1    5    5    0    0 -0.29507379833E+02 -0.32749668002E+02  0.61323044043E+01  0.44506531837E+02  0.00000000000E+00 0. -1.
        -11    1    5    5    0    0 -0.30329828535E+03 -0.30645548282E+02 -0.62857283978E+02  0.31125558256E+03  0.00000000000E+00 0.  1.
          1    1    6    6  503    0  0.16810943100E+03 -0.94342114420E+02 -0.34448490952E+03  0.39475444042E+03  0.00000000000E+00 0. -1.
         -1    1    6    6    0  503  0.20834515717E+03 -0.23627280167E+03 -0.46970216243E+03  0.56555518097E+03  0.00000000000E+00 0.  1.
<mgrwt>
<rscale>  0 0.19043647E+04</rscale>
<asrwt>0</asrwt>
<pdfrwt beam="1">  1        1 0.11949670E+00 0.19043647E+04</pdfrwt>
<pdfrwt beam="2">  1       -2 0.17957986E+00 0.19043647E+04</pdfrwt>
<totfact> 0.34648085E+00</totfact>
</mgrwt>
</event>
<event>
12    4  0.4207946E-008  0.2184448E+04  0.7818608E-02  0.8524929E-01
         -2   -1    0    0    0  501 -0.00000000000E+00  0.00000000000E+00  0.62051260012E+03  0.62051260012E+03  0.00000000000E+00 0.  1.
          1   -1    0    0  501    0  0.00000000000E+00 -0.00000000000E+00 -0.19225280729E+04  0.19225280729E+04  0.00000000000E+00 0. -1.
        -24    2    1    2    0    0 -0.24044903090E+03 -0.70514489209E+03  0.26469057326E+02  0.74996722022E+03  0.81885072591E+02 0.  0.
        254    2    1    2    0    0  0.24044903090E+03  0.70514489209E+03 -0.13284845301E+04  0.17930734528E+04  0.94614808837E+03 0.  0.
         23    2    4    4    0    0  0.53557962293E+03  0.62335534734E+03 -0.11796073423E+04  0.14404767539E+04  0.89902029824E+02 0.  0.
         23    2    4    4    0    0 -0.29513059203E+03  0.81789544746E+02 -0.14887718784E+03  0.35259669893E+03  0.91479063462E+02 0.  0.
          1    1    3    3  502    0 -0.14616902984E+03 -0.30950011088E+03  0.25699506484E+02  0.34324359943E+03  0.00000000000E+00 0. -1.
         -2    1    3    3    0  502 -0.94280001052E+02 -0.39564478121E+03  0.76955084215E+00  0.40672362079E+03  0.00000000000E+00 0.  1.
         11    1    5    5    0    0  0.20370002592E+03  0.27151776061E+03 -0.55382923455E+03  0.64957094757E+03  0.00000000000E+00 0.  1.
        -11    1    5    5    0    0  0.33187959701E+03  0.35183758673E+03 -0.62577810775E+03  0.79090580633E+03  0.00000000000E+00 0. -1.
          3    1    6    6  503    0 -0.91189148223E+02  0.15764641217E+02 -0.92720474169E+02  0.13100027098E+03  0.00000000000E+00 0. -1.
         -3    1    6    6    0  503 -0.20394144381E+03  0.66024903529E+02 -0.56156713669E+02  0.22159642795E+03  0.00000000000E+00 0.  1.
<mgrwt>
<rscale>  0 0.21844477E+04</rscale>
<asrwt>0</asrwt>
<pdfrwt beam="1">  1        1 0.29577355E+00 0.21844477E+04</pdfrwt>
<pdfrwt beam="2">  1       -2 0.95463478E-01 0.21844477E+04</pdfrwt>
<totfact> 0.24852573E+00</totfact>
</mgrwt>
</event>
<event>
12    4  0.4207946E-008  0.1503658E+04  0.7818608E-02  0.8882024E-01
          1   -1    0    0  501    0  0.00000000000E+00  0.00000000000E+00  0.23756170735E+04  0.23756170735E+04  0.00000000000E+00 0. -1.
         -2   -1    0    0    0  501 -0.00000000000E+00 -0.00000000000E+00 -0.23793679013E+03  0.23793679013E+03  0.00000000000E+00 0.  1.
        -24    2    1    2    0    0  0.23222982229E+03 -0.10117444858E+03  0.13692735300E+04  0.13948619035E+04  0.81010928002E+02 0.  0.
        254    2    1    2    0    0 -0.23222982229E+03  0.10117444858E+03  0.76840675342E+03  0.12186919602E+04  0.91136940685E+03 0.  0.
         23    2    4    4    0    0 -0.99849040056E+02  0.47153018324E+03  0.61531119533E+03  0.78728623028E+03  0.94346154039E+02 0.  0.
         23    2    4    4    0    0 -0.13238078223E+03 -0.37035573466E+03  0.15309555809E+03  0.43140572992E+03  0.89356657300E+02 0.  0.
          3    1    3    3  502    0  0.73866085489E+02 -0.25766963470E+02  0.64137801865E+03  0.64613148647E+03  0.00000000000E+00 0. -1.
         -4    1    3    3    0  502  0.15836373680E+03 -0.75407485108E+02  0.72789551132E+03  0.74873041700E+03  0.00000000000E+00 0.  1.
         11    1    5    5    0    0 -0.11769904443E+03  0.37774265970E+03  0.49397876066E+03  0.63289619844E+03  0.00000000000E+00 0.  1.
        -11    1    5    5    0    0  0.17850004377E+02  0.93787523533E+02  0.12133243467E+03  0.15439003184E+03  0.00000000000E+00 0. -1.
          1    1    6    6  503    0 -0.75382782096E+02 -0.16476060597E+03  0.25930374311E+02  0.18303279878E+03  0.00000000000E+00 0. -1.
         -1    1    6    6    0  503 -0.56998000133E+02 -0.20559512869E+03  0.12716518378E+03  0.24837293114E+03  0.00000000000E+00 0.  1.
<mgrwt>
<rscale>  0 0.15036578E+04</rscale>
<asrwt>0</asrwt>
<pdfrwt beam="1">  1        1 0.36547953E+00 0.15036578E+04</pdfrwt>
<pdfrwt beam="2">  1       -2 0.36605662E-01 0.15036578E+04</pdfrwt>
<totfact> 0.98738806E+00</totfact>
</mgrwt>
</event>
<event>
12    4  0.4207946E-008  0.1131558E+04  0.7818608E-02  0.9174967E-01
         -2   -1    0    0    0  501 -0.00000000000E+00  0.00000000000E+00  0.49353530252E+03  0.49353530252E+03  0.00000000000E+00 0.  1.
          1   -1    0    0  501    0  0.00000000000E+00 -0.00000000000E+00 -0.64859795741E+03  0.64859795741E+03  0.00000000000E+00 0. -1.
        -24    2    1    2    0    0  0.52227778891E+02  0.46390735481E+02 -0.21610515504E+03  0.24066795157E+03  0.79622758391E+02 0.  0.
        254    2    1    2    0    0 -0.52227778891E+02 -0.46390735481E+02  0.61042500150E+02  0.90146530835E+03  0.89667924817E+03 0.  0.
         23    2    4    4    0    0 -0.31245824228E+03 -0.33070882091E+03  0.16244331901E+03  0.49188628911E+03  0.92551672726E+02 0.  0.
         23    2    4    4    0    0  0.26023046339E+03  0.28431808543E+03 -0.10140081886E+03  0.40957901924E+03  0.94425521751E+02 0.  0.
          3    1    3    3  502    0  0.28191995307E+02  0.16534912383E+02 -0.19335121666E+03  0.19609407159E+03  0.00000000000E+00 0. -1.
         -4    1    3    3    0  502  0.24035783583E+02  0.29855823099E+02 -0.22753938376E+02  0.44573879986E+02  0.00000000000E+00 0.  1.
         11    1    5    5    0    0 -0.18670381977E+03 -0.22448815261E+03  0.60251253453E+02  0.29813329322E+03  0.00000000000E+00 0.  1.
        -11    1    5    5    0    0 -0.12575442250E+03 -0.10622066830E+03  0.10219206556E+03  0.19375299589E+03  0.00000000000E+00 0. -1.
          4    1    6    6  503    0  0.23373862240E+03  0.27349377081E+03 -0.68955448334E+02  0.36631603859E+03  0.00000000000E+00 0. -1.
         -4    1    6    6    0  503  0.26491840988E+02  0.10824314620E+02 -0.32445370530E+02  0.43262980651E+02  0.00000000000E+00 0.  1.
<mgrwt>
<rscale>  0 0.11315582E+04</rscale>
<asrwt>0</asrwt>
<pdfrwt beam="1">  1        1 0.99784301E-01 0.11315582E+04</pdfrwt>
<pdfrwt beam="2">  1       -2 0.75928508E-01 0.11315582E+04</pdfrwt>
<totfact> 0.41345652E+01</totfact>
</mgrwt>
</event>
<event>
12    4  0.4207946E-008  0.3347374E+04  0.7818608E-02  0.8150945E-01
         -2   -1    0    0    0  501 -0.00000000000E+00  0.00000000000E+00  0.17533557654E+04  0.17533557654E+04  0.00000000000E+00 0.  1.
          1   -1    0    0  501    0  0.00000000000E+00 -0.00000000000E+00 -0.15976377539E+04  0.15976377539E+04  0.00000000000E+00 0. -1.
        -24    2    1    2    0    0  0.11048885867E+04 -0.91515434578E+03 -0.51651608766E+03  0.15267866564E+04  0.77474897454E+02 0.  0.
        254    2    1    2    0    0 -0.11048885867E+04  0.91515434578E+03  0.67223409917E+03  0.18242068629E+04  0.90418235374E+03 0.  0.
         23    2    4    4    0    0 -0.83940832712E+02 -0.10004657798E+03 -0.99670810708E+02  0.18795174225E+03  0.91302824417E+02 0.  0.
         23    2    4    4    0    0 -0.10209477540E+04  0.10152009238E+04  0.77190490988E+03  0.16362551206E+04  0.92338496032E+02 0.  0.
          1    1    3    3  502    0  0.50159273585E+03 -0.44682531427E+03 -0.20966596082E+03  0.70371013156E+03  0.00000000000E+00 0. -1.
         -2    1    3    3    0  502  0.60329585090E+03 -0.46832903151E+03 -0.30685012684E+03  0.82307652488E+03  0.00000000000E+00 0.  1.
         11    1    5    5    0    0  0.13084879143E+02 -0.48129110012E+01  0.65679515990E+01  0.15411559385E+02  0.00000000000E+00 0.  1.
        -11    1    5    5    0    0 -0.97025711855E+02 -0.95233666979E+02 -0.10623876231E+03  0.17254018287E+03  0.00000000000E+00 0. -1.
          3    1    6    6  503    0 -0.88103347170E+03  0.91099311472E+03  0.69749744587E+03  0.14465929352E+04  0.00000000000E+00 0. -1.
         -3    1    6    6    0  503 -0.13991428233E+03  0.10420780904E+03  0.74407464016E+02  0.18966218539E+03  0.00000000000E+00 0.  1.
<mgrwt>
<rscale>  0 0.33473735E+04</rscale>
<asrwt>0</asrwt>
<pdfrwt beam="1">  1        1 0.24579042E+00 0.33473735E+04</pdfrwt>
<pdfrwt beam="2">  1       -2 0.26974704E+00 0.33473735E+04</pdfrwt>
<totfact> 0.19776525E-01</totfact>
</mgrwt>
</event>
<event>
12    4  0.4207946E-008  0.2320835E+04  0.7818608E-02  0.8469751E-01
          1   -1    0    0  501    0  0.00000000000E+00  0.00000000000E+00  0.21203911977E+04  0.21203911977E+04  0.00000000000E+00 0. -1.
         -2   -1    0    0    0  501 -0.00000000000E+00 -0.00000000000E+00 -0.63505655775E+03  0.63505655775E+03  0.00000000000E+00 0.  1.
        -24    2    1    2    0    0 -0.51810360282E+03  0.35334426456E+02 -0.37198824149E+03  0.64374450346E+03  0.79698613409E+02 0.  0.
        254    2    1    2    0    0  0.51810360282E+03 -0.35334426456E+02  0.18573228815E+04  0.21117032520E+04  0.86021071464E+03 0.  0.
         23    2    4    4    0    0  0.62904250801E+03  0.14249866051E+03  0.17337458889E+04  0.18519570691E+04  0.88712080409E+02 0.  0.
         23    2    4    4    0    0 -0.11093890518E+03 -0.17783308696E+03  0.12357699257E+03  0.25974618296E+03  0.90910719759E+02 0.  0.
          3    1    3    3  502    0 -0.51857528027E+02  0.22991644549E+02 -0.60219960127E+02  0.82730058200E+02  0.00000000000E+00 0. -1.
         -4    1    3    3    0  502 -0.46624607480E+03  0.12342781906E+02 -0.31176828136E+03  0.56101444526E+03  0.00000000000E+00 0.  1.
         11    1    5    5    0    0  0.25149968188E+03  0.13074247874E+02  0.65474992319E+03  0.70151299906E+03  0.00000000000E+00 0.  1.
        -11    1    5    5    0    0  0.37754282613E+03  0.12942441264E+03  0.10789959657E+04  0.11504440700E+04  0.00000000000E+00 0. -1.
          4    1    6    6  503    0 -0.71236176959E+02 -0.15440383052E+03  0.12884595552E+03  0.21334576640E+03  0.00000000000E+00 0. -1.
         -4    1    6    6    0  503 -0.39702728225E+02 -0.23429256446E+02 -0.52689629561E+01  0.46400416558E+02  0.00000000000E+00 0.  1.
<mgrwt>
<rscale>  0 0.23208346E+04</rscale>
<asrwt>0</asrwt>
<pdfrwt beam="1">  1        1 0.32621403E+00 0.23208346E+04</pdfrwt>
<pdfrwt beam="2">  1       -2 0.97701010E-01 0.23208346E+04</pdfrwt>
<totfact> 0.17075240E+00</totfact>
</mgrwt>
</event>
<event>
12    4  0.4207946E-008  0.1576858E+04  0.7818608E-02  0.8834892E-01
          1   -1    0    0  501    0  0.00000000000E+00  0.00000000000E+00  0.14775545258E+04  0.14775545258E+04  0.00000000000E+00 0. -1.
         -2   -1    0    0    0  501 -0.00000000000E+00 -0.00000000000E+00 -0.42070894086E+03  0.42070894086E+03  0.00000000000E+00 0.  1.
        -24    2    1    2    0    0 -0.12224697991E+03  0.37574795863E+03 -0.61237069990E+02  0.40722852414E+03  0.77163719600E+02 0.  0.
        254    2    1    2    0    0  0.12224697991E+03 -0.37574795863E+03  0.11180826550E+04  0.14910349425E+04  0.90385038809E+03 0.  0.
         23    2    4    4    0    0  0.50665024275E+03 -0.23757281944E+03  0.60745779057E+03  0.83079805070E+03  0.89917299283E+02 0.  0.
         23    2    4    4    0    0 -0.38440326284E+03 -0.13817513919E+03  0.51062486440E+03  0.66023689184E+03  0.91196291793E+02 0.  0.
          1    1    3    3  502    0  0.83907673850E+00  0.64710762177E+01  0.95778173222E+01  0.11589368483E+02  0.00000000000E+00 0. -1.
         -2    1    3    3    0  502 -0.12308605665E+03  0.36927688241E+03 -0.70814887312E+02  0.39563915566E+03  0.00000000000E+00 0.  1.
         11    1    5    5    0    0  0.47630249047E+03 -0.24333616588E+03  0.58467561731E+03  0.79241537689E+03  0.00000000000E+00 0.  1.
        -11    1    5    5    0    0  0.30347752278E+02  0.57633464374E+01  0.22782173255E+02  0.38382673808E+02  0.00000000000E+00 0. -1.
          4    1    6    6  503    0 -0.37682911610E+03 -0.13651737324E+03  0.46470735146E+03  0.61366937225E+03  0.00000000000E+00 0.  1.
         -4    1    6    6    0  503 -0.75741467435E+01 -0.16577659502E+01  0.45917512937E+02  0.46567519594E+02  0.00000000000E+00 0. -1.
<mgrwt>
<rscale>  0 0.15768581E+04</rscale>
<asrwt>0</asrwt>
<pdfrwt beam="1">  1        1 0.22731608E+00 0.15768581E+04</pdfrwt>
<pdfrwt beam="2">  1       -2 0.64724453E-01 0.15768581E+04</pdfrwt>
<totfact> 0.12601842E+01</totfact>
</mgrwt>
</event>
<event>
12    4  0.4207946E-008  0.1683919E+04  0.7818608E-02  0.8770589E-01
          1   -1    0    0  501    0  0.00000000000E+00  0.00000000000E+00  0.18365733770E+04  0.18365733770E+04  0.00000000000E+00 0. -1.
         -2   -1    0    0    0  501 -0.00000000000E+00 -0.00000000000E+00 -0.38598831046E+03  0.38598831046E+03  0.00000000000E+00 0.  1.
        -24    2    1    2    0    0  0.80441271935E+02 -0.59241486851E+03  0.46165516473E+03  0.75988929346E+03  0.82946202569E+02 0.  0.
        254    2    1    2    0    0 -0.80441271935E+02  0.59241486851E+03  0.98892990184E+03  0.14626723940E+04  0.89666158992E+03 0.  0.
         23    2    4    4    0    0  0.11410161480E+03  0.57336091135E+03  0.10772319562E+04  0.12290606574E+04  0.91648781031E+02 0.  0.
         23    2    4    4    0    0 -0.19454288674E+03  0.19053957164E+02 -0.88302054362E+02  0.23361173658E+03  0.92559184319E+02 0.  0.
          3    1    3    3  502    0  0.97191718877E+01 -0.16147303012E+02  0.33723229447E+02  0.38632290912E+02  0.00000000000E+00 0. -1.
         -4    1    3    3    0  502  0.70722100047E+02 -0.57626756550E+03  0.42793193529E+03  0.72125700255E+03  0.00000000000E+00 0.  1.
         11    1    5    5    0    0 -0.15735331677E+02  0.54460429099E+02  0.95073638737E+02  0.11069117301E+03  0.00000000000E+00 0.  1.
        -11    1    5    5    0    0  0.12983694648E+03  0.51890048225E+03  0.98215831746E+03  0.11183694844E+04  0.00000000000E+00 0. -1.
          1    1    6    6  503    0 -0.11431284357E+03  0.53532480731E+02 -0.33797214928E+02  0.13067289098E+03  0.00000000000E+00 0. -1.
         -1    1    6    6    0  503 -0.80230043161E+02 -0.34478523568E+02 -0.54504839434E+02  0.10293884561E+03  0.00000000000E+00 0.  1.
<mgrwt>
<rscale>  0 0.16839191E+04</rscale>
<asrwt>0</asrwt>
<pdfrwt beam="1">  1        1 0.28254974E+00 0.16839191E+04</pdfrwt>
<pdfrwt beam="2">  1       -2 0.59382818E-01 0.16839191E+04</pdfrwt>
<totfact> 0.85204733E+00</totfact>
</mgrwt>
</event>
<event>
12    4  0.4207946E-008  0.1791646E+04  0.7818608E-02  0.8710755E-01
          1   -1    0    0  501    0  0.00000000000E+00  0.00000000000E+00  0.79324574154E+03  0.79324574154E+03  0.00000000000E+00 0. -1.
         -2   -1    0    0    0  501 -0.00000000000E+00 -0.00000000000E+00 -0.10116646834E+04  0.10116646834E+04  0.00000000000E+00 0.  1.
        -24    2    1    2    0    0 -0.56363875048E+03 -0.70285004980E+02 -0.42536582374E+03  0.71411864417E+03  0.80004568423E+02 0.  0.
        254    2    1    2    0    0  0.56363875048E+03  0.70285004980E+02  0.20694688189E+03  0.10907917808E+04  0.90794882789E+03 0.  0.
         23    2    4    4    0    0  0.19497742866E+03  0.20542702034E+03  0.50854761654E+03  0.58928797434E+03  0.91777884305E+02 0.  0.
         23    2    4    4    0    0  0.36866132182E+03 -0.13514201536E+03 -0.30160073465E+03  0.50150380641E+03  0.79803071280E+02 0.  0.
          1    1    3    3  502    0 -0.39577750033E+03 -0.18338442074E+02 -0.26888342028E+03  0.47882608735E+03  0.00000000000E+00 0. -1.
         -2    1    3    3    0  502 -0.16786125015E+03 -0.51946562906E+02 -0.15648240346E+03  0.23529255682E+03  0.00000000000E+00 0.  1.
         11    1    5    5    0    0  0.18092621780E+03  0.16695840182E+03  0.47972403780E+03  0.53920734108E+03  0.00000000000E+00 0.  1.
        -11    1    5    5    0    0  0.14051210863E+02  0.38468618518E+02  0.28823578736E+02  0.50080633268E+02  0.00000000000E+00 0. -1.
          1    1    6    6  503    0  0.17098342712E+03 -0.98383098477E+02 -0.17646081031E+03  0.26467524250E+03  0.00000000000E+00 0. -1.
         -1    1    6    6    0  503  0.19767789470E+03 -0.36758916881E+02 -0.12513992433E+03  0.23682856391E+03  0.00000000000E+00 0.  1.
<mgrwt>
<rscale>  0 0.17916458E+04</rscale>
<asrwt>0</asrwt>
<pdfrwt beam="1">  1        1 0.12203781E+00 0.17916458E+04</pdfrwt>
<pdfrwt beam="2">  1       -2 0.15564072E+00 0.17916458E+04</pdfrwt>
<totfact> 0.50312162E+00</totfact>
</mgrwt>
</event>
<event>
12    4  0.4207946E-008  0.1208065E+04  0.7818608E-02  0.9105826E-01
         -2   -1    0    0    0  501 -0.00000000000E+00  0.00000000000E+00  0.30083762513E+03  0.30083762513E+03  0.00000000000E+00 0.  1.
          1   -1    0    0  501    0  0.00000000000E+00 -0.00000000000E+00 -0.12127979986E+04  0.12127979986E+04  0.00000000000E+00 0. -1.
        -24    2    1    2    0    0  0.52665260464E+02 -0.62534267436E+02  0.98494781965E+02  0.15067508937E+03  0.79483307810E+02 0.  0.
        254    2    1    2    0    0 -0.52665260464E+02  0.62534267436E+02 -0.10104551555E+04  0.13629605344E+04  0.91102010562E+03 0.  0.
         23    2    4    4    0    0  0.27124050192E+03  0.36294120271E+03 -0.48323606339E+03  0.66892207933E+03  0.92961974752E+02 0.  0.
         23    2    4    4    0    0 -0.32390576239E+03 -0.30040693528E+03 -0.52721909206E+03  0.69403845505E+03  0.92575031087E+02 0.  0.
          1    1    3    3  502    0  0.16555271381E+02 -0.63284270473E+02  0.27377522380E+02  0.70911949850E+02  0.00000000000E+00 0. -1.
         -2    1    3    3    0  502  0.36109989083E+02  0.75000303681E+00  0.71117259585E+02  0.79763139525E+02  0.00000000000E+00 0.  1.
         11    1    5    5    0    0  0.19379238364E+03  0.30966701931E+03 -0.35040890515E+03  0.50619714698E+03  0.00000000000E+00 0. -1.
        -11    1    5    5    0    0  0.77448118285E+02  0.53274183406E+02 -0.13282715824E+03  0.16272493235E+03  0.00000000000E+00 0.  1.
          3    1    6    6  503    0 -0.19864721997E+03 -0.22900791940E+03 -0.31234706419E+03  0.43527696201E+03  0.00000000000E+00 0. -1.
         -3    1    6    6    0  503 -0.12525854242E+03 -0.71399015877E+02 -0.21487202788E+03  0.25876149304E+03  0.00000000000E+00 0.  1.
<mgrwt>
<rscale>  0 0.12080650E+04</rscale>
<asrwt>0</asrwt>
<pdfrwt beam="1">  1        1 0.18658431E+00 0.12080650E+04</pdfrwt>
<pdfrwt beam="2">  1       -2 0.46282711E-01 0.12080650E+04</pdfrwt>
<totfact> 0.40149594E+01</totfact>
</mgrwt>
</event>
<event>
12    4  0.5082728E-008  0.2454281E+04  0.7818608E-02  0.8419456E-01
          1   -1    0    0  501    0  0.00000000000E+00  0.00000000000E+00  0.15125994453E+04  0.15125994453E+04  0.00000000000E+00 0. -1.
         -2   -1    0    0    0  501 -0.00000000000E+00 -0.00000000000E+00 -0.99555382210E+03  0.99555382210E+03  0.00000000000E+00 0.  1.
        -24    2    1    2    0    0 -0.16138940808E+03  0.87359883864E+03  0.80658487211E+03  0.12025315758E+04  0.79256311916E+02 0.  0.
        254    2    1    2    0    0  0.16138940808E+03 -0.87359883864E+03 -0.28953924887E+03  0.13056216916E+04  0.91191751442E+03 0.  0.
         23    2    4    4    0    0  0.26331335671E+03  0.32230126749E+02 -0.27376966069E+03  0.38946428506E+03  0.79748964449E+02 0.  0.
         23    2    4    4    0    0 -0.10192394863E+03 -0.90582896539E+03 -0.15769588185E+02  0.91615740657E+03  0.90449476831E+02 0.  0.
          1    1    3    3  502    0 -0.15594984526E+03  0.84483328954E+03  0.75744677274E+03  0.11453336871E+04  0.00000000000E+00 0. -1.
         -2    1    3    3    0  502 -0.54395628177E+01  0.28765549104E+02  0.49138099373E+02  0.57197888675E+02  0.00000000000E+00 0.  1.
         11    1    5    5    0    0  0.61137229440E+00 -0.80009828634E+01 -0.15601871885E+00  0.80258236153E+01  0.00000000000E+00 0. -1.
        -11    1    5    5    0    0  0.26270198442E+03  0.40231109612E+02 -0.27361364197E+03  0.38143846144E+03  0.00000000000E+00 0.  1.
          1    1    6    6  503    0 -0.15103187670E+02 -0.36768901794E+02 -0.15790130972E+02  0.42771329802E+02  0.00000000000E+00 0. -1.
         -1    1    6    6    0  503 -0.86820760965E+02 -0.86906006360E+03  0.20542787020E-01  0.87338607677E+03  0.00000000000E+00 0.  1.
<mgrwt>
<rscale>  0 0.24542813E+04</rscale>
<asrwt>0</asrwt>
<pdfrwt beam="1">  1        1 0.23270761E+00 0.24542813E+04</pdfrwt>
<pdfrwt beam="2">  1       -2 0.15316213E+00 0.24542813E+04</pdfrwt>
<totfact> 0.14232251E+00</totfact>
</mgrwt>
</event>
<event>
12    4  0.4207946E-008  0.1482778E+04  0.7818608E-02  0.8895987E-01
         -2   -1    0    0    0  501 -0.00000000000E+00  0.00000000000E+00  0.23387854182E+03  0.23387854182E+03  0.00000000000E+00 0.  1.
          1   -1    0    0  501    0  0.00000000000E+00 -0.00000000000E+00 -0.23501848782E+04  0.23501848782E+04  0.00000000000E+00 0. -1.
        -24    2    1    2    0    0  0.26579699648E+01 -0.29952183531E+03 -0.13004906050E+04  0.13369208844E+04  0.79757399714E+02 0.  0.
        254    2    1    2    0    0 -0.26579699648E+01  0.29952183531E+03 -0.81581573136E+03  0.12471425356E+04  0.89447683141E+03 0.  0.
         23    2    4    4    0    0  0.19363796146E+03 -0.18319283720E+02 -0.83379366256E+03  0.86081220108E+03  0.89188101945E+02 0.  0.
         23    2    4    4    0    0 -0.19629593142E+03  0.31784111903E+03  0.17977931201E+02  0.38633033452E+03  0.96813489334E+02 0.  0.
          3    1    3    3  502    0  0.25534753037E+02 -0.20043043074E+03 -0.73045037659E+03  0.75788002602E+03  0.00000000000E+00 0. -1.
         -4    1    3    3    0  502 -0.22876783072E+02 -0.99091404566E+02 -0.57004022838E+03  0.57904085835E+03  0.00000000000E+00 0.  1.
         11    1    5    5    0    0  0.15992856169E+03 -0.16923845308E+02 -0.49790030535E+03  0.52322870281E+03  0.00000000000E+00 0.  1.
        -11    1    5    5    0    0  0.33709399769E+02 -0.13954384124E+01 -0.33589335722E+03  0.33758349827E+03  0.00000000000E+00 0. -1.
          1    1    6    6  503    0 -0.14688365726E+03  0.25112674185E+03  0.53886480184E+02  0.29587700484E+03  0.00000000000E+00 0. -1.
         -1    1    6    6    0  503 -0.49412274166E+02  0.66714377177E+02 -0.35908548983E+02  0.90453329682E+02  0.00000000000E+00 0.  1.
<mgrwt>
<rscale>  0 0.14827782E+04</rscale>
<asrwt>0</asrwt>
<pdfrwt beam="1">  1        1 0.36156692E+00 0.14827782E+04</pdfrwt>
<pdfrwt beam="2">  1       -2 0.35981312E-01 0.14827782E+04</pdfrwt>
<totfact> 0.10644140E+01</totfact>
</mgrwt>
</event>
<event>
12    4  0.4207946E-008  0.1254870E+04  0.7818608E-02  0.9066140E-01
         -4   -1    0    0    0  501 -0.00000000000E+00  0.00000000000E+00  0.28137098000E+03  0.28137098000E+03  0.00000000000E+00 0.  1.
          3   -1    0    0  501    0  0.00000000000E+00 -0.00000000000E+00 -0.13991306012E+04  0.13991306012E+04  0.00000000000E+00 0. -1.
        -24    2    1    2    0    0  0.64301462101E+02 -0.21004488063E+03 -0.26044365778E+01  0.23483254675E+03  0.82981998135E+02 0.  0.
        254    2    1    2    0    0 -0.64301462101E+02  0.21004488063E+03 -0.11151551846E+04  0.14456690345E+04  0.89338364744E+03 0.  0.
         23    2    4    4    0    0  0.31484666357E+03  0.22461910221E+03 -0.93423694499E+03  0.10154759836E+04  0.93865015914E+02 0.  0.
         23    2    4    4    0    0 -0.37914812567E+03 -0.14574221580E+02 -0.18091823965E+03  0.43019305089E+03  0.91481924234E+02 0.  0.
          3    1    3    3  502    0  0.42262730846E+01 -0.75827903853E+02  0.34134725783E+02  0.83264109262E+02  0.00000000000E+00 0. -1.
         -4    1    3    3    0  502  0.60075189016E+02 -0.13421697678E+03 -0.36739162361E+02  0.15156843749E+03  0.00000000000E+00 0.  1.
         11    1    5    5    0    0  0.20960779079E+03  0.94151570534E+02 -0.56708130278E+03  0.61186693664E+03  0.00000000000E+00 0.  1.
        -11    1    5    5    0    0  0.10523887278E+03  0.13046753168E+03 -0.36715564221E+03  0.40360904694E+03  0.00000000000E+00 0. -1.
          1    1    6    6  503    0 -0.13824088746E+03 -0.31044296993E+02 -0.10736920225E+03  0.17777074262E+03  0.00000000000E+00 0. -1.
         -1    1    6    6    0  503 -0.24090723821E+03  0.16470075413E+02 -0.73549037393E+02  0.25242230826E+03  0.00000000000E+00 0.  1.
<mgrwt>
<rscale>  0 0.12548701E+04</rscale>
<asrwt>0</asrwt>
<pdfrwt beam="1">  1        3 0.21525086E+00 0.12548701E+04</pdfrwt>
<pdfrwt beam="2">  1       -4 0.43287843E-01 0.12548701E+04</pdfrwt>
<totfact> 0.13895648E+00</totfact>
</mgrwt>
</event>
<event>
12    4  0.4207946E-008  0.2002424E+04  0.7818608E-02  0.8605488E-01
         -2   -1    0    0    0  501 -0.00000000000E+00  0.00000000000E+00  0.75023753239E+03  0.75023753239E+03  0.00000000000E+00 0.  1.
          1   -1    0    0  501    0  0.00000000000E+00 -0.00000000000E+00 -0.13361444441E+04  0.13361444441E+04  0.00000000000E+00 0. -1.
        -24    2    1    2    0    0 -0.42052726097E+03  0.33056918906E+03 -0.84630837564E+03  0.10042853672E+04  0.78943435578E+02 0.  0.
        254    2    1    2    0    0  0.42052726097E+03 -0.33056918906E+03  0.26040146389E+03  0.10820966094E+04  0.90388327988E+03 0.  0.
         23    2    4    4    0    0  0.44583134284E+03 -0.35980032706E+03 -0.19778016216E+03  0.61319791352E+03  0.93128013964E+02 0.  0.
         23    2    4    4    0    0 -0.25304081877E+02  0.29231137999E+02  0.45818162606E+03  0.46889869586E+03  0.91873981805E+02 0.  0.
          3    1    3    3  502    0 -0.41547841820E+03  0.30872914862E+03 -0.82015243087E+03  0.96983813756E+03  0.00000000000E+00 0. -1.
         -4    1    3    3    0  502 -0.50488427686E+01  0.21840040447E+02 -0.26155944768E+02  0.34447229594E+02  0.00000000000E+00 0.  1.
         11    1    5    5    0    0  0.13347988396E+03 -0.63429163193E+02 -0.73428758006E+02  0.16502097039E+03  0.00000000000E+00 0.  1.
        -11    1    5    5    0    0  0.31235145888E+03 -0.29637116387E+03 -0.12435140415E+03  0.44817694313E+03  0.00000000000E+00 0. -1.
          1    1    6    6  503    0 -0.49082802792E+01  0.56067119987E+02  0.17772247595E+03  0.18642127458E+03  0.00000000000E+00 0. -1.
         -1    1    6    6    0  503 -0.20395801598E+02 -0.26835981989E+02  0.28045915010E+03  0.28247742127E+03  0.00000000000E+00 0.  1.
<mgrwt>
<rscale>  0 0.20024242E+04</rscale>
<asrwt>0</asrwt>
<pdfrwt beam="1">  1        1 0.20556068E+00 0.20024242E+04</pdfrwt>
<pdfrwt beam="2">  1       -2 0.11542116E+00 0.20024242E+04</pdfrwt>
<totfact> 0.40542579E+00</totfact>
</mgrwt>
</event>
<event>
12    4  0.4207946E-008  0.2694961E+04  0.7818608E-02  0.8336642E-01
         -4   -1    0    0    0  501 -0.00000000000E+00  0.00000000000E+00  0.12273016792E+04  0.12273016792E+04  0.00000000000E+00 0.  1.
          3   -1    0    0  501    0  0.00000000000E+00 -0.00000000000E+00 -0.14794273859E+04  0.14794273859E+04  0.00000000000E+00 0. -1.
        -24    2    1    2    0    0 -0.92657788800E+03 -0.61000381825E+03  0.33698926038E+03  0.11619056867E+04  0.76235309084E+02 0.  0.
        254    2    1    2    0    0  0.92657788800E+03  0.61000381825E+03 -0.58911496708E+03  0.15448233783E+04  0.89931728829E+03 0.  0.
         23    2    4    4    0    0  0.20715164735E+03  0.24789561955E+03 -0.65020522032E+03  0.73195199468E+03  0.92859306452E+02 0.  0.
         23    2    4    4    0    0  0.71942624065E+03  0.36210819870E+03  0.61090253241E+02  0.81287138365E+03  0.91276525051E+02 0.  0.
          3    1    3    3  502    0 -0.90837024071E+03 -0.60185533145E+03  0.31993259207E+03  0.11356598072E+04  0.00000000000E+00 0. -1.
         -4    1    3    3    0  502 -0.18207647284E+02 -0.81484867979E+01  0.17056668310E+02  0.26245879497E+02  0.00000000000E+00 0.  1.
         11    1    5    5    0    0  0.38955621690E+02  0.50978956633E+02 -0.61818182181E+02  0.89094792939E+02  0.00000000000E+00 0.  1.
        -11    1    5    5    0    0  0.16819602566E+03  0.19691666291E+03 -0.58838703814E+03  0.64285720174E+03  0.00000000000E+00 0. -1.
          3    1    6    6  503    0  0.68169187847E+03  0.31845068079E+03  0.63775861305E+02  0.75510397545E+03  0.00000000000E+00 0. -1.
         -3    1    6    6    0  503  0.37734362181E+02  0.43657517914E+02 -0.26856080639E+01  0.57767408201E+02  0.00000000000E+00 0.  1.
<mgrwt>
<rscale>  0 0.26949610E+04</rscale>
<asrwt>0</asrwt>
<pdfrwt beam="1">  1        3 0.22760421E+00 0.26949610E+04</pdfrwt>
<pdfrwt beam="2">  1       -4 0.18881564E+00 0.26949610E+04</pdfrwt>
<totfact> 0.31221037E-02</totfact>
</mgrwt>
</event>
<event>
12    4  0.4207946E-008  0.1303207E+04  0.7818608E-02  0.9027026E-01
          1   -1    0    0  501    0  0.00000000000E+00  0.00000000000E+00  0.13453967922E+04  0.13453967922E+04  0.00000000000E+00 0. -1.
         -2   -1    0    0    0  501 -0.00000000000E+00 -0.00000000000E+00 -0.31558497029E+03  0.31558497029E+03  0.00000000000E+00 0.  1.
        -24    2    1    2    0    0  0.23538098537E+03 -0.16766907323E+03  0.63857868082E+02  0.30638991418E+03  0.79245351939E+02 0.  0.
        254    2    1    2    0    0 -0.23538098537E+03  0.16766907323E+03  0.96595395380E+03  0.13545918483E+04  0.90461865345E+03 0.  0.
         23    2    4    4    0    0  0.14754897403E+03  0.43684026960E+03  0.53278024362E+03  0.71033760526E+03  0.90136588473E+02 0.  0.
         23    2    4    4    0    0 -0.38292995941E+03 -0.26917119637E+03  0.43317371019E+03  0.64425424302E+03  0.91299395859E+02 0.  0.
          3    1    3    3  502    0  0.16203484384E+03 -0.10408885637E+03  0.45558801747E+01  0.19264095276E+03  0.00000000000E+00 0. -1.
         -4    1    3    3    0  502  0.73346141539E+02 -0.63580216861E+02  0.59301987907E+02  0.11374896142E+03  0.00000000000E+00 0.  1.
         11    1    5    5    0    0  0.43085207673E+02  0.78856853575E+02  0.59410226172E+02  0.10772331897E+03  0.00000000000E+00 0.  1.
        -11    1    5    5    0    0  0.10446376636E+03  0.35798341602E+03  0.47337001744E+03  0.60261428629E+03  0.00000000000E+00 0. -1.
          1    1    6    6  503    0 -0.35749667826E+03 -0.27202935967E+03  0.39438007536E+03  0.59777879799E+03  0.00000000000E+00 0. -1.
         -1    1    6    6    0  503 -0.25433281145E+02  0.28581632965E+01  0.38793634831E+02  0.46475445029E+02  0.00000000000E+00 0.  1.
<mgrwt>
<rscale>  0 0.13032068E+04</rscale>
<asrwt>0</asrwt>
<pdfrwt beam="1">  1        1 0.20698412E+00 0.13032068E+04</pdfrwt>
<pdfrwt beam="2">  1       -2 0.48551535E-01 0.13032068E+04</pdfrwt>
<totfact> 0.29067013E+01</totfact>
</mgrwt>
</event>
<event>
12    4  0.4207946E-008  0.1847238E+04  0.7818608E-02  0.8681575E-01
         -2   -1    0    0    0  501 -0.00000000000E+00  0.00000000000E+00  0.26852171121E+03  0.26852171121E+03  0.00000000000E+00 0.  1.
          1   -1    0    0  501    0  0.00000000000E+00 -0.00000000000E+00 -0.31769195699E+04  0.31769195699E+04  0.00000000000E+00 0. -1.
        -24    2    1    2    0    0 -0.48750061254E+03  0.43127026669E+03 -0.15866940160E+04  0.17167867727E+04  0.78153900082E+02 0.  0.
        254    2    1    2    0    0  0.48750061254E+03 -0.43127026669E+03 -0.13217038427E+04  0.17286545085E+04  0.90426460273E+03 0.  0.
         23    2    4    4    0    0  0.61891257785E+03 -0.60930347714E+03 -0.10538042555E+04  0.13686729930E+04  0.91971987696E+02 0.  0.
         23    2    4    4    0    0 -0.13141196530E+03  0.17803321045E+03 -0.26789958713E+03  0.35998151546E+03  0.94082804181E+02 0.  0.
          1    1    3    3  502    0 -0.47463229859E+03  0.41062489259E+03 -0.15546714295E+04  0.16765714644E+04  0.00000000000E+00 0. -1.
         -2    1    3    3    0  502 -0.12868313953E+02  0.20645374100E+02 -0.32022586489E+02  0.40215308294E+02  0.00000000000E+00 0.  1.
         11    1    5    5    0    0  0.55085718777E+01 -0.27087660708E+02 -0.32830292453E+02  0.42917523570E+02  0.00000000000E+00 0.  1.
        -11    1    5    5    0    0  0.61340400597E+03 -0.58221581643E+03 -0.10209739631E+04  0.13257554694E+04  0.00000000000E+00 0. -1.
          4    1    6    6  503    0 -0.82769240189E+02  0.81838115931E+02 -0.20343977828E+03  0.23438423097E+03  0.00000000000E+00 0.  1.
         -4    1    6    6    0  503 -0.48642725115E+02  0.96195094514E+02 -0.64459808857E+02  0.12559728450E+03  0.00000000000E+00 0. -1.
<mgrwt>
<rscale>  0 0.18472378E+04</rscale>
<asrwt>0</asrwt>
<pdfrwt beam="1">  1        1 0.48875684E+00 0.18472378E+04</pdfrwt>
<pdfrwt beam="2">  1       -2 0.41311034E-01 0.18472378E+04</pdfrwt>
<totfact> 0.20346908E+00</totfact>
</mgrwt>
</event>
<event>
12    4  0.4207946E-008  0.2003790E+04  0.7818608E-02  0.8604851E-01
         -2   -1    0    0    0  501 -0.00000000000E+00  0.00000000000E+00  0.34172829962E+03  0.34172829962E+03  0.00000000000E+00 0.  1.
          1   -1    0    0  501    0  0.00000000000E+00 -0.00000000000E+00 -0.29374034569E+04  0.29374034569E+04  0.00000000000E+00 0. -1.
        -24    2    1    2    0    0 -0.18602851507E+02  0.76169185924E+03 -0.64868109492E+03  0.10037151825E+04  0.78335497451E+02 0.  0.
        254    2    1    2    0    0  0.18602851507E+02 -0.76169185924E+03 -0.19469940623E+04  0.22754165740E+04  0.89789428772E+03 0.  0.
         23    2    4    4    0    0 -0.24398000825E+03 -0.27071035079E+03 -0.15260457421E+04  0.15715005573E+04  0.89375925269E+02 0.  0.
         23    2    4    4    0    0  0.26258285975E+03 -0.49098150846E+03 -0.42094832020E+03  0.70391601671E+03  0.91036643264E+02 0.  0.
          1    1    3    3  502    0 -0.17107355981E+02  0.15229841220E+03 -0.16930602686E+03  0.22836812106E+03  0.00000000000E+00 0. -1.
         -2    1    3    3    0  502 -0.14954955267E+01  0.60939344704E+03 -0.47937506806E+03  0.77534706144E+03  0.00000000000E+00 0.  1.
         11    1    5    5    0    0 -0.44212510221E+01 -0.41175015374E+02 -0.12391422807E+03  0.13065092908E+03  0.00000000000E+00 0. -1.
        -11    1    5    5    0    0 -0.23955875722E+03 -0.22953533541E+03 -0.14021315141E+04  0.14408496282E+04  0.00000000000E+00 0.  1.
          3    1    6    6  503    0  0.25517801181E+01 -0.64967701696E+02 -0.51833545409E+02  0.83150648074E+02  0.00000000000E+00 0. -1.
         -3    1    6    6    0  503  0.26003107963E+03 -0.42601380676E+03 -0.36911477479E+03  0.62076536863E+03  0.00000000000E+00 0.  1.
<mgrwt>
<rscale>  0 0.20037903E+04</rscale>
<asrwt>0</asrwt>
<pdfrwt beam="1">  1        1 0.45190823E+00 0.20037903E+04</pdfrwt>
<pdfrwt beam="2">  1       -2 0.52573584E-01 0.20037903E+04</pdfrwt>
<totfact> 0.18493248E+00</totfact>
</mgrwt>
</event>
<event>
12    4  0.4207946E-008  0.1425257E+04  0.7818608E-02  0.8935736E-01
         -2   -1    0    0    0  501 -0.00000000000E+00  0.00000000000E+00  0.10278773313E+04  0.10278773313E+04  0.00000000000E+00 0.  1.
          1   -1    0    0  501    0  0.00000000000E+00 -0.00000000000E+00 -0.49406625196E+03  0.49406625196E+03  0.00000000000E+00 0. -1.
        -24    2    1    2    0    0 -0.28753219237E+03  0.95314421080E+02 -0.15234849950E+03  0.34836247502E+03  0.79917133240E+02 0.  0.
        254    2    1    2    0    0  0.28753219237E+03 -0.95314421080E+02  0.68615957885E+03  0.11735811083E+04  0.90261733281E+03 0.  0.
         23    2    4    4    0    0  0.43647813688E+03  0.10177494764E+03  0.20124899639E+02  0.45765464777E+03  0.90396134326E+02 0.  0.
         23    2    4    4    0    0 -0.14894594451E+03 -0.19708936872E+03  0.66603467921E+03  0.71592646048E+03  0.88990950466E+02 0.  0.
          3    1    3    3  502    0 -0.16246310141E+03  0.62048517090E+02 -0.12977106287E+03  0.21699033746E+03  0.00000000000E+00 0. -1.
         -4    1    3    3    0  502 -0.12506909096E+03  0.33265903990E+02 -0.22577436632E+02  0.13137213756E+03  0.00000000000E+00 0.  1.
         11    1    5    5    0    0  0.13714909212E+03  0.15408983572E+02  0.44898328022E+02  0.14513156136E+03  0.00000000000E+00 0.  1.
        -11    1    5    5    0    0  0.29932904475E+03  0.86365964065E+02 -0.24773428383E+02  0.31252308641E+03  0.00000000000E+00 0. -1.
          3    1    6    6  503    0 -0.14838292444E+03 -0.20406150899E+03  0.62013465657E+03  0.66949651530E+03  0.00000000000E+00 0. -1.
         -3    1    6    6    0  503 -0.56302006913E+00  0.69721402767E+01  0.45900022637E+02  0.46429945183E+02  0.00000000000E+00 0.  1.
<mgrwt>
<rscale>  0 0.14252572E+04</rscale>
<asrwt>0</asrwt>
<pdfrwt beam="1">  1        1 0.76010193E-01 0.14252572E+04</pdfrwt>
<pdfrwt beam="2">  1       -2 0.15813497E+00 0.14252572E+04</pdfrwt>
<totfact> 0.99627103E+00</totfact>
</mgrwt>
</event>
<event>
12    4  0.4207946E-008  0.1262522E+04  0.7818608E-02  0.9059825E-01
         -2   -1    0    0    0  501 -0.00000000000E+00  0.00000000000E+00  0.57634537192E+03  0.57634537192E+03  0.00000000000E+00 0.  1.
          3   -1    0    0  501    0  0.00000000000E+00 -0.00000000000E+00 -0.69140924191E+03  0.69140924191E+03  0.00000000000E+00 0. -1.
        -24    2    1    2    0    0 -0.20240518371E+03 -0.11202266648E+02  0.22303522923E+03  0.31148521750E+03  0.78644631544E+02 0.  0.
        254    2    1    2    0    0  0.20240518371E+03  0.11202266648E+02 -0.33809909922E+03  0.95626939634E+03  0.87123292425E+03 0.  0.
         23    2    4    4    0    0 -0.13595234011E+03  0.35934558432E+03 -0.20437469183E+03  0.44455342754E+03  0.90809952796E+02 0.  0.
         23    2    4    4    0    0  0.33835752382E+03 -0.34814331768E+03 -0.13372440739E+03  0.51171596879E+03  0.91002373712E+02 0.  0.
          1    1    3    3  502    0 -0.13649451981E+03 -0.19005979852E+02  0.95354253686E+02  0.16758405325E+03  0.00000000000E+00 0. -1.
         -2    1    3    3    0  502 -0.65910663904E+02  0.78037132041E+01  0.12768097555E+03  0.14390116425E+03  0.00000000000E+00 0.  1.
         11    1    5    5    0    0 -0.54717393118E+02  0.19919233039E+03 -0.62879649141E+02  0.21592921959E+03  0.00000000000E+00 0.  1.
        -11    1    5    5    0    0 -0.81234946988E+02  0.16015325393E+03 -0.14149504269E+03  0.22862420795E+03  0.00000000000E+00 0. -1.
          2    1    6    6  503    0  0.31762094384E+03 -0.31654977779E+03 -0.96545239524E+02  0.45870230984E+03  0.00000000000E+00 0. -1.
         -2    1    6    6    0  503  0.20736579980E+02 -0.31593539886E+02 -0.37179167869E+02  0.53013658949E+02  0.00000000000E+00 0.  1.
<mgrwt>
<rscale>  0 0.12625221E+04</rscale>
<asrwt>0</asrwt>
<pdfrwt beam="1">  1        3 0.10637065E+00 0.12625221E+04</pdfrwt>
<pdfrwt beam="2">  1       -2 0.88668519E-01 0.12625221E+04</pdfrwt>
<totfact> 0.33715274E+00</totfact>
</mgrwt>
</event>
<event>
12    4  0.4207946E-008  0.2897852E+04  0.7818608E-02  0.8273517E-01
         -2   -1    0    0    0  501 -0.00000000000E+00  0.00000000000E+00  0.59134432735E+03  0.59134432735E+03  0.00000000000E+00 0.  1.
          1   -1    0    0  501    0  0.00000000000E+00 -0.00000000000E+00 -0.35501935140E+04  0.35501935140E+04  0.00000000000E+00 0. -1.
        -24    2    1    2    0    0  0.45707174957E+03 -0.10336355722E+04 -0.38797903135E+03  0.11975432426E+04  0.79151809674E+02 0.  0.
        254    2    1    2    0    0 -0.45707174957E+03  0.10336355722E+04 -0.25708701553E+04  0.29439945987E+04  0.88341030192E+03 0.  0.
         23    2    4    4    0    0 -0.52521379841E+03  0.98518295279E+03 -0.15332091060E+04  0.18988299294E+04  0.91596689245E+02 0.  0.
         23    2    4    4    0    0  0.68142048848E+02  0.48452619366E+02 -0.10376610493E+04  0.10451646693E+04  0.92939429926E+02 0.  0.
          3    1    3    3  502    0  0.13004761523E+03 -0.29195933151E+03 -0.14781963512E+03  0.35214099166E+03  0.00000000000E+00 0. -1.
         -4    1    3    3    0  502  0.32702413434E+03 -0.74167624064E+03 -0.24015939623E+03  0.84540225099E+03  0.00000000000E+00 0.  1.
         11    1    5    5    0    0 -0.10956176797E+03  0.17638974916E+03 -0.23190463079E+03  0.31128264068E+03  0.00000000000E+00 0. -1.
        -11    1    5    5    0    0 -0.41565203045E+03  0.80879320363E+03 -0.13013044752E+04  0.15875472887E+04  0.00000000000E+00 0.  1.
          3    1    6    6  503    0  0.12893338185E+02  0.46183514815E+02 -0.19949099102E+03  0.20517263636E+03  0.00000000000E+00 0. -1.
         -3    1    6    6    0  503  0.55248710663E+02  0.22691045516E+01 -0.83817005827E+03  0.83999203297E+03  0.00000000000E+00 0.  1.
<mgrwt>
<rscale>  0 0.28978522E+04</rscale>
<asrwt>0</asrwt>
<pdfrwt beam="1">  1        1 0.54618362E+00 0.28978522E+04</pdfrwt>
<pdfrwt beam="2">  1       -2 0.90976050E-01 0.28978522E+04</pdfrwt>
<totfact> 0.17747799E-01</totfact>
</mgrwt>
</event>
<event>
12    4  0.4207946E-008  0.1244478E+04  0.7818608E-02  0.9074792E-01
         -2   -1    0    0    0  501 -0.00000000000E+00  0.00000000000E+00  0.12607502042E+03  0.12607502042E+03  0.00000000000E+00 0.  1.
          1   -1    0    0  501    0  0.00000000000E+00 -0.00000000000E+00 -0.30710392511E+04  0.30710392511E+04  0.00000000000E+00 0. -1.
        -24    2    1    2    0    0  0.76388646466E+02 -0.27145296936E+03 -0.86170061161E+03  0.91008691732E+03  0.78792849605E+02 0.  0.
        254    2    1    2    0    0 -0.76388646466E+02  0.27145296936E+03 -0.20832636191E+04  0.22870273542E+04  0.90054698515E+03 0.  0.
         23    2    4    4    0    0  0.34358094629E+03 -0.89739236364E+01 -0.43928415335E+03  0.56485008073E+03  0.89200046847E+02 0.  0.
         23    2    4    4    0    0 -0.41996959276E+03  0.28042689299E+03 -0.16439794657E+04  0.17221772735E+04  0.90622162893E+02 0.  0.
          3    1    3    3  502    0  0.23084307181E+02 -0.20479263603E+03 -0.64754062472E+03  0.67954526683E+03  0.00000000000E+00 0. -1.
         -4    1    3    3    0  502  0.53304339286E+02 -0.66660333329E+02 -0.21415998689E+03  0.23054165049E+03  0.00000000000E+00 0.  1.
         11    1    5    5    0    0  0.23772427206E+03 -0.15222813671E+02 -0.36315647768E+03  0.43431231949E+03  0.00000000000E+00 0. -1.
        -11    1    5    5    0    0  0.10585667423E+03  0.62488900351E+01 -0.76127675672E+02  0.13053776124E+03  0.00000000000E+00 0.  1.
          3    1    6    6  503    0 -0.21819045390E+03  0.10440808943E+03 -0.87975191607E+03  0.91239879282E+03  0.00000000000E+00 0.  1.
         -3    1    6    6    0  503 -0.20177913886E+03  0.17601880356E+03 -0.76422754964E+03  0.80977848065E+03  0.00000000000E+00 0. -1.
<mgrwt>
<rscale>  0 0.12444779E+04</rscale>
<asrwt>0</asrwt>
<pdfrwt beam="1">  1        1 0.47246755E+00 0.12444779E+04</pdfrwt>
<pdfrwt beam="2">  1       -2 0.19396158E-01 0.12444779E+04</pdfrwt>
<totfact> 0.10490945E+01</totfact>
</mgrwt>
</event>
<event>
12    4  0.4207946E-008  0.1625443E+04  0.7818608E-02  0.8805068E-01
          1   -1    0    0  501    0  0.00000000000E+00  0.00000000000E+00  0.12784270409E+04  0.12784270409E+04  0.00000000000E+00 0. -1.
         -2   -1    0    0    0  501 -0.00000000000E+00 -0.00000000000E+00 -0.51666336203E+03  0.51666336203E+03  0.00000000000E+00 0.  1.
        -24    2    1    2    0    0 -0.19039836885E+03  0.31478375517E+03  0.73672234055E+03  0.82585764834E+03  0.62774970155E+02 0.  0.
        254    2    1    2    0    0  0.19039836885E+03 -0.31478375517E+03  0.25041338298E+02  0.96923275456E+03  0.89635077537E+03 0.  0.
         23    2    4    4    0    0 -0.30127951235E+03 -0.34551638456E+03  0.31564930178E+02  0.46804511241E+03  0.88988571615E+02 0.  0.
         23    2    4    4    0    0  0.49167788120E+03  0.30732629382E+02 -0.65235918801E+01  0.50118764215E+03  0.91950323680E+02 0.  0.
          1    1    3    3  502    0 -0.16914729655E+03  0.22966762784E+03  0.55057273249E+03  0.62007125475E+03  0.00000000000E+00 0. -1.
         -2    1    3    3    0  502 -0.21251072301E+02  0.85116127336E+02  0.18614960806E+03  0.20578639359E+03  0.00000000000E+00 0.  1.
         11    1    5    5    0    0 -0.12809693550E+03 -0.20335223071E+03  0.40901872896E+02  0.24379072547E+03  0.00000000000E+00 0.  1.
        -11    1    5    5    0    0 -0.17318257685E+03 -0.14216415384E+03 -0.93369427179E+01  0.22425438694E+03  0.00000000000E+00 0. -1.
          2    1    6    6  503    0  0.35918249094E+03  0.27292599641E+02  0.35952436936E+02  0.36200763185E+03  0.00000000000E+00 0. -1.
         -2    1    6    6    0  503  0.13249539025E+03  0.34400297407E+01 -0.42476028816E+02  0.13918001030E+03  0.00000000000E+00 0.  1.
<mgrwt>
<rscale>  0 0.16254432E+04</rscale>
<asrwt>0</asrwt>
<pdfrwt beam="1">  1        1 0.19668108E+00 0.16254432E+04</pdfrwt>
<pdfrwt beam="2">  1       -2 0.79486671E-01 0.16254432E+04</pdfrwt>
<totfact> 0.11042225E+01</totfact>
</mgrwt>
</event>
<event>
12    4  0.4207946E-008  0.1732957E+04  0.7818608E-02  0.8742788E-01
         -2   -1    0    0    0  501 -0.00000000000E+00  0.00000000000E+00  0.21761913347E+03  0.21761913347E+03  0.00000000000E+00 0.  1.
          1   -1    0    0  501    0  0.00000000000E+00 -0.00000000000E+00 -0.34499944316E+04  0.34499944316E+04  0.00000000000E+00 0. -1.
        -24    2    1    2    0    0  0.45162964174E+03 -0.24521636791E+03 -0.19842337558E+04  0.20511597517E+04  0.77280844026E+02 0.  0.
        254    2    1    2    0    0 -0.45162964174E+03  0.24521636791E+03 -0.12481415423E+04  0.16164538134E+04  0.88936225508E+03 0.  0.
         23    2    4    4    0    0  0.23949803950E+02 -0.27188139900E+03 -0.19723720512E+03  0.34904122526E+03  0.91837757013E+02 0.  0.
         23    2    4    4    0    0 -0.47557944569E+03  0.51709776692E+03 -0.10509043372E+04  0.12674125881E+04  0.91481325344E+02 0.  0.
          1    1    3    3  502    0  0.41073446174E+03 -0.19474830871E+03 -0.17186978241E+04  0.17777941141E+04  0.00000000000E+00 0. -1.
         -2    1    3    3    0  502  0.40895180008E+02 -0.50468059202E+02 -0.26553593175E+03  0.27336563755E+03  0.00000000000E+00 0.  1.
         11    1    5    5    0    0  0.16854726373E+01 -0.20169955866E+03 -0.18634941148E+03  0.27461182776E+03  0.00000000000E+00 0.  1.
        -11    1    5    5    0    0  0.22264331312E+02 -0.70181840340E+02 -0.10887793635E+02  0.74429397502E+02  0.00000000000E+00 0. -1.
          4    1    6    6  503    0 -0.34750430311E+03  0.36341704358E+03 -0.82011173265E+03  0.96198463723E+03  0.00000000000E+00 0. -1.
         -4    1    6    6    0  503 -0.12807514259E+03  0.15368072333E+03 -0.23079260455E+03  0.30542795089E+03  0.00000000000E+00 0.  1.
<mgrwt>
<rscale>  0 0.17329568E+04</rscale>
<asrwt>0</asrwt>
<pdfrwt beam="1">  1        1 0.53076833E+00 0.17329568E+04</pdfrwt>
<pdfrwt beam="2">  1       -2 0.33479870E-01 0.17329568E+04</pdfrwt>
<totfact> 0.19147097E+00</totfact>
</mgrwt>
</event>
<event>
12    4  0.4207946E-008  0.1640599E+04  0.7818608E-02  0.8795987E-01
          3   -1    0    0  501    0  0.00000000000E+00  0.00000000000E+00  0.39792027465E+03  0.39792027465E+03  0.00000000000E+00 0. -1.
         -4   -1    0    0    0  501 -0.00000000000E+00 -0.00000000000E+00 -0.16910206911E+04  0.16910206911E+04  0.00000000000E+00 0.  1.
        -24    2    1    2    0    0 -0.18309949808E+03  0.13849873861E+03 -0.11161489128E+04  0.11422306360E+04  0.78708978966E+02 0.  0.
        254    2    1    2    0    0  0.18309949808E+03 -0.13849873861E+03 -0.17695150366E+03  0.94671032981E+03  0.90124429936E+03 0.  0.
         23    2    4    4    0    0  0.45836444781E+03  0.17062464148E+03 -0.33170871484E+02  0.49834502596E+03  0.89647771254E+02 0.  0.
         23    2    4    4    0    0 -0.27526494973E+03 -0.30912338008E+03 -0.14378063217E+03  0.44836530385E+03  0.95029042095E+02 0.  0.
          1    1    3    3  502    0  0.72230248970E+00  0.19137653223E+02 -0.45295528669E+02  0.49177804030E+02  0.00000000000E+00 0. -1.
         -2    1    3    3    0  502 -0.18382180057E+03  0.11936108539E+03 -0.10708533842E+04  0.10930528320E+04  0.00000000000E+00 0.  1.
         11    1    5    5    0    0  0.37842144975E+03  0.10689183553E+03 -0.43302337196E+02  0.39560554917E+03  0.00000000000E+00 0.  1.
        -11    1    5    5    0    0  0.79942998065E+02  0.63732805945E+02  0.10131465712E+02  0.10273947679E+03  0.00000000000E+00 0. -1.
          2    1    6    6  503    0 -0.75572989209E+02 -0.46018092154E+02 -0.91059384783E+00  0.88485991460E+02  0.00000000000E+00 0. -1.
         -2    1    6    6    0  503 -0.19969196052E+03 -0.26310528793E+03 -0.14287003832E+03  0.35987931239E+03  0.00000000000E+00 0.  1.
<mgrwt>
<rscale>  0 0.16405992E+04</rscale>
<asrwt>0</asrwt>
<pdfrwt beam="1">  1        3 0.61218505E-01 0.16405992E+04</pdfrwt>
<pdfrwt beam="2">  1       -4 0.26015702E+00 0.16405992E+04</pdfrwt>
<totfact> 0.31117762E-01</totfact>
</mgrwt>
</event>
<event>
12    4  0.4207946E-008  0.1462713E+04  0.7818608E-02  0.8909634E-01
         -2   -1    0    0    0  501 -0.00000000000E+00  0.00000000000E+00  0.32160068860E+03  0.32160068860E+03  0.00000000000E+00 0.  1.
          1   -1    0    0  501    0  0.00000000000E+00 -0.00000000000E+00 -0.16631885617E+04  0.16631885617E+04  0.00000000000E+00 0. -1.
        -24    2    1    2    0    0  0.72729553793E+02 -0.44192877008E+03 -0.41758434370E+03  0.61742944248E+03  0.79068366154E+02 0.  0.
        254    2    1    2    0    0 -0.72729553793E+02  0.44192877008E+03 -0.92400352936E+03  0.13673598078E+04  0.90293947517E+03 0.  0.
         23    2    4    4    0    0 -0.22188227810E+03  0.53246852589E+03 -0.19984201296E+03  0.61711530999E+03  0.90221944580E+02 0.  0.
         23    2    4    4    0    0  0.14915272431E+03 -0.90539755818E+02 -0.72416151640E+03  0.75024449778E+03  0.89514926427E+02 0.  0.
          1    1    3    3  502    0  0.40113908384E+02 -0.26087703448E+03 -0.29765169115E+03  0.39782217385E+03  0.00000000000E+00 0. -1.
         -2    1    3    3    0  502  0.32615645409E+02 -0.18105173559E+03 -0.11993265255E+03  0.21960726863E+03  0.00000000000E+00 0.  1.
         11    1    5    5    0    0 -0.29184119528E+02  0.47346484610E+02 -0.48052819481E+02  0.73501536703E+02  0.00000000000E+00 0.  1.
        -11    1    5    5    0    0 -0.19269815857E+03  0.48512204128E+03 -0.15178919348E+03  0.54361377329E+03  0.00000000000E+00 0. -1.
          4    1    6    6  503    0  0.15246927582E+03 -0.71974111003E+02 -0.55527142825E+03  0.58030467149E+03  0.00000000000E+00 0. -1.
         -4    1    6    6    0  503 -0.33165515154E+01 -0.18565644815E+02 -0.16889008815E+03  0.16993982628E+03  0.00000000000E+00 0.  1.
<mgrwt>
<rscale>  0 0.14627134E+04</rscale>
<asrwt>0</asrwt>
<pdfrwt beam="1">  1        1 0.25587516E+00 0.14627134E+04</pdfrwt>
<pdfrwt beam="2">  1       -2 0.49477030E-01 0.14627134E+04</pdfrwt>
<totfact> 0.16628302E+01</totfact>
</mgrwt>
</event>
<event>
12    4  0.4207946E-008  0.1282492E+04  0.7818608E-02  0.9043566E-01
          1   -1    0    0  501    0  0.00000000000E+00  0.00000000000E+00  0.42310036948E+03  0.42310036948E+03  0.00000000000E+00 0. -1.
         -2   -1    0    0    0  501 -0.00000000000E+00 -0.00000000000E+00 -0.97186467457E+03  0.97186467457E+03  0.00000000000E+00 0.  1.
        -24    2    1    2    0    0 -0.13850875015E+03 -0.17326430355E+03  0.10690881951E+03  0.25888369764E+03  0.79912955523E+02 0.  0.
        254    2    1    2    0    0  0.13850875015E+03  0.17326430355E+03 -0.65567312460E+03  0.11360813464E+04  0.90087090451E+03 0.  0.
         23    2    4    4    0    0  0.36288457934E+02 -0.23489207272E+03 -0.65809091310E+03  0.70556610974E+03  0.90822614465E+02 0.  0.
         23    2    4    4    0    0  0.10222029222E+03  0.40815637627E+03  0.24177885018E+01  0.43051523668E+03  0.91087362902E+02 0.  0.
          3    1    3    3  502    0 -0.11736909237E+03 -0.11891033751E+03  0.43324977731E+02  0.17260424649E+03  0.00000000000E+00 0. -1.
         -4    1    3    3    0  502 -0.21139657784E+02 -0.54353966038E+02  0.63583841779E+02  0.86279451149E+02  0.00000000000E+00 0.  1.
         11    1    5    5    0    0  0.50229775446E+02 -0.12366515144E+03 -0.26374029814E+03  0.29559270100E+03  0.00000000000E+00 0. -1.
        -11    1    5    5    0    0 -0.13941317512E+02 -0.11122692128E+03 -0.39435061496E+03  0.40997340873E+03  0.00000000000E+00 0.  1.
          4    1    6    6  503    0  0.40732446932E+01  0.20299461619E+03  0.41933337598E+01  0.20307877677E+03  0.00000000000E+00 0. -1.
         -4    1    6    6    0  503  0.98147047524E+02  0.20516176007E+03 -0.17755452580E+01  0.22743645991E+03  0.00000000000E+00 0.  1.
<mgrwt>
<rscale>  0 0.12824918E+04</rscale>
<asrwt>0</asrwt>
<pdfrwt beam="1">  1        1 0.65092364E-01 0.12824918E+04</pdfrwt>
<pdfrwt beam="2">  1       -2 0.14951764E+00 0.12824918E+04</pdfrwt>
<totfact> 0.14444621E+01</totfact>
</mgrwt>
</event>
<event>
12    4  0.4207946E-008  0.3121253E+04  0.7818608E-02  0.8209929E-01
          1   -1    0    0  501    0  0.00000000000E+00  0.00000000000E+00  0.16274030549E+04  0.16274030549E+04  0.00000000000E+00 0. -1.
         -2   -1    0    0    0  501 -0.00000000000E+00 -0.00000000000E+00 -0.14965898324E+04  0.14965898324E+04  0.00000000000E+00 0.  1.
        -24    2    1    2    0    0 -0.84576402037E+03 -0.72811399770E+03 -0.83249139405E+03  0.13943757287E+04  0.75993287270E+02 0.  0.
        254    2    1    2    0    0  0.84576402037E+03  0.72811399770E+03  0.96330461652E+03  0.17296171586E+04  0.90451808127E+03 0.  0.
         23    2    4    4    0    0 -0.11355837193E+03  0.21812744691E+03  0.45878569505E+03  0.52826373289E+03  0.90017612568E+02 0.  0.
         23    2    4    4    0    0  0.95932239230E+03  0.50998655079E+03  0.50451892147E+03  0.12013534257E+04  0.91241311921E+02 0.  0.
          3    1    3    3  502    0 -0.10376961817E+03 -0.63911040638E+02 -0.10838642263E+03  0.16309620284E+03  0.00000000000E+00 0. -1.
         -4    1    3    3    0  502 -0.74199440220E+03 -0.66420295706E+03 -0.72410497141E+03  0.12312795258E+04  0.00000000000E+00 0.  1.
         11    1    5    5    0    0 -0.92068320854E+02  0.21790318597E+03  0.44070159902E+03  0.50017624248E+03  0.00000000000E+00 0. -1.
        -11    1    5    5    0    0 -0.21490051079E+02  0.22426093798E+00  0.18084096031E+02  0.28087490411E+02  0.00000000000E+00 0.  1.
          3    1    6    6  503    0  0.44540117177E+03  0.19341956321E+03  0.19819843961E+03  0.52447683715E+03  0.00000000000E+00 0. -1.
         -3    1    6    6    0  503  0.51392122053E+03  0.31656698757E+03  0.30632048186E+03  0.67687658856E+03  0.00000000000E+00 0.  1.
<mgrwt>
<rscale>  0 0.31212529E+04</rscale>
<asrwt>0</asrwt>
<pdfrwt beam="1">  1        1 0.25036970E+00 0.31212529E+04</pdfrwt>
<pdfrwt beam="2">  1       -2 0.23024459E+00 0.31212529E+04</pdfrwt>
<totfact> 0.33689965E-01</totfact>
</mgrwt>
</event>
<event>
12    4  0.4207946E-008  0.2667171E+04  0.7818608E-02  0.8345736E-01
          1   -1    0    0  501    0  0.00000000000E+00  0.00000000000E+00  0.22666299923E+04  0.22666299923E+04  0.00000000000E+00 0. -1.
         -2   -1    0    0    0  501 -0.00000000000E+00 -0.00000000000E+00 -0.78462308918E+03  0.78462308918E+03  0.00000000000E+00 0.  1.
        -24    2    1    2    0    0 -0.55617146049E+03 -0.93723307468E+03  0.12757774089E+03  0.11000688764E+04  0.78376801632E+02 0.  0.
        254    2    1    2    0    0  0.55617146049E+03  0.93723307468E+03  0.13544291622E+04  0.19511842051E+04  0.88595085477E+03 0.  0.
         23    2    4    4    0    0  0.38754358968E+03  0.44501314915E+03  0.12074595768E+03  0.60912394802E+03  0.90695429482E+02 0.  0.
         23    2    4    4    0    0  0.16862787081E+03  0.49221992553E+03  0.12336832046E+04  0.13420602571E+04  0.91845906805E+02 0.  0.
          1    1    3    3  502    0 -0.83875936922E+02 -0.12218313004E+03  0.42800707793E+02  0.15425884302E+03  0.00000000000E+00 0. -1.
         -2    1    3    3    0  502 -0.47229552357E+03 -0.81504994464E+03  0.84777033099E+02  0.94581003335E+03  0.00000000000E+00 0.  1.
         11    1    5    5    0    0  0.10536536441E+03  0.13282072883E+03 -0.59617488374E+01  0.16964300302E+03  0.00000000000E+00 0.  1.
        -11    1    5    5    0    0  0.28217822527E+03  0.31219242032E+03  0.12670770652E+03  0.43948094500E+03  0.00000000000E+00 0. -1.
          1    1    6    6  503    0  0.20683317473E+02  0.10187802509E+03  0.34301773421E+03  0.35842446569E+03  0.00000000000E+00 0. -1.
         -1    1    6    6    0  503  0.14794455333E+03  0.39034190043E+03  0.89066547035E+03  0.98363579142E+03  0.00000000000E+00 0.  1.
<mgrwt>
<rscale>  0 0.26671710E+04</rscale>
<asrwt>0</asrwt>
<pdfrwt beam="1">  1        1 0.34871230E+00 0.26671710E+04</pdfrwt>
<pdfrwt beam="2">  1       -2 0.12071125E+00 0.26671710E+04</pdfrwt>
<totfact> 0.79007762E-01</totfact>
</mgrwt>
</event>
<event>
12    4  0.4207946E-008  0.1552566E+04  0.7818608E-02  0.8850230E-01
         -2   -1    0    0    0  501 -0.00000000000E+00  0.00000000000E+00  0.31477999734E+03  0.31477999734E+03  0.00000000000E+00 0.  1.
          1   -1    0    0  501    0  0.00000000000E+00 -0.00000000000E+00 -0.19144019923E+04  0.19144019923E+04  0.00000000000E+00 0. -1.
        -24    2    1    2    0    0 -0.41686560928E+03 -0.37245500251E+02 -0.11237755539E+03  0.44053275746E+03  0.79222673207E+02 0.  0.
        254    2    1    2    0    0  0.41686560928E+03  0.37245500251E+02 -0.14872444395E+04  0.17886492321E+04  0.90122466079E+03 0.  0.
         23    2    4    4    0    0  0.20881121713E+03  0.92131525813E+01 -0.15389286057E+04  0.15557964395E+04  0.92272970989E+02 0.  0.
         23    2    4    4    0    0  0.20805439215E+03  0.28032347670E+02  0.51684166141E+02  0.23285279265E+03  0.86468071616E+02 0.  0.
          1    1    3    3  502    0 -0.33636276959E+02 -0.14827760748E+02  0.91318611031E+01  0.37876806936E+02  0.00000000000E+00 0. -1.
         -2    1    3    3    0  502 -0.38322933232E+03 -0.22417739504E+02 -0.12150941649E+03  0.40265595052E+03  0.00000000000E+00 0.  1.
         11    1    5    5    0    0  0.17063745842E+03  0.44568756945E+02 -0.11704572238E+04  0.11836695607E+04  0.00000000000E+00 0.  1.
        -11    1    5    5    0    0  0.38173758712E+02 -0.35355604364E+02 -0.36847138190E+03  0.37212687875E+03  0.00000000000E+00 0. -1.
          1    1    6    6  503    0  0.99034394082E+02  0.48820898662E+02 -0.23562361368E-01  0.11041418348E+03  0.00000000000E+00 0. -1.
         -1    1    6    6    0  503  0.10901999806E+03 -0.20788550992E+02  0.51707728503E+02  0.12243860918E+03  0.00000000000E+00 0.  1.
<mgrwt>
<rscale>  0 0.15525662E+04</rscale>
<asrwt>0</asrwt>
<pdfrwt beam="1">  1        1 0.29452338E+00 0.15525662E+04</pdfrwt>
<pdfrwt beam="2">  1       -2 0.48427692E-01 0.15525662E+04</pdfrwt>
<totfact> 0.11637827E+01</totfact>
</mgrwt>
</event>
<event>
12    4  0.4207946E-008  0.1393844E+04  0.7818608E-02  0.8958287E-01
          1   -1    0    0  501    0  0.00000000000E+00  0.00000000000E+00  0.13917436930E+04  0.13917436930E+04  0.00000000000E+00 0. -1.
         -2   -1    0    0    0  501 -0.00000000000E+00 -0.00000000000E+00 -0.34898663357E+03  0.34898663357E+03  0.00000000000E+00 0.  1.
        -24    2    1    2    0    0 -0.31563582908E+03  0.31152124347E+03  0.26810520621E+03  0.52428237009E+03  0.79499309826E+02 0.  0.
        254    2    1    2    0    0  0.31563582908E+03 -0.31152124347E+03  0.77465185318E+03  0.12164479564E+04  0.82643128895E+03 0.  0.
         23    2    4    4    0    0  0.12959784826E+03 -0.40416160617E+03  0.86825331164E+03  0.97078271524E+03  0.91722739086E+02 0.  0.
         23    2    4    4    0    0  0.18603798082E+03  0.92640362706E+02 -0.93601458462E+02  0.24566524120E+03  0.91639568935E+02 0.  0.
          3    1    3    3  502    0 -0.38948809776E+02  0.62082931792E+02  0.74281070489E+02  0.10435026419E+03  0.00000000000E+00 0. -1.
         -4    1    3    3    0  502 -0.27668701931E+03  0.24943831167E+03  0.19382413572E+03  0.41993210591E+03  0.00000000000E+00 0.  1.
         11    1    5    5    0    0  0.43372251861E+02 -0.10375796299E+03  0.32674103648E+03  0.34555256045E+03  0.00000000000E+00 0.  1.
        -11    1    5    5    0    0  0.86225596398E+02 -0.30040364318E+03  0.54151227516E+03  0.62523015479E+03  0.00000000000E+00 0. -1.
          1    1    6    6  503    0  0.65000723664E+02  0.30911253094E+02  0.12781817566E+02  0.73102493152E+02  0.00000000000E+00 0. -1.
         -1    1    6    6    0  503  0.12103725716E+03  0.61729109612E+02 -0.10638327603E+03  0.17256274804E+03  0.00000000000E+00 0.  1.
<mgrwt>
<rscale>  0 0.13938435E+04</rscale>
<asrwt>0</asrwt>
<pdfrwt beam="1">  1        1 0.21411441E+00 0.13938435E+04</pdfrwt>
<pdfrwt beam="2">  1       -2 0.53690252E-01 0.13938435E+04</pdfrwt>
<totfact> 0.21780275E+01</totfact>
</mgrwt>
</event>
<event>
12    4  0.4207946E-008  0.3056560E+04  0.7818608E-02  0.8227762E-01
          1   -1    0    0  501    0  0.00000000000E+00  0.00000000000E+00  0.90063272422E+03  0.90063272422E+03  0.00000000000E+00 0. -1.
         -2   -1    0    0    0  501 -0.00000000000E+00 -0.00000000000E+00 -0.25933324255E+04  0.25933324255E+04  0.00000000000E+00 0.  1.
        -24    2    1    2    0    0 -0.41827540229E+03  0.13301110241E+04 -0.76170870027E+03  0.15908232045E+04  0.79803980329E+02 0.  0.
        254    2    1    2    0    0  0.41827540229E+03 -0.13301110241E+04 -0.93099100100E+03  0.19031419452E+04  0.90058612642E+03 0.  0.
         23    2    4    4    0    0  0.84211086633E+02  0.18410434689E+02  0.10835241417E+03  0.16593809549E+03  0.91459032696E+02 0.  0.
         23    2    4    4    0    0  0.33406431566E+03 -0.13485214588E+04 -0.10393434152E+04  0.17372038497E+04  0.86795097956E+02 0.  0.
          3    1    3    3  502    0 -0.40411639431E+03  0.12879961705E+04 -0.72015851767E+03  0.15299910084E+04  0.00000000000E+00 0. -1.
         -4    1    3    3    0  502 -0.14159007981E+02  0.42114853630E+02 -0.41550182607E+02  0.60832196064E+02  0.00000000000E+00 0.  1.
         11    1    5    5    0    0  0.39644775699E+02  0.97835288861E+01 -0.74935092221E+01  0.41516001230E+02  0.00000000000E+00 0.  1.
        -11    1    5    5    0    0  0.44566310934E+02  0.86269058028E+01  0.11584592339E+03  0.12442209426E+03  0.00000000000E+00 0. -1.
          2    1    6    6  503    0  0.27005967899E+03 -0.12040121691E+04 -0.92392129857E+03  0.15414954101E+04  0.00000000000E+00 0. -1.
         -2    1    6    6    0  503  0.64004636671E+02 -0.14450928974E+03 -0.11542211660E+03  0.19570843961E+03  0.00000000000E+00 0.  1.
<mgrwt>
<rscale>  0 0.30565602E+04</rscale>
<asrwt>0</asrwt>
<pdfrwt beam="1">  1        1 0.13855888E+00 0.30565602E+04</pdfrwt>
<pdfrwt beam="2">  1       -2 0.39897422E+00 0.30565602E+04</pdfrwt>
<totfact> 0.10172655E-01</totfact>
</mgrwt>
</event>
<event>
12    4  0.4207946E-008  0.2363843E+04  0.7818608E-02  0.8453165E-01
         -2   -1    0    0    0  501 -0.00000000000E+00  0.00000000000E+00  0.30633972902E+03  0.30633972902E+03  0.00000000000E+00 0.  1.
          1   -1    0    0  501    0  0.00000000000E+00 -0.00000000000E+00 -0.45600970777E+04  0.45600970777E+04  0.00000000000E+00 0. -1.
        -24    2    1    2    0    0 -0.68116725653E+03  0.19664479823E+03 -0.35129602567E+03  0.79514877426E+03  0.78706210094E+02 0.  0.
        254    2    1    2    0    0  0.68116725653E+03 -0.19664479823E+03 -0.39024613230E+04  0.40712880325E+04  0.91843554896E+03 0.  0.
         23    2    4    4    0    0  0.12977382569E+03 -0.25529963102E+03 -0.29973251317E+03  0.42506797337E+03  0.93936441791E+02 0.  0.
         23    2    4    4    0    0  0.55139343084E+03  0.58654832789E+02 -0.36027288099E+04  0.36462200591E+04  0.88265152060E+02 0.  0.
          1    1    3    3  502    0 -0.90779848599E+02 -0.22327760624E-01 -0.52213554201E+02  0.10472457521E+03  0.00000000000E+00 0. -1.
         -2    1    3    3    0  502 -0.59038740793E+03  0.19666712600E+03 -0.29908247147E+03  0.69042419905E+03  0.00000000000E+00 0.  1.
         11    1    5    5    0    0  0.49142947663E+02 -0.14628750974E+03 -0.21683433605E+03  0.26614318346E+03  0.00000000000E+00 0.  1.
        -11    1    5    5    0    0  0.80630878027E+02 -0.10901212128E+03 -0.82898177120E+02  0.15892478991E+03  0.00000000000E+00 0. -1.
          1    1    6    6  503    0  0.41802226639E+03  0.72757980132E+02 -0.28901034547E+04  0.29210844421E+04  0.00000000000E+00 0. -1.
         -1    1    6    6    0  503  0.13337116445E+03 -0.14103147343E+02 -0.71262535512E+03  0.72513561699E+03  0.00000000000E+00 0.  1.
<mgrwt>
<rscale>  0 0.23638434E+04</rscale>
<asrwt>0</asrwt>
<pdfrwt beam="1">  1        1 0.70155341E+00 0.23638434E+04</pdfrwt>
<pdfrwt beam="2">  1       -2 0.47129188E-01 0.23638434E+04</pdfrwt>
<totfact> 0.94781638E-02</totfact>
</mgrwt>
</event>
<event>
12    4  0.4207946E-008  0.1276724E+04  0.7818608E-02  0.9048229E-01
          1   -1    0    0  501    0  0.00000000000E+00  0.00000000000E+00  0.12338947829E+04  0.12338947829E+04  0.00000000000E+00 0. -1.
         -2   -1    0    0    0  501 -0.00000000000E+00 -0.00000000000E+00 -0.33026019607E+03  0.33026019607E+03  0.00000000000E+00 0.  1.
        -24    2    1    2    0    0 -0.38791159551E+02  0.33146200326E+03  0.28662063384E+03  0.44718476386E+03  0.80318189876E+02 0.  0.
        254    2    1    2    0    0  0.38791159551E+02 -0.33146200326E+03  0.61701395299E+03  0.11169702151E+04  0.86922058741E+03 0.  0.
         23    2    4    4    0    0  0.38220226666E+03 -0.39845506514E+03  0.45346048361E+03  0.72012165708E+03  0.90020993228E+02 0.  0.
         23    2    4    4    0    0 -0.34341110710E+03  0.66993061883E+02  0.16355346938E+03  0.39684855802E+03  0.91212838106E+02 0.  0.
          3    1    3    3  502    0 -0.61807266010E+02  0.25992292467E+03  0.23691338141E+03  0.35708264476E+03  0.00000000000E+00 0. -1.
         -4    1    3    3    0  502  0.23016106459E+02  0.71539078592E+02  0.49707252423E+02  0.90102119097E+02  0.00000000000E+00 0.  1.
         11    1    5    5    0    0  0.29682568247E+03 -0.25455055759E+03  0.33759632391E+03  0.51659728035E+03  0.00000000000E+00 0.  1.
        -11    1    5    5    0    0  0.85376584185E+02 -0.14390450755E+03  0.11586415970E+03  0.20352437673E+03  0.00000000000E+00 0. -1.
          3    1    6    6  503    0 -0.11873557401E+03 -0.20269248219E+02  0.50142906138E+02  0.13047333059E+03  0.00000000000E+00 0. -1.
         -3    1    6    6    0  503 -0.22467553309E+03  0.87262310103E+02  0.11341056324E+03  0.26637522743E+03  0.00000000000E+00 0.  1.
<mgrwt>
<rscale>  0 0.12767245E+04</rscale>
<asrwt>0</asrwt>
<pdfrwt beam="1">  1        1 0.18982996E+00 0.12767245E+04</pdfrwt>
<pdfrwt beam="2">  1       -2 0.50809262E-01 0.12767245E+04</pdfrwt>
<totfact> 0.31907234E+01</totfact>
</mgrwt>
</event>
<event>
12    4  0.4207946E-008  0.1419437E+04  0.7818608E-02  0.8939868E-01
         -2   -1    0    0    0  501 -0.00000000000E+00  0.00000000000E+00  0.34993307980E+03  0.34993307980E+03  0.00000000000E+00 0.  1.
          1   -1    0    0  501    0  0.00000000000E+00 -0.00000000000E+00 -0.14394191908E+04  0.14394191908E+04  0.00000000000E+00 0. -1.
        -24    2    1    2    0    0 -0.53951313440E+02 -0.31957988762E+03  0.71388809669E+01  0.33450388730E+03  0.82461131492E+02 0.  0.
        254    2    1    2    0    0  0.53951313440E+02  0.31957988762E+03 -0.10966249919E+04  0.14548483833E+04  0.89941947755E+03 0.  0.
         23    2    4    4    0    0  0.38185901463E+03 -0.76963813940E+02 -0.66921758074E+03  0.77966694508E+03  0.91041963778E+02 0.  0.
         23    2    4    4    0    0 -0.32790770119E+03  0.39654370156E+03 -0.42740741120E+03  0.67518143820E+03  0.91774242568E+02 0.  0.
          3    1    3    3  502    0 -0.18474014687E+02 -0.12052055208E+02  0.11563255692E+02  0.24904821532E+02  0.00000000000E+00 0. -1.
         -4    1    3    3    0  502 -0.35477298753E+02 -0.30752783241E+03 -0.44243747247E+01  0.30959906577E+03  0.00000000000E+00 0.  1.
         11    1    5    5    0    0  0.26534776873E+03 -0.19992691761E+02 -0.39427155784E+03  0.47566711828E+03  0.00000000000E+00 0. -1.
        -11    1    5    5    0    0  0.11651124589E+03 -0.56971122179E+02 -0.27494602290E+03  0.30399982679E+03  0.00000000000E+00 0.  1.
          3    1    6    6  503    0 -0.32240125158E+03  0.38725882839E+03 -0.43173012007E+03  0.66355321095E+03  0.00000000000E+00 0. -1.
         -3    1    6    6    0  503 -0.55064496041E+01  0.92848731675E+01  0.43227088699E+01  0.11628227249E+02  0.00000000000E+00 0.  1.
<mgrwt>
<rscale>  0 0.14194371E+04</rscale>
<asrwt>0</asrwt>
<pdfrwt beam="1">  1        1 0.22144911E+00 0.14194371E+04</pdfrwt>
<pdfrwt beam="2">  1       -2 0.53835859E-01 0.14194371E+04</pdfrwt>
<totfact> 0.20014487E+01</totfact>
</mgrwt>
</event>
<event>
12    4  0.4207946E-008  0.1154197E+04  0.7818608E-02  0.9153921E-01
         -2   -1    0    0    0  501 -0.00000000000E+00  0.00000000000E+00  0.54299325260E+03  0.54299325260E+03  0.00000000000E+00 0.  1.
          1   -1    0    0  501    0  0.00000000000E+00 -0.00000000000E+00 -0.61334545492E+03  0.61334545492E+03  0.00000000000E+00 0. -1.
        -24    2    1    2    0    0  0.27287243556E+02 -0.89208475037E+02  0.17933642833E+03  0.21790158187E+03  0.81343710127E+02 0.  0.
        254    2    1    2    0    0 -0.27287243556E+02  0.89208475037E+02 -0.24968863065E+03  0.93843712565E+03  0.89978724199E+03 0.  0.
         23    2    4    4    0    0 -0.34379907893E+03 -0.66417216277E+02 -0.40336843869E+03  0.54342014183E+03  0.99951487832E+02 0.  0.
         23    2    4    4    0    0  0.31651183537E+03  0.15562569131E+03  0.15367980804E+03  0.39501698382E+03  0.89564705004E+02 0.  0.
          3    1    3    3  502    0  0.21654380349E+01 -0.16237506293E+01 -0.86141471857E+01  0.90293532286E+01  0.00000000000E+00 0. -1.
         -4    1    3    3    0  502  0.25121805521E+02 -0.87584724408E+02  0.18795057552E+03  0.20887222864E+03  0.00000000000E+00 0.  1.
         11    1    5    5    0    0 -0.34733466717E+03 -0.63566956409E+02 -0.40608123429E+03  0.53813018668E+03  0.00000000000E+00 0.  1.
        -11    1    5    5    0    0  0.35355882416E+01 -0.28502598679E+01  0.27127956018E+01  0.52899551516E+01  0.00000000000E+00 0. -1.
          4    1    6    6  503    0  0.11944717096E+03  0.99561686149E+02  0.39389157666E+02  0.16041091528E+03  0.00000000000E+00 0. -1.
         -4    1    6    6    0  503  0.19706466441E+03  0.56064005165E+02  0.11429065037E+03  0.23460606854E+03  0.00000000000E+00 0.  1.
<mgrwt>
<rscale>  0 0.11541966E+04</rscale>
<asrwt>0</asrwt>
<pdfrwt beam="1">  1        1 0.94360839E-01 0.11541966E+04</pdfrwt>
<pdfrwt beam="2">  1       -2 0.83537424E-01 0.11541966E+04</pdfrwt>
<totfact> 0.36145215E+01</totfact>
</mgrwt>
</event>
<event>
12    4  0.4207946E-008  0.1879210E+04  0.7818608E-02  0.8665275E-01
          1   -1    0    0  501    0  0.00000000000E+00  0.00000000000E+00  0.10352460725E+04  0.10352460725E+04  0.00000000000E+00 0. -1.
         -2   -1    0    0    0  501 -0.00000000000E+00 -0.00000000000E+00 -0.85279993901E+03  0.85279993901E+03  0.00000000000E+00 0.  1.
        -24    2    1    2    0    0  0.40113929396E+03  0.18662511772E+03 -0.49948450579E+03  0.67193771465E+03  0.79207658202E+02 0.  0.
        254    2    1    2    0    0 -0.40113929396E+03 -0.18662511772E+03  0.68193063930E+03  0.12161082969E+04  0.90451551961E+03 0.  0.
         23    2    4    4    0    0 -0.22938903279E+03 -0.20656629978E+03 -0.15420226025E+03  0.35696840994E+03  0.91428354791E+02 0.  0.
         23    2    4    4    0    0 -0.17175026117E+03  0.19941182060E+02  0.83613289955E+03  0.85913988695E+03  0.95432262205E+02 0.  0.
          1    1    3    3  502    0  0.15934948443E+03  0.36844854931E+02 -0.15652309914E+03  0.22638304285E+03  0.00000000000E+00 0. -1.
         -2    1    3    3    0  502  0.24178980953E+03  0.14978026279E+03 -0.34296140665E+03  0.44555467180E+03  0.00000000000E+00 0.  1.
         11    1    5    5    0    0 -0.17679344891E+03 -0.13992807466E+03 -0.66872773517E+02  0.23517601385E+03  0.00000000000E+00 0. -1.
        -11    1    5    5    0    0 -0.52595583885E+02 -0.66638225119E+02 -0.87329486736E+02  0.12179239609E+03  0.00000000000E+00 0.  1.
          3    1    6    6  503    0 -0.10260482309E+03  0.53615864299E+02  0.59074456596E+03  0.60198135589E+03  0.00000000000E+00 0. -1.
         -3    1    6    6    0  503 -0.69145438081E+02 -0.33674682239E+02  0.24538833360E+03  0.25715853106E+03  0.00000000000E+00 0.  1.
<mgrwt>
<rscale>  0 0.18792102E+04</rscale>
<asrwt>0</asrwt>
<pdfrwt beam="1">  1        1 0.15926863E+00 0.18792102E+04</pdfrwt>
<pdfrwt beam="2">  1       -2 0.13119999E+00 0.18792102E+04</pdfrwt>
<totfact> 0.49528282E+00</totfact>
</mgrwt>
</event>
<event>
12    4  0.4207946E-008  0.2042404E+04  0.7818608E-02  0.8587048E-01
         -2   -1    0    0    0  501 -0.00000000000E+00  0.00000000000E+00  0.74366140721E+03  0.74366140721E+03  0.00000000000E+00 0.  1.
          1   -1    0    0  501    0  0.00000000000E+00 -0.00000000000E+00 -0.14023232611E+04  0.14023232611E+04  0.00000000000E+00 0. -1.
        -24    2    1    2    0    0 -0.42382999325E+03 -0.64036742297E+03  0.42425370054E+02  0.77324708910E+03  0.80055288377E+02 0.  0.
        254    2    1    2    0    0  0.42382999325E+03  0.64036742297E+03 -0.70108722399E+03  0.13727375793E+04  0.89620470110E+03 0.  0.
         23    2    4    4    0    0 -0.13746491735E+03  0.56298550559E+03 -0.47655257856E+03  0.75583953190E+03  0.91333207819E+02 0.  0.
         23    2    4    4    0    0  0.56129491060E+03  0.77381917380E+02 -0.22453464544E+03  0.61689804735E+03  0.95432992302E+02 0.  0.
          3    1    3    3  502    0 -0.38281740202E+01  0.12662743410E+01 -0.30051569110E+01  0.50288502757E+01  0.00000000000E+00 0. -1.
         -4    1    3    3    0  502 -0.42000181923E+03 -0.64163369731E+03  0.45430526965E+02  0.76821823882E+03  0.00000000000E+00 0.  1.
         11    1    5    5    0    0 -0.10353993635E+03  0.30572187224E+03 -0.21781718318E+03  0.38939787734E+03  0.00000000000E+00 0. -1.
        -11    1    5    5    0    0 -0.33924981002E+02  0.25726363335E+03 -0.25873539538E+03  0.36644165456E+03  0.00000000000E+00 0.  1.
          4    1    6    6  503    0  0.32650118387E+03  0.77095777083E+02 -0.16892114678E+03  0.37560768861E+03  0.00000000000E+00 0. -1.
         -4    1    6    6    0  503  0.23479372674E+03  0.28614029701E+00 -0.55613498655E+02  0.24129035875E+03  0.00000000000E+00 0.  1.
<mgrwt>
<rscale>  0 0.20424042E+04</rscale>
<asrwt>0</asrwt>
<pdfrwt beam="1">  1        1 0.21574204E+00 0.20424042E+04</pdfrwt>
<pdfrwt beam="2">  1       -2 0.11440945E+00 0.20424042E+04</pdfrwt>
<totfact> 0.37072900E+00</totfact>
</mgrwt>
</event>
<event>
12    4  0.4207946E-008  0.1364750E+04  0.7818608E-02  0.8979737E-01
         -2   -1    0    0    0  501 -0.00000000000E+00  0.00000000000E+00  0.15041622497E+04  0.15041622497E+04  0.00000000000E+00 0.  1.
          1   -1    0    0  501    0  0.00000000000E+00 -0.00000000000E+00 -0.30956461802E+03  0.30956461802E+03  0.00000000000E+00 0. -1.
        -24    2    1    2    0    0 -0.18531456235E+03 -0.75716324453E+02 -0.83533893315E+02  0.23112175545E+03  0.79780359129E+02 0.  0.
        254    2    1    2    0    0  0.18531456235E+03  0.75716324453E+02  0.12781315250E+04  0.15826051123E+04  0.91156146112E+03 0.  0.
         23    2    4    4    0    0  0.24241595929E+03  0.11936405878E+03 -0.13405909024E+02  0.28564276925E+03  0.91644952822E+02 0.  0.
         23    2    4    4    0    0 -0.57101396945E+02 -0.43647734326E+02  0.12915374340E+04  0.12969623430E+04  0.94216142552E+02 0.  0.
          1    1    3    3  502    0 -0.14514521506E+03 -0.62471176284E+02 -0.98559162037E+02  0.18623557593E+03  0.00000000000E+00 0. -1.
         -2    1    3    3    0  502 -0.40169347289E+02 -0.13245148169E+02  0.15025268722E+02  0.44886179519E+02  0.00000000000E+00 0.  1.
         11    1    5    5    0    0 -0.99535474911E+00 -0.76514783904E+01 -0.78810119643E+01  0.11029333716E+02  0.00000000000E+00 0. -1.
        -11    1    5    5    0    0  0.24341131404E+03  0.12701553717E+03 -0.55248970594E+01  0.27461343553E+03  0.00000000000E+00 0.  1.
          2    1    6    6  503    0 -0.20752891625E+01  0.26186699908E+02  0.18453519231E+03  0.18639551303E+03  0.00000000000E+00 0. -1.
         -2    1    6    6    0  503 -0.55026107783E+02 -0.69834434234E+02  0.11070022417E+04  0.11105668300E+04  0.00000000000E+00 0.  1.
<mgrwt>
<rscale>  0 0.13647497E+04</rscale>
<asrwt>0</asrwt>
<pdfrwt beam="1">  1        1 0.47625327E-01 0.13647497E+04</pdfrwt>
<pdfrwt beam="2">  1       -2 0.23140957E+00 0.13647497E+04</pdfrwt>
<totfact> 0.60198230E+00</totfact>
</mgrwt>
</event>
<event>
12    4  0.4207946E-008  0.1510350E+04  0.7818608E-02  0.8877599E-01
         -2   -1    0    0    0  501 -0.00000000000E+00  0.00000000000E+00  0.44692484748E+03  0.44692484748E+03  0.00000000000E+00 0.  1.
          1   -1    0    0  501    0  0.00000000000E+00 -0.00000000000E+00 -0.12760295059E+04  0.12760295059E+04  0.00000000000E+00 0. -1.
        -24    2    1    2    0    0  0.18134994996E+03  0.13571798763E+03  0.23011329142E+03  0.33207162214E+03  0.77538756944E+02 0.  0.
        254    2    1    2    0    0 -0.18134994996E+03 -0.13571798763E+03 -0.10592179499E+04  0.13908827313E+04  0.87252789657E+03 0.  0.
         23    2    4    4    0    0 -0.50780573763E+03 -0.19969655215E+03 -0.60293265432E+03  0.81830403677E+03  0.91369200688E+02 0.  0.
         23    2    4    4    0    0  0.32645578768E+03  0.63978564524E+02 -0.45628529556E+03  0.57257869450E+03  0.94781076323E+02 0.  0.
          1    1    3    3  502    0  0.26980389421E+02  0.22067880950E+00  0.58468671872E+02  0.64393910449E+02  0.00000000000E+00 0. -1.
         -2    1    3    3    0  502  0.15436956054E+03  0.13549730882E+03  0.17164461955E+03  0.26767771169E+03  0.00000000000E+00 0.  1.
         11    1    5    5    0    0 -0.17083596192E+03 -0.29721260151E+02 -0.15509391733E+03  0.23264221969E+03  0.00000000000E+00 0.  1.
        -11    1    5    5    0    0 -0.33696977571E+03 -0.16997529200E+03 -0.44783873699E+03  0.58566181708E+03  0.00000000000E+00 0. -1.
          4    1    6    6  503    0  0.33063801903E+03  0.60564194845E+02 -0.45680909860E+03  0.56715436514E+03  0.00000000000E+00 0. -1.
         -4    1    6    6    0  503 -0.41822313578E+01  0.34143696787E+01  0.52380304384E+00  0.54243293651E+01  0.00000000000E+00 0.  1.
<mgrwt>
<rscale>  0 0.15103500E+04</rscale>
<asrwt>0</asrwt>
<pdfrwt beam="1">  1        1 0.19631224E+00 0.15103500E+04</pdfrwt>
<pdfrwt beam="2">  1       -2 0.68757668E-01 0.15103500E+04</pdfrwt>
<totfact> 0.15423199E+01</totfact>
</mgrwt>
</event>
<event>
12    4  0.4207946E-008  0.1760018E+04  0.7818608E-02  0.8727855E-01
         -2   -1    0    0    0  501 -0.00000000000E+00  0.00000000000E+00  0.12052745982E+04  0.12052745982E+04  0.00000000000E+00 0.  1.
          1   -1    0    0  501    0  0.00000000000E+00 -0.00000000000E+00 -0.64252223186E+03  0.64252223186E+03  0.00000000000E+00 0. -1.
        -24    2    1    2    0    0 -0.19962421894E+03  0.31442944061E+03 -0.35981845827E+03  0.52403495651E+03  0.80172381949E+02 0.  0.
        254    2    1    2    0    0  0.19962421894E+03 -0.31442944061E+03  0.92257082462E+03  0.13237618736E+04  0.87320837693E+03 0.  0.
         23    2    4    4    0    0  0.48074569559E+01  0.34419045935E+02  0.91042608333E+03  0.91527776822E+03  0.87464035075E+02 0.  0.
         23    2    4    4    0    0  0.19481676198E+03 -0.34884848654E+03  0.12144741294E+02  0.40848410534E+03  0.84041253331E+02 0.  0.
          3    1    3    3  502    0 -0.16475586520E+03  0.22841111985E+03 -0.30949590878E+03  0.41845412214E+03  0.00000000000E+00 0. -1.
         -4    1    3    3    0  502 -0.34868353737E+02  0.86018320757E+02 -0.50322549490E+02  0.10558083437E+03  0.00000000000E+00 0.  1.
         11    1    5    5    0    0 -0.31335925046E+02  0.30658405121E+02  0.72501933847E+03  0.72634352696E+03  0.00000000000E+00 0. -1.
        -11    1    5    5    0    0  0.36143382002E+02  0.37606408145E+01  0.18540674486E+03  0.18893424126E+03  0.00000000000E+00 0.  1.
          3    1    6    6  503    0  0.15694426367E+03 -0.20746098139E+03  0.26124429098E+02  0.26144606804E+03  0.00000000000E+00 0. -1.
         -3    1    6    6    0  503  0.37872498313E+02 -0.14138750515E+03 -0.13979687804E+02  0.14703803730E+03  0.00000000000E+00 0.  1.
<mgrwt>
<rscale>  0 0.17600179E+04</rscale>
<asrwt>0</asrwt>
<pdfrwt beam="1">  1        1 0.98849574E-01 0.17600179E+04</pdfrwt>
<pdfrwt beam="2">  1       -2 0.18542686E+00 0.17600179E+04</pdfrwt>
<totfact> 0.42712493E+00</totfact>
</mgrwt>
</event>
<event>
12    4  0.4207946E-008  0.2325013E+04  0.7818608E-02  0.8468124E-01
         -2   -1    0    0    0  501 -0.00000000000E+00  0.00000000000E+00  0.84926309497E+03  0.84926309497E+03  0.00000000000E+00 0.  1.
          1   -1    0    0  501    0  0.00000000000E+00 -0.00000000000E+00 -0.15912872194E+04  0.15912872194E+04  0.00000000000E+00 0. -1.
        -24    2    1    2    0    0  0.83078639940E+03  0.34718654587E+03 -0.76402506227E+03  0.11836331951E+04  0.80676550553E+02 0.  0.
        254    2    1    2    0    0 -0.83078639940E+03 -0.34718654587E+03  0.22000937875E+02  0.12569171192E+04  0.87670523221E+03 0.  0.
         23    2    4    4    0    0 -0.39799906907E+02 -0.40645912562E+03 -0.14217806501E+03  0.44167654703E+03  0.89836054249E+02 0.  0.
         23    2    4    4    0    0 -0.79098649249E+03  0.59272579746E+02  0.16417900289E+03  0.81524057216E+03  0.92138892378E+02 0.  0.
          1    1    3    3  502    0  0.13772718065E+03  0.47666891371E+02 -0.88352141236E+02  0.17043183296E+03  0.00000000000E+00 0. -1.
         -4    1    3    3    0  502  0.69305921874E+03  0.29951965450E+03 -0.67567292104E+03  0.10132013622E+04  0.00000000000E+00 0.  1.
         11    1    5    5    0    0  0.26037778836E+02 -0.19360912402E+03 -0.68291770592E+02  0.20694498003E+03  0.00000000000E+00 0.  1.
        -11    1    5    5    0    0 -0.65837685743E+02 -0.21285000160E+03 -0.73886294421E+02  0.23473156700E+03  0.00000000000E+00 0. -1.
          3    1    6    6  503    0 -0.48987740398E+02  0.12085113680E+02 -0.10410570260E+02  0.51519206663E+02  0.00000000000E+00 0. -1.
         -3    1    6    6    0  503 -0.74199875209E+03  0.47187466066E+02  0.17458957315E+03  0.76372136549E+03  0.00000000000E+00 0.  1.
<mgrwt>
<rscale>  0 0.23250131E+04</rscale>
<asrwt>0</asrwt>
<pdfrwt beam="1">  1        1 0.24481341E+00 0.23250131E+04</pdfrwt>
<pdfrwt beam="2">  1       -2 0.13065586E+00 0.23250131E+04</pdfrwt>
<totfact> 0.19214370E+00</totfact>
</mgrwt>
</event>
<event>
12    4  0.4207946E-008  0.1456787E+04  0.7818608E-02  0.8913709E-01
          1   -1    0    0  501    0  0.00000000000E+00  0.00000000000E+00  0.88943141951E+03  0.88943141951E+03  0.00000000000E+00 0. -1.
         -2   -1    0    0    0  501 -0.00000000000E+00 -0.00000000000E+00 -0.59651249037E+03  0.59651249037E+03  0.00000000000E+00 0.  1.
        -24    2    1    2    0    0  0.19561485490E+02  0.44513763483E+03  0.89228936222E+02  0.46124825169E+03  0.79107401540E+02 0.  0.
        254    2    1    2    0    0 -0.19561485490E+02 -0.44513763483E+03  0.20368999292E+03  0.10246956582E+04  0.89998967384E+03 0.  0.
         23    2    4    4    0    0 -0.29271137395E+03  0.11088822552E+01 -0.19331025130E+03  0.36153975042E+03  0.87526909090E+02 0.  0.
         23    2    4    4    0    0  0.27314988846E+03 -0.44624651708E+03  0.39700024422E+03  0.66315590776E+03  0.91759187589E+02 0.  0.
          3    1    3    3  502    0  0.39857778031E+00  0.17341917294E+03 -0.36427763997E+01  0.17345788603E+03  0.00000000000E+00 0. -1.
         -4    1    3    3    0  502  0.19162907710E+02  0.27171846189E+03  0.92871712622E+02  0.28779036566E+03  0.00000000000E+00 0.  1.
         11    1    5    5    0    0 -0.20725452397E+03 -0.35860102044E+02 -0.11406611677E+03  0.23927278077E+03  0.00000000000E+00 0. -1.
        -11    1    5    5    0    0 -0.85456849989E+02  0.36968984299E+02 -0.79244134530E+02  0.12226696965E+03  0.00000000000E+00 0.  1.
          3    1    6    6  503    0  0.27953800883E+03 -0.42300735201E+03  0.37678063761E+03  0.63169642005E+03  0.00000000000E+00 0. -1.
         -3    1    6    6    0  503 -0.63881203618E+01 -0.23239165074E+02  0.20219606611E+02  0.31459487704E+02  0.00000000000E+00 0.  1.
<mgrwt>
<rscale>  0 0.14567868E+04</rscale>
<asrwt>0</asrwt>
<pdfrwt beam="1">  1        1 0.13683560E+00 0.14567868E+04</pdfrwt>
<pdfrwt beam="2">  1       -2 0.91771152E-01 0.14567868E+04</pdfrwt>
<totfact> 0.15955005E+01</totfact>
</mgrwt>
</event>
<event>
12    4  0.4207946E-008  0.1312313E+04  0.7818608E-02  0.9019858E-01
         -2   -1    0    0    0  501 -0.00000000000E+00  0.00000000000E+00  0.34476304158E+03  0.34476304158E+03  0.00000000000E+00 0.  1.
          1   -1    0    0  501    0  0.00000000000E+00 -0.00000000000E+00 -0.12488032901E+04  0.12488032901E+04  0.00000000000E+00 0. -1.
        -24    2    1    2    0    0 -0.33413559071E+03  0.43910884630E+02 -0.23429569017E+03  0.42041614744E+03  0.90997295707E+02 0.  0.
        254    2    1    2    0    0  0.33413559071E+03 -0.43910884630E+02 -0.66974455836E+03  0.11731501842E+04  0.90230195754E+03 0.  0.
         23    2    4    4    0    0  0.35495112717E+03  0.80036886125E+02  0.99802964896E+02  0.38866137343E+03  0.93278215978E+02 0.  0.
         23    2    4    4    0    0 -0.20815536454E+02 -0.12394777075E+03 -0.76954752325E+03  0.78448881082E+03  0.86156644085E+02 0.  0.
          1    1    3    3  502    0 -0.19861177806E+03 -0.29458246855E+01 -0.93811183144E+02  0.21967215197E+03  0.00000000000E+00 0. -1.
         -2    1    3    3    0  502 -0.13552381266E+03  0.46856709316E+02 -0.14048450703E+03  0.20074399548E+03  0.00000000000E+00 0.  1.
         11    1    5    5    0    0  0.13753785695E+03 -0.10800579312E+02  0.17463526286E+02  0.13906217803E+03  0.00000000000E+00 0. -1.
        -11    1    5    5    0    0  0.21741327022E+03  0.90837465437E+02  0.82339438610E+02  0.24959919540E+03  0.00000000000E+00 0.  1.
          4    1    6    6  503    0 -0.39882061873E+02 -0.50026474799E+02 -0.50846119339E+03  0.51247049888E+03  0.00000000000E+00 0. -1.
         -4    1    6    6    0  503  0.19066525419E+02 -0.73921295956E+02 -0.26108632987E+03  0.27201831194E+03  0.00000000000E+00 0.  1.
<mgrwt>
<rscale>  0 0.13123128E+04</rscale>
<asrwt>0</asrwt>
<pdfrwt beam="1">  1        1 0.19212358E+00 0.13123128E+04</pdfrwt>
<pdfrwt beam="2">  1       -2 0.53040468E-01 0.13123128E+04</pdfrwt>
<totfact> 0.28414834E+01</totfact>
</mgrwt>
</event>
<event>
12    4  0.4207946E-008  0.2031682E+04  0.7818608E-02  0.8591950E-01
         -2   -1    0    0    0  501 -0.00000000000E+00  0.00000000000E+00  0.40730016907E+03  0.40730016907E+03  0.00000000000E+00 0.  1.
          1   -1    0    0  501    0  0.00000000000E+00 -0.00000000000E+00 -0.25335941439E+04  0.25335941439E+04  0.00000000000E+00 0. -1.
        -24    2    1    2    0    0  0.12797958176E+03  0.42813132232E+03  0.12575987619E+03  0.47088423769E+03  0.79001369275E+02 0.  0.
        254    2    1    2    0    0 -0.12797958176E+03 -0.42813132232E+03 -0.22520538510E+04  0.24700100753E+04  0.91078428925E+03 0.  0.
         23    2    4    4    0    0  0.16938547604E+03 -0.57188097513E+03 -0.97061969315E+03  0.11431580332E+04  0.94701693925E+02 0.  0.
         23    2    4    4    0    0 -0.29736505781E+03  0.14374965281E+03 -0.12814341579E+04  0.13268520421E+04  0.96813740841E+02 0.  0.
          1    1    3    3  502    0  0.32853854406E+02  0.22889742376E+03  0.43621410099E+02  0.23532155399E+03  0.00000000000E+00 0. -1.
         -2    1    3    3    0  502  0.95125727358E+02  0.19923389856E+03  0.82138466096E+02  0.23556268370E+03  0.00000000000E+00 0.  1.
         11    1    5    5    0    0  0.14301488470E+03 -0.48708036832E+03 -0.88226399493E+03  0.10178852092E+04  0.00000000000E+00 0. -1.
        -11    1    5    5    0    0  0.26370591345E+02 -0.84800606814E+02 -0.88355698222E+02  0.12527282392E+03  0.00000000000E+00 0.  1.
          3    1    6    6  503    0 -0.60606524035E+02  0.73610110800E+02 -0.29752567234E+03  0.31243099218E+03  0.00000000000E+00 0. -1.
         -3    1    6    6    0  503 -0.23675853377E+03  0.70139542010E+02 -0.98390848555E+03  0.10144210500E+04  0.00000000000E+00 0.  1.
<mgrwt>
<rscale>  0 0.20316824E+04</rscale>
<asrwt>0</asrwt>
<pdfrwt beam="1">  1        1 0.38978371E+00 0.20316824E+04</pdfrwt>
<pdfrwt beam="2">  1       -2 0.62661564E-01 0.20316824E+04</pdfrwt>
<totfact> 0.24652553E+00</totfact>
</mgrwt>
</event>
<event>
12    4  0.4207946E-008  0.1816960E+04  0.7818608E-02  0.8697332E-01
          1   -1    0    0  501    0  0.00000000000E+00  0.00000000000E+00  0.12298119667E+04  0.12298119667E+04  0.00000000000E+00 0. -1.
         -2   -1    0    0    0  501 -0.00000000000E+00 -0.00000000000E+00 -0.67110719069E+03  0.67110719069E+03  0.00000000000E+00 0.  1.
        -24    2    1    2    0    0 -0.20060988936E+02 -0.46381521546E+03  0.72663390134E+03  0.86603833440E+03  0.80613725276E+02 0.  0.
        254    2    1    2    0    0  0.20060988936E+02  0.46381521546E+03 -0.16792912533E+03  0.10348808230E+04  0.90953346792E+03 0.  0.
         23    2    4    4    0    0 -0.30995473370E+03 -0.11624993135E+03 -0.10214298201E+03  0.35817968040E+03  0.90958843441E+02 0.  0.
         23    2    4    4    0    0  0.33001572263E+03  0.58006514681E+03 -0.65786143323E+02  0.67670114258E+03  0.90612736330E+02 0.  0.
          3    1    3    3  502    0 -0.32444859705E+02 -0.34836730235E+03  0.59732809803E+03  0.69225234052E+03  0.00000000000E+00 0. -1.
         -4    1    3    3    0  502  0.12383870769E+02 -0.11544791312E+03  0.12930580332E+03  0.17378599388E+03  0.00000000000E+00 0.  1.
         11    1    5    5    0    0 -0.26739842408E+03 -0.91780896100E+02 -0.11835020068E+03  0.30648396384E+03  0.00000000000E+00 0.  1.
        -11    1    5    5    0    0 -0.42556309613E+02 -0.24469035249E+02  0.16207218668E+02  0.51695716562E+02  0.00000000000E+00 0. -1.
          1    1    6    6  503    0  0.28576312752E+03  0.50775995156E+03 -0.87522238824E+02  0.58918662217E+03  0.00000000000E+00 0. -1.
         -1    1    6    6    0  503  0.44252595115E+02  0.72305195257E+02  0.21736095500E+02  0.87514520413E+02  0.00000000000E+00 0.  1.
<mgrwt>
<rscale>  0 0.18169597E+04</rscale>
<asrwt>0</asrwt>
<pdfrwt beam="1">  1        1 0.18920184E+00 0.18169597E+04</pdfrwt>
<pdfrwt beam="2">  1       -2 0.10324726E+00 0.18169597E+04</pdfrwt>
<totfact> 0.64297662E+00</totfact>
</mgrwt>
</event>
<event>
12    4  0.4207946E-008  0.1151350E+04  0.7818608E-02  0.9156539E-01
         -2   -1    0    0    0  501 -0.00000000000E+00  0.00000000000E+00  0.14003299133E+03  0.14003299133E+03  0.00000000000E+00 0.  1.
          1   -1    0    0  501    0  0.00000000000E+00 -0.00000000000E+00 -0.23665985588E+04  0.23665985588E+04  0.00000000000E+00 0. -1.
        -24    2    1    2    0    0  0.24431415734E+02  0.92101800702E+01  0.24978430156E+02  0.87987566599E+02  0.80225734097E+02 0.  0.
        254    2    1    2    0    0 -0.24431415734E+02 -0.92101800702E+01 -0.22515439976E+04  0.24186439835E+04  0.88300997974E+03 0.  0.
         23    2    4    4    0    0 -0.39037485598E+03  0.20326857303E+03 -0.10851280237E+04  0.11745614852E+04  0.91548969861E+02 0.  0.
         23    2    4    4    0    0  0.36594344025E+03 -0.21247875310E+03 -0.11664159740E+04  0.12440824983E+04  0.90295161975E+02 0.  0.
          1    1    3    3  502    0 -0.20084584843E+02 -0.18065412917E+02  0.23426645595E+02  0.35756921232E+02  0.00000000000E+00 0. -1.
         -2    1    3    3    0  502  0.44516000577E+02  0.27275592987E+02  0.15517845606E+01  0.52230645367E+02  0.00000000000E+00 0.  1.
         11    1    5    5    0    0 -0.13699314015E+03  0.36407132064E+02 -0.27283128440E+03  0.30745651638E+03  0.00000000000E+00 0. -1.
        -11    1    5    5    0    0 -0.25338171583E+03  0.16686144097E+03 -0.81229673926E+03  0.86710496885E+03  0.00000000000E+00 0.  1.
          3    1    6    6  503    0  0.21544366606E+03 -0.83308998045E+02 -0.70407100400E+03  0.74099415724E+03  0.00000000000E+00 0. -1.
         -3    1    6    6    0  503  0.15049977419E+03 -0.12916975506E+03 -0.46234496998E+03  0.50308834107E+03  0.00000000000E+00 0.  1.
<mgrwt>
<rscale>  0 0.11513503E+04</rscale>
<asrwt>0</asrwt>
<pdfrwt beam="1">  1        1 0.36409208E+00 0.11513503E+04</pdfrwt>
<pdfrwt beam="2">  1       -2 0.21543537E-01 0.11513503E+04</pdfrwt>
<totfact> 0.27532359E+01</totfact>
</mgrwt>
</event>
<event>
12    4  0.4207946E-008  0.1943729E+04  0.7818608E-02  0.8633391E-01
          1   -1    0    0  501    0  0.00000000000E+00  0.00000000000E+00  0.29999074754E+04  0.29999074754E+04  0.00000000000E+00 0. -1.
         -2   -1    0    0    0  501 -0.00000000000E+00 -0.00000000000E+00 -0.31484991268E+03  0.31484991268E+03  0.00000000000E+00 0.  1.
        -24    2    1    2    0    0  0.26228927822E+03  0.22258812132E+03  0.22346756539E+04  0.22629500253E+04  0.93948931164E+02 0.  0.
        254    2    1    2    0    0 -0.26228927822E+03 -0.22258812132E+03  0.45038190879E+03  0.10518073627E+04  0.88606643506E+03 0.  0.
         23    2    4    4    0    0 -0.40835534796E+03  0.20349866360E+03  0.34768272831E+03  0.58085191381E+03  0.91322888224E+02 0.  0.
         23    2    4    4    0    0  0.14606606975E+03 -0.42608678492E+03  0.10269918048E+03  0.47095544893E+03  0.91469493231E+02 0.  0.
          3    1    3    3  502    0  0.21905165310E+03  0.22342886204E+03  0.19988631133E+04  0.20232048410E+04  0.00000000000E+00 0. -1.
         -4    1    3    3    0  502  0.43237625119E+02 -0.84074071938E+00  0.23581254065E+03  0.23974518431E+03  0.00000000000E+00 0.  1.
         11    1    5    5    0    0 -0.17143548532E+03  0.12405663517E+03  0.12272310680E+03  0.24462447812E+03  0.00000000000E+00 0. -1.
        -11    1    5    5    0    0 -0.23691986265E+03  0.79442028434E+02  0.22495962151E+03  0.33622743569E+03  0.00000000000E+00 0.  1.
          2    1    6    6  503    0  0.70744063352E+02 -0.18782448583E+03  0.92147375584E+02  0.22084813516E+03  0.00000000000E+00 0. -1.
         -2    1    6    6    0  503  0.75322006397E+02 -0.23826229909E+03  0.10551804894E+02  0.25010731377E+03  0.00000000000E+00 0.  1.
<mgrwt>
<rscale>  0 0.19437290E+04</rscale>
<asrwt>0</asrwt>
<pdfrwt beam="1">  1        1 0.46152421E+00 0.19437290E+04</pdfrwt>
<pdfrwt beam="2">  1       -2 0.48438450E-01 0.19437290E+04</pdfrwt>
<totfact> 0.19806702E+00</totfact>
</mgrwt>
</event>
<event>
12    4  0.4207946E-008  0.2431368E+04  0.7818608E-02  0.8427852E-01
         -2   -1    0    0    0  501 -0.00000000000E+00  0.00000000000E+00  0.36018460988E+03  0.36018460988E+03  0.00000000000E+00 0.  1.
          1   -1    0    0  501    0  0.00000000000E+00 -0.00000000000E+00 -0.41031380910E+04  0.41031380910E+04  0.00000000000E+00 0. -1.
        -24    2    1    2    0    0  0.54389778055E+03  0.89283390196E+03 -0.17683040629E+04  0.20558019965E+04  0.80283358478E+02 0.  0.
        254    2    1    2    0    0 -0.54389778055E+03 -0.89283390196E+03 -0.19746494182E+04  0.24075207044E+04  0.89662614566E+03 0.  0.
         23    2    4    4    0    0 -0.69412733979E+03 -0.55564828428E+03 -0.17513769925E+04  0.19664580698E+04  0.95279540053E+02 0.  0.
         23    2    4    4    0    0  0.15022955923E+03 -0.33718561768E+03 -0.22327242572E+03  0.44106263461E+03  0.91774780444E+02 0.  0.
          3    1    3    3  502    0  0.21100188738E+03  0.30422611738E+03 -0.68843392780E+03  0.78167550807E+03  0.00000000000E+00 0. -1.
         -4    1    3    3    0  502  0.33289589317E+03  0.58860778458E+03 -0.10798701351E+04  0.12741264884E+04  0.00000000000E+00 0.  1.
         11    1    5    5    0    0 -0.29099772776E+03 -0.25175458774E+03 -0.66006291452E+03  0.76403082472E+03  0.00000000000E+00 0. -1.
        -11    1    5    5    0    0 -0.40312961203E+03 -0.30389369654E+03 -0.10913140780E+04  0.12024272451E+04  0.00000000000E+00 0.  1.
          3    1    6    6  503    0  0.14264879821E+03 -0.22200564513E+03 -0.13992481047E+03  0.29868735943E+03  0.00000000000E+00 0. -1.
         -3    1    6    6    0  503  0.75807610256E+01 -0.11517997255E+03 -0.83347615251E+02  0.14237527518E+03  0.00000000000E+00 0.  1.
<mgrwt>
<rscale>  0 0.24313677E+04</rscale>
<asrwt>0</asrwt>
<pdfrwt beam="1">  1        1 0.63125207E+00 0.24313677E+04</pdfrwt>
<pdfrwt beam="2">  1       -2 0.55413012E-01 0.24313677E+04</pdfrwt>
<totfact> 0.18736550E-01</totfact>
</mgrwt>
</event>
<event>
12    4  0.4207946E-008  0.3369368E+04  0.7818608E-02  0.8145466E-01
          1   -1    0    0  501    0  0.00000000000E+00  0.00000000000E+00  0.19035041539E+04  0.19035041539E+04  0.00000000000E+00 0. -1.
         -2   -1    0    0    0  501 -0.00000000000E+00 -0.00000000000E+00 -0.14910183437E+04  0.14910183437E+04  0.00000000000E+00 0.  1.
        -24    2    1    2    0    0 -0.52269940596E+03  0.14707797259E+04  0.26851741926E+03  0.15858809601E+04  0.80679266938E+02 0.  0.
        254    2    1    2    0    0  0.52269940596E+03 -0.14707797259E+04  0.14396839091E+03  0.18086415375E+04  0.90224699628E+03 0.  0.
         23    2    4    4    0    0  0.85726348573E+01 -0.94280269394E+03 -0.23295634871E+03  0.97610708574E+03  0.97805790433E+02 0.  0.
         23    2    4    4    0    0  0.51412677110E+03 -0.52797703198E+03  0.37692473961E+03  0.83253445174E+03  0.89192325498E+02 0.  0.
          3    1    3    3  502    0 -0.34186734447E+03  0.92129787800E+03  0.13189294420E+03  0.99149322235E+03  0.00000000000E+00 0. -1.
         -4    1    3    3    0  502 -0.18083206149E+03  0.54948184792E+03  0.13662447505E+03  0.59438773780E+03  0.00000000000E+00 0.  1.
         11    1    5    5    0    0 -0.35492486459E+01 -0.38024242165E+02  0.94480733068E+01  0.39340897898E+02  0.00000000000E+00 0. -1.
        -11    1    5    5    0    0  0.12121883503E+02 -0.90477845178E+03 -0.24240442202E+03  0.93676618784E+03  0.00000000000E+00 0.  1.
          4    1    6    6  503    0  0.24763111435E+03 -0.20244395528E+03  0.13448287508E+03  0.34697315100E+03  0.00000000000E+00 0. -1.
         -4    1    6    6    0  503  0.26649565675E+03 -0.32553307670E+03  0.24244186453E+03  0.48556130074E+03  0.00000000000E+00 0.  1.
<mgrwt>
<rscale>  0 0.33693677E+04</rscale>
<asrwt>0</asrwt>
<pdfrwt beam="1">  1        1 0.29284679E+00 0.33693677E+04</pdfrwt>
<pdfrwt beam="2">  1       -2 0.22938744E+00 0.33693677E+04</pdfrwt>
<totfact> 0.21672122E-01</totfact>
</mgrwt>
</event>
<event>
12    4  0.4207946E-008  0.2140686E+04  0.7818608E-02  0.8543530E-01
          1   -1    0    0  501    0  0.00000000000E+00  0.00000000000E+00  0.85628072863E+03  0.85628072863E+03  0.00000000000E+00 0. -1.
         -2   -1    0    0    0  501 -0.00000000000E+00 -0.00000000000E+00 -0.13379189554E+04  0.13379189554E+04  0.00000000000E+00 0.  1.
        -24    2    1    2    0    0  0.62694987634E+03 -0.50687257331E+03 -0.55275169194E+03  0.98062034224E+03  0.78076050571E+02 0.  0.
        254    2    1    2    0    0 -0.62694987634E+03  0.50687257331E+03  0.71113465127E+02  0.12135793418E+04  0.90428520996E+03 0.  0.
         23    2    4    4    0    0  0.22137093571E+03  0.96345037440E+02 -0.23637665073E+02  0.26129366907E+03  0.97098840717E+02 0.  0.
         23    2    4    4    0    0 -0.84832081205E+03  0.41052753587E+03  0.94751130200E+02  0.95228567275E+03  0.98433571453E+02 0.  0.
          1    1    3    3  502    0  0.57079542284E+02 -0.20317312034E+02 -0.44927085287E+02  0.75427516916E+02  0.00000000000E+00 0. -1.
         -2    1    3    3    0  502  0.56987033405E+03 -0.48655526128E+03 -0.50782460665E+03  0.90519282533E+03  0.00000000000E+00 0.  1.
         11    1    5    5    0    0  0.11438807049E+03  0.93435978602E+02 -0.40020279481E+02  0.15302462395E+03  0.00000000000E+00 0. -1.
        -11    1    5    5    0    0  0.10698286523E+03  0.29090588380E+01  0.16382614408E+02  0.10826904512E+03  0.00000000000E+00 0.  1.
          4    1    6    6  503    0 -0.26519612983E+03  0.82607008802E+02  0.45558890093E+02  0.28147560755E+03  0.00000000000E+00 0. -1.
         -4    1    6    6    0  503 -0.58312468222E+03  0.32792052707E+03  0.49192240108E+02  0.67081006520E+03  0.00000000000E+00 0.  1.
<mgrwt>
<rscale>  0 0.21406861E+04</rscale>
<asrwt>0</asrwt>
<pdfrwt beam="1">  1        1 0.13173550E+00 0.21406861E+04</pdfrwt>
<pdfrwt beam="2">  1       -2 0.20583368E+00 0.21406861E+04</pdfrwt>
<totfact> 0.19354126E+00</totfact>
</mgrwt>
</event>
<event>
12    4  0.4207946E-008  0.1518982E+04  0.7818608E-02  0.8871927E-01
         -2   -1    0    0    0  501 -0.00000000000E+00  0.00000000000E+00  0.68615815588E+03  0.68615815588E+03  0.00000000000E+00 0.  1.
          1   -1    0    0  501    0  0.00000000000E+00 -0.00000000000E+00 -0.84066131621E+03  0.84066131621E+03  0.00000000000E+00 0. -1.
        -24    2    1    2    0    0  0.21146852296E+03  0.15506492359E+03  0.37612395367E+03  0.46184435262E+03  0.55379696587E+02 0.  0.
        254    2    1    2    0    0 -0.21146852296E+03 -0.15506492359E+03 -0.53062711400E+03  0.10649751195E+04  0.88534897314E+03 0.  0.
         23    2    4    4    0    0 -0.44214490887E+03  0.11538994753E+03 -0.52048352010E+03  0.69878558682E+03  0.92688948778E+02 0.  0.
         23    2    4    4    0    0  0.23067638590E+03 -0.27045487112E+03 -0.10143593901E+02  0.36618953265E+03  0.87375334044E+02 0.  0.
          1    1    3    3  502    0  0.14016077885E+03  0.69066607736E+02  0.22339067837E+03  0.27261444462E+03  0.00000000000E+00 0. -1.
         -2    1    3    3    0  502  0.71307744116E+02  0.85998315850E+02  0.15273327530E+03  0.18922990800E+03  0.00000000000E+00 0.  1.
         11    1    5    5    0    0 -0.16916547100E+03  0.27513152057E+02 -0.25976844889E+03  0.31121307356E+03  0.00000000000E+00 0. -1.
        -11    1    5    5    0    0 -0.27297943786E+03  0.87876795474E+02 -0.26071507121E+03  0.38757251326E+03  0.00000000000E+00 0.  1.
          2    1    6    6  503    0  0.18833128770E+03 -0.19982649652E+03  0.26876098228E+02  0.27590148114E+03  0.00000000000E+00 0. -1.
         -2    1    6    6    0  503  0.42345098202E+02 -0.70628374599E+02 -0.37019692129E+02  0.90288051510E+02  0.00000000000E+00 0.  1.
<mgrwt>
<rscale>  0 0.15189821E+04</rscale>
<asrwt>0</asrwt>
<pdfrwt beam="1">  1        1 0.12933251E+00 0.15189821E+04</pdfrwt>
<pdfrwt beam="2">  1       -2 0.10556279E+00 0.15189821E+04</pdfrwt>
<totfact> 0.12525821E+01</totfact>
</mgrwt>
</event>
<event>
12    4  0.4207946E-008  0.1566589E+04  0.7818608E-02  0.8841340E-01
         -2   -1    0    0    0  501 -0.00000000000E+00  0.00000000000E+00  0.60099039762E+03  0.60099039762E+03  0.00000000000E+00 0.  1.
          1   -1    0    0  501    0  0.00000000000E+00 -0.00000000000E+00 -0.10208991526E+04  0.10208991526E+04  0.00000000000E+00 0. -1.
        -24    2    1    2    0    0  0.41317361426E+03  0.11270009948E+03  0.16261682099E+03  0.46490699331E+03  0.79249820290E+02 0.  0.
        254    2    1    2    0    0 -0.41317361426E+03 -0.11270009948E+03 -0.58252557594E+03  0.11569825569E+04  0.90324904780E+03 0.  0.
         23    2    4    4    0    0  0.12837539087E+03 -0.23555334589E+02 -0.57974878787E+03  0.60134710101E+03  0.92057504235E+02 0.  0.
         23    2    4    4    0    0 -0.54154900513E+03 -0.89144764888E+02 -0.27767880684E+01  0.55563545587E+03  0.86607939565E+02 0.  0.
          3    1    3    3  502    0  0.20505734724E+03  0.56021933997E+02  0.38439394396E+02  0.21601981342E+03  0.00000000000E+00 0. -1.
         -4    1    3    3    0  502  0.20811626702E+03  0.56678165480E+02  0.12417742659E+03  0.24888717990E+03  0.00000000000E+00 0.  1.
         11    1    5    5    0    0  0.12927992869E+03  0.50096951690E+01 -0.50533742491E+03  0.52163618550E+03  0.00000000000E+00 0. -1.
        -11    1    5    5    0    0 -0.90453782024E+00 -0.28565029758E+02 -0.74411362966E+02  0.79710915515E+02  0.00000000000E+00 0.  1.
          2    1    6    6  503    0 -0.16920358967E+03 -0.32229347846E+02  0.39150180248E+02  0.17663896012E+03  0.00000000000E+00 0.  1.
         -2    1    6    6    0  503 -0.37234541547E+03 -0.56915417042E+02 -0.41926968316E+02  0.37899649575E+03  0.00000000000E+00 0. -1.
<mgrwt>
<rscale>  0 0.15665894E+04</rscale>
<asrwt>0</asrwt>
<pdfrwt beam="1">  1        1 0.15706141E+00 0.15665894E+04</pdfrwt>
<pdfrwt beam="2">  1       -2 0.92460062E-01 0.15665894E+04</pdfrwt>
<totfact> 0.12205295E+01</totfact>
</mgrwt>
</event>
<event>
12    4  0.4207946E-008  0.1322811E+04  0.7818608E-02  0.9011669E-01
         -2   -1    0    0    0  501 -0.00000000000E+00  0.00000000000E+00  0.26322401265E+03  0.26322401265E+03  0.00000000000E+00 0.  1.
          1   -1    0    0  501    0  0.00000000000E+00 -0.00000000000E+00 -0.16619209630E+04  0.16619209630E+04  0.00000000000E+00 0. -1.
        -24    2    1    2    0    0 -0.77710575623E+02 -0.35778923338E+03 -0.63093128609E+03  0.73408843372E+03  0.82216006130E+02 0.  0.
        254    2    1    2    0    0  0.77710575623E+02  0.35778923338E+03 -0.76776566421E+03  0.11910565419E+04  0.83372627506E+03 0.  0.
         23    2    4    4    0    0  0.34653630702E+03  0.26939530792E+03 -0.77378394091E+03  0.89427444833E+03  0.91235726067E+02 0.  0.
         23    2    4    4    0    0 -0.26882573139E+03  0.88393925457E+02  0.60182766953E+01  0.29678209355E+03  0.89233578228E+02 0.  0.
          3    1    3    3  502    0 -0.34046112361E+02 -0.24917786480E+03 -0.49091139756E+03  0.55158203953E+03  0.00000000000E+00 0. -1.
         -4    1    3    3    0  502 -0.43664463262E+02 -0.10861136858E+03 -0.14001988853E+03  0.18250639419E+03  0.00000000000E+00 0.  1.
         11    1    5    5    0    0  0.25391941803E+03  0.19328574025E+03 -0.63651421572E+03  0.71202864764E+03  0.00000000000E+00 0.  1.
        -11    1    5    5    0    0  0.92616888990E+02  0.76109567673E+02 -0.13726972519E+03  0.18224580069E+03  0.00000000000E+00 0. -1.
          1    1    6    6  503    0 -0.11642388290E+03 -0.48644642434E+01 -0.12306393490E+02  0.11717350742E+03  0.00000000000E+00 0. -1.
         -1    1    6    6    0  503 -0.15240184850E+03  0.93258389700E+02  0.18324670185E+02  0.17960858613E+03  0.00000000000E+00 0.  1.
<mgrwt>
<rscale>  0 0.13228114E+04</rscale>
<asrwt>0</asrwt>
<pdfrwt beam="1">  1        1 0.25568015E+00 0.13228114E+04</pdfrwt>
<pdfrwt beam="2">  1       -2 0.40496002E-01 0.13228114E+04</pdfrwt>
<totfact> 0.25150856E+01</totfact>
</mgrwt>
</event>
<event>
12    4  0.4207946E-008  0.1507022E+04  0.7818608E-02  0.8879797E-01
         -2   -1    0    0    0  501 -0.00000000000E+00  0.00000000000E+00  0.76210876333E+03  0.76210876333E+03  0.00000000000E+00 0.  1.
          1   -1    0    0  501    0  0.00000000000E+00 -0.00000000000E+00 -0.74501007648E+03  0.74501007648E+03  0.00000000000E+00 0. -1.
        -24    2    1    2    0    0 -0.25183133951E+03  0.25780625042E+03 -0.31066131784E+03  0.48389760734E+03  0.88109895458E+02 0.  0.
        254    2    1    2    0    0  0.25183133951E+03 -0.25780625042E+03  0.32776000470E+03  0.10232212325E+04  0.89981775020E+03 0.  0.
         23    2    4    4    0    0  0.35379760518E+03 -0.11171119545E+03 -0.21954524493E+03  0.44052196078E+03  0.90594407864E+02 0.  0.
         23    2    4    4    0    0 -0.10196626568E+03 -0.14609505497E+03  0.54730524962E+03  0.58269927169E+03  0.90854391950E+02 0.  0.
          1    1    3    3  502    0 -0.23505154268E+03  0.26107638737E+03 -0.30671625885E+03  0.46635283982E+03  0.00000000000E+00 0. -1.
         -2    1    3    3    0  502 -0.16779796823E+02 -0.32701369541E+01 -0.39450589887E+01  0.17544767526E+02  0.00000000000E+00 0.  1.
         11    1    5    5    0    0  0.20508091817E+03 -0.69895450053E+02 -0.75901741838E+02  0.22957489268E+03  0.00000000000E+00 0.  1.
        -11    1    5    5    0    0  0.14871668701E+03 -0.41815745399E+02 -0.14364350309E+03  0.21094706810E+03  0.00000000000E+00 0. -1.
          1    1    6    6  503    0 -0.65204293964E+02 -0.14689531740E+03  0.47718072199E+03  0.50351889305E+03  0.00000000000E+00 0. -1.
         -1    1    6    6    0  503 -0.36761971713E+02  0.80026243536E+00  0.70124527638E+02  0.79180378634E+02  0.00000000000E+00 0.  1.
<mgrwt>
<rscale>  0 0.15070218E+04</rscale>
<asrwt>0</asrwt>
<pdfrwt beam="1">  1        1 0.11461694E+00 0.15070218E+04</pdfrwt>
<pdfrwt beam="2">  1       -2 0.11724750E+00 0.15070218E+04</pdfrwt>
<totfact> 0.11782755E+01</totfact>
</mgrwt>
</event>
<event>
12    4  0.4207946E-008  0.1826937E+04  0.7818608E-02  0.8692105E-01
          1   -1    0    0  501    0  0.00000000000E+00  0.00000000000E+00  0.13064197173E+04  0.13064197173E+04  0.00000000000E+00 0. -1.
         -2   -1    0    0    0  501 -0.00000000000E+00 -0.00000000000E+00 -0.63871076574E+03  0.63871076574E+03  0.00000000000E+00 0.  1.
        -24    2    1    2    0    0  0.61725967321E+02 -0.66500828244E+03  0.17131060933E+03  0.69411728718E+03  0.80033572569E+02 0.  0.
        254    2    1    2    0    0 -0.61725967321E+02  0.66500828244E+03  0.49639834224E+03  0.12510131959E+04  0.93411808210E+03 0.  0.
         23    2    4    4    0    0 -0.96116389173E+02 -0.74396393002E+02  0.48146764712E+03  0.50499238723E+03  0.91831543487E+02 0.  0.
         23    2    4    4    0    0  0.34390421852E+02  0.73940467544E+03  0.14930695127E+02  0.74602080864E+03  0.91772251176E+02 0.  0.
          1    1    3    3  502    0 -0.19514509991E+02 -0.13609644146E+03  0.31894677635E+02  0.14113939188E+03  0.00000000000E+00 0. -1.
         -2    1    3    3    0  502  0.81240477312E+02 -0.52891184097E+03  0.13941593169E+03  0.55297789530E+03  0.00000000000E+00 0.  1.
         11    1    5    5    0    0 -0.25807650351E+02 -0.77741349558E+02  0.26430222305E+03  0.27670456692E+03  0.00000000000E+00 0. -1.
        -11    1    5    5    0    0 -0.70308738822E+02  0.33449565554E+01  0.21716542407E+03  0.22828782031E+03  0.00000000000E+00 0.  1.
          3    1    6    6  503    0  0.16261358596E+02  0.71604229758E+03  0.12297716707E+02  0.71633249091E+03  0.00000000000E+00 0. -1.
         -3    1    6    6    0  503  0.18129063255E+02  0.23362377865E+02  0.26329784203E+01  0.29688317726E+02  0.00000000000E+00 0.  1.
<mgrwt>
<rscale>  0 0.18269366E+04</rscale>
<asrwt>0</asrwt>
<pdfrwt beam="1">  1        1 0.20098765E+00 0.18269366E+04</pdfrwt>
<pdfrwt beam="2">  1       -2 0.98263195E-01 0.18269366E+04</pdfrwt>
<totfact> 0.63648192E+00</totfact>
</mgrwt>
</event>
<event>
12    4  0.4207946E-008  0.1760058E+04  0.7818608E-02  0.8727833E-01
         -2   -1    0    0    0  501 -0.00000000000E+00  0.00000000000E+00  0.33540667445E+03  0.33540667445E+03  0.00000000000E+00 0.  1.
          1   -1    0    0  501    0  0.00000000000E+00 -0.00000000000E+00 -0.23089920252E+04  0.23089920252E+04  0.00000000000E+00 0. -1.
        -24    2    1    2    0    0  0.42320364040E+03  0.22559840285E+03 -0.13923125679E+04  0.14749354311E+04  0.83091989945E+02 0.  0.
        254    2    1    2    0    0 -0.42320364040E+03 -0.22559840285E+03 -0.58127278287E+03  0.11694632685E+04  0.89429879103E+03 0.  0.
         23    2    4    4    0    0 -0.68343743393E+03 -0.22172873380E+03 -0.50711396031E+03  0.88351635858E+03  0.84771632317E+02 0.  0.
         23    2    4    4    0    0  0.26023379354E+03 -0.38696690477E+01 -0.74158822569E+02  0.28594690992E+03  0.92355306785E+02 0.  0.
          1    1    3    3  502    0  0.40613645214E+03  0.19338776060E+03 -0.13034647529E+04  0.13789002886E+04  0.00000000000E+00 0. -1.
         -2    1    3    3    0  502  0.17067188259E+02  0.32210642249E+02 -0.88847814957E+02  0.96035142588E+02  0.00000000000E+00 0.  1.
         11    1    5    5    0    0 -0.58035899081E+03 -0.20361973741E+03 -0.39948847457E+03  0.73339525291E+03  0.00000000000E+00 0. -1.
        -11    1    5    5    0    0 -0.10307844312E+03 -0.18108996389E+02 -0.10762548574E+03  0.15012110567E+03  0.00000000000E+00 0.  1.
          3    1    6    6  503    0  0.13919971131E+03 -0.40486927514E+02 -0.13197538172E+02  0.14556759922E+03  0.00000000000E+00 0.  1.
         -3    1    6    6    0  503  0.12103408223E+03  0.36617258466E+02 -0.60961284397E+02  0.14037931070E+03  0.00000000000E+00 0. -1.
<mgrwt>
<rscale>  0 0.17600583E+04</rscale>
<asrwt>0</asrwt>
<pdfrwt beam="1">  1        1 0.35522956E+00 0.17600583E+04</pdfrwt>
<pdfrwt beam="2">  1       -2 0.51601025E-01 0.17600583E+04</pdfrwt>
<totfact> 0.54163856E+00</totfact>
</mgrwt>
</event>
<event>
12    4  0.4207946E-008  0.1559992E+04  0.7818608E-02  0.8845511E-01
         -2   -1    0    0    0  501 -0.00000000000E+00  0.00000000000E+00  0.21772215340E+03  0.21772215340E+03  0.00000000000E+00 0.  1.
          1   -1    0    0  501    0  0.00000000000E+00 -0.00000000000E+00 -0.27943586541E+04  0.27943586541E+04  0.00000000000E+00 0. -1.
        -24    2    1    2    0    0  0.36224837868E+03  0.15093831895E+03 -0.21588375518E+03  0.45500348455E+03  0.80100631807E+02 0.  0.
        254    2    1    2    0    0 -0.36224837868E+03 -0.15093831895E+03 -0.23607527455E+04  0.25570773230E+04  0.90082442580E+03 0.  0.
         23    2    4    4    0    0 -0.62687610469E+03 -0.23763842329E+03 -0.14437441718E+04  0.15943538421E+04  0.90118085379E+02 0.  0.
         23    2    4    4    0    0  0.26462772601E+03  0.86700104332E+02 -0.91700857368E+03  0.96272348084E+03  0.91580756102E+02 0.  0.
          3    1    3    3  502    0  0.51405960410E+02  0.17478407301E+02 -0.64731908726E+02  0.84488386745E+02  0.00000000000E+00 0. -1.
         -4    1    3    3    0  502  0.31084241827E+03  0.13345991165E+03 -0.15115184646E+03  0.37051509781E+03  0.00000000000E+00 0.  1.
         11    1    5    5    0    0 -0.46406446853E+03 -0.15815663237E+03 -0.96336937790E+03  0.10809486156E+04  0.00000000000E+00 0.  1.
        -11    1    5    5    0    0 -0.16281163616E+03 -0.79481790912E+02 -0.48037479394E+03  0.51340522651E+03  0.00000000000E+00 0. -1.
          3    1    6    6  503    0  0.31706790850E+01 -0.49590385638E+01 -0.96920424461E+02  0.97098990453E+02  0.00000000000E+00 0. -1.
         -3    1    6    6    0  503  0.26145704692E+03  0.91659142896E+02 -0.82008814922E+03  0.86562449038E+03  0.00000000000E+00 0.  1.
<mgrwt>
<rscale>  0 0.15599920E+04</rscale>
<asrwt>0</asrwt>
<pdfrwt beam="1">  1        1 0.42990131E+00 0.15599920E+04</pdfrwt>
<pdfrwt beam="2">  1       -2 0.33495718E-01 0.15599920E+04</pdfrwt>
<totfact> 0.59473515E+00</totfact>
</mgrwt>
</event>
<event>
12    4  0.4207946E-008  0.2069879E+04  0.7818608E-02  0.8574629E-01
          1   -1    0    0  501    0  0.00000000000E+00  0.00000000000E+00  0.14218519721E+04  0.14218519721E+04  0.00000000000E+00 0. -1.
         -2   -1    0    0    0  501 -0.00000000000E+00 -0.00000000000E+00 -0.75331324809E+03  0.75331324809E+03  0.00000000000E+00 0.  1.
        -24    2    1    2    0    0  0.18141587261E+03  0.51864610936E+03 -0.39082501595E+03  0.67909270318E+03  0.80729182037E+02 0.  0.
        254    2    1    2    0    0 -0.18141587261E+03 -0.51864610936E+03  0.10593637400E+04  0.14960725170E+04  0.90226156798E+03 0.  0.
         23    2    4    4    0    0  0.66371894950E+02  0.11575040139E+03  0.70401941171E+03  0.72243944876E+03  0.92043691818E+02 0.  0.
         23    2    4    4    0    0 -0.24778776756E+03 -0.63439651075E+03  0.35534432828E+03  0.77363306828E+03  0.91546830069E+02 0.  0.
          3    1    3    3  502    0  0.15275964053E+02  0.13633468039E+03 -0.77030928464E+02  0.15733487882E+03  0.00000000000E+00 0. -1.
         -4    1    3    3    0  502  0.16613990855E+03  0.38231142897E+03 -0.31379408749E+03  0.52175782436E+03  0.00000000000E+00 0.  1.
         11    1    5    5    0    0  0.38720039621E+01  0.10276382580E+02  0.38802034126E+01  0.11646992407E+02  0.00000000000E+00 0.  1.
        -11    1    5    5    0    0  0.62499890988E+02  0.10547401881E+03  0.70013920830E+03  0.71079245636E+03  0.00000000000E+00 0. -1.
          4    1    6    6  503    0 -0.18752161037E+03 -0.41981439424E+03  0.19694389714E+03  0.50019534043E+03  0.00000000000E+00 0.  1.
         -4    1    6    6    0  503 -0.60266157191E+02 -0.21458211650E+03  0.15840043114E+03  0.27343772784E+03  0.00000000000E+00 0. -1.
<mgrwt>
<rscale>  0 0.20698792E+04</rscale>
<asrwt>0</asrwt>
<pdfrwt beam="1">  1        1 0.21874646E+00 0.20698792E+04</pdfrwt>
<pdfrwt beam="2">  1       -2 0.11589435E+00 0.20698792E+04</pdfrwt>
<totfact> 0.34725921E+00</totfact>
</mgrwt>
</event>
<event>
12    4  0.4207946E-008  0.1491964E+04  0.7818608E-02  0.8889814E-01
         -2   -1    0    0    0  501 -0.00000000000E+00  0.00000000000E+00  0.30880723756E+03  0.30880723756E+03  0.00000000000E+00 0.  1.
          1   -1    0    0  501    0  0.00000000000E+00 -0.00000000000E+00 -0.18020604531E+04  0.18020604531E+04  0.00000000000E+00 0. -1.
        -24    2    1    2    0    0 -0.17400748395E+03  0.28586210908E+03 -0.15532638266E+02  0.34482672033E+03  0.81660604471E+02 0.  0.
        254    2    1    2    0    0  0.17400748395E+03 -0.28586210908E+03 -0.14777205773E+04  0.17660409703E+04  0.90732951814E+03 0.  0.
         23    2    4    4    0    0 -0.15353025421E+02 -0.55753134124E+03 -0.60459866741E+03  0.82752766529E+03  0.90474174926E+02 0.  0.
         23    2    4    4    0    0  0.18936050937E+03  0.27166923216E+03 -0.87312190986E+03  0.93851330503E+03  0.93828460677E+02 0.  0.
          3    1    3    3  502    0 -0.37309395737E+02  0.13669954112E+03 -0.15084362015E+02  0.14250015274E+03  0.00000000000E+00 0. -1.
         -4    1    3    3    0  502 -0.13669808821E+03  0.14916256796E+03 -0.44827625167E+00  0.20232656759E+03  0.00000000000E+00 0.  1.
         11    1    5    5    0    0 -0.42791350301E+02 -0.13958713867E+03 -0.16577864035E+03  0.22090320626E+03  0.00000000000E+00 0.  1.
        -11    1    5    5    0    0  0.27438324879E+02 -0.41794420257E+03 -0.43882002706E+03  0.60662445903E+03  0.00000000000E+00 0. -1.
          1    1    6    6  503    0  0.18389934976E+03  0.26324264209E+03 -0.87091970984E+03  0.92823316061E+03  0.00000000000E+00 0. -1.
         -1    1    6    6    0  503  0.54611596159E+01  0.84265900681E+01 -0.22022000185E+01  0.10280144427E+02  0.00000000000E+00 0.  1.
<mgrwt>
<rscale>  0 0.14919642E+04</rscale>
<asrwt>0</asrwt>
<pdfrwt beam="1">  1        1 0.27724007E+00 0.14919642E+04</pdfrwt>
<pdfrwt beam="2">  1       -2 0.47508805E-01 0.14919642E+04</pdfrwt>
<totfact> 0.14490225E+01</totfact>
</mgrwt>
</event>
<event>
12    4  0.4207946E-008  0.1494075E+04  0.7818608E-02  0.8888403E-01
         -2   -1    0    0    0  501 -0.00000000000E+00  0.00000000000E+00  0.64058745060E+03  0.64058745060E+03  0.00000000000E+00 0.  1.
          1   -1    0    0  501    0  0.00000000000E+00 -0.00000000000E+00 -0.87117681826E+03  0.87117681826E+03  0.00000000000E+00 0. -1.
        -24    2    1    2    0    0  0.31098974860E+03  0.34033118462E+03 -0.21217615715E+03  0.51327337034E+03  0.76752147030E+02 0.  0.
        254    2    1    2    0    0 -0.31098974860E+03 -0.34033118462E+03 -0.18413210506E+02  0.99849089852E+03  0.88549708591E+03 0.  0.
         23    2    4    4    0    0 -0.31557908352E+03  0.23420806089E+03 -0.84656120201E+02  0.41275650191E+03  0.93582570185E+02 0.  0.
         23    2    4    4    0    0  0.45893349213E+01 -0.57453924551E+03  0.66242909695E+02  0.58573439661E+03  0.92629658607E+02 0.  0.
          3    1    3    3  502    0  0.65658258782E+02  0.60984321360E+02 -0.75458254421E+02  0.11714965881E+03  0.00000000000E+00 0. -1.
         -4    1    3    3    0  502  0.24533148982E+03  0.27934686326E+03 -0.13671790273E+03  0.39612371153E+03  0.00000000000E+00 0.  1.
         11    1    5    5    0    0 -0.10792937452E+03  0.10968966109E+03 -0.73083426593E+02  0.17035773794E+03  0.00000000000E+00 0. -1.
        -11    1    5    5    0    0 -0.20764970901E+03  0.12451839980E+03 -0.11572693608E+02  0.24239876398E+03  0.00000000000E+00 0.  1.
          2    1    6    6  503    0 -0.19282257398E+01 -0.32293882953E+03 -0.89142696729E+01  0.32306759335E+03  0.00000000000E+00 0. -1.
         -2    1    6    6    0  503  0.65175606611E+01 -0.25160041599E+03  0.75157179368E+02  0.26266680326E+03  0.00000000000E+00 0.  1.
<mgrwt>
<rscale>  0 0.14940749E+04</rscale>
<asrwt>0</asrwt>
<pdfrwt beam="1">  1        1 0.13402720E+00 0.14940749E+04</pdfrwt>
<pdfrwt beam="2">  1       -2 0.98551915E-01 0.14940749E+04</pdfrwt>
<totfact> 0.13940107E+01</totfact>
</mgrwt>
</event>
<event>
12    4  0.4207946E-008  0.1621534E+04  0.7818608E-02  0.8807427E-01
          1   -1    0    0  501    0  0.00000000000E+00  0.00000000000E+00  0.63311776215E+03  0.63311776215E+03  0.00000000000E+00 0. -1.
         -2   -1    0    0    0  501 -0.00000000000E+00 -0.00000000000E+00 -0.10382636721E+04  0.10382636721E+04  0.00000000000E+00 0.  1.
        -24    2    1    2    0    0  0.33693273234E+03 -0.19358507817E+03 -0.53438231513E+03  0.66548084275E+03  0.79381639749E+02 0.  0.
        254    2    1    2    0    0 -0.33693273234E+03  0.19358507817E+03  0.12923640517E+03  0.10059005915E+04  0.91876825312E+03 0.  0.
         23    2    4    4    0    0 -0.49029517262E+03  0.43231997559E+03 -0.43842540346E+02  0.66150915633E+03  0.91554781241E+02 0.  0.
         23    2    4    4    0    0  0.15336244028E+03 -0.23873489742E+03  0.17307894552E+03  0.34439143517E+03  0.90192848425E+02 0.  0.
          3    1    3    3  502    0  0.15497993009E+03 -0.13426083223E+03 -0.26629026266E+03  0.33608816372E+03  0.00000000000E+00 0. -1.
         -4    1    3    3    0  502  0.18195280226E+03 -0.59324245942E+02 -0.26809205246E+03  0.32939267903E+03  0.00000000000E+00 0.  1.
         11    1    5    5    0    0 -0.46921222984E+03  0.40405665797E+03 -0.61163304527E+02  0.62222411502E+03  0.00000000000E+00 0. -1.
        -11    1    5    5    0    0 -0.21082942781E+02  0.28263317616E+02  0.17320764181E+02  0.39285041310E+02  0.00000000000E+00 0.  1.
          3    1    6    6  503    0  0.14513132781E+03 -0.23093197326E+03  0.18370723686E+03  0.32884803095E+03  0.00000000000E+00 0. -1.
         -3    1    6    6    0  503  0.82311124727E+01 -0.78029241568E+01 -0.10628291345E+02  0.15543404223E+02  0.00000000000E+00 0.  1.
<mgrwt>
<rscale>  0 0.16215341E+04</rscale>
<asrwt>0</asrwt>
<pdfrwt beam="1">  1        1 0.97402733E-01 0.16215341E+04</pdfrwt>
<pdfrwt beam="2">  1       -2 0.15973287E+00 0.16215341E+04</pdfrwt>
<totfact> 0.67130324E+00</totfact>
</mgrwt>
</event>
<event>
12    4  0.4207946E-008  0.2419390E+04  0.7818608E-02  0.8432280E-01
          1   -1    0    0  501    0  0.00000000000E+00  0.00000000000E+00  0.28717629061E+04  0.28717629061E+04  0.00000000000E+00 0. -1.
         -2   -1    0    0    0  501 -0.00000000000E+00 -0.00000000000E+00 -0.50956914510E+03  0.50956914510E+03  0.00000000000E+00 0.  1.
        -24    2    1    2    0    0  0.36923040079E+03 -0.92694191175E+03  0.59155294449E+03  0.11626967514E+04  0.79852695354E+02 0.  0.
        254    2    1    2    0    0 -0.36923040079E+03  0.92694191175E+03  0.17706408165E+04  0.22186352998E+04  0.88973102440E+03 0.  0.
         23    2    4    4    0    0 -0.59089313983E+03  0.30589954236E+03  0.85209455737E+03  0.10849224101E+04  0.90897021537E+02 0.  0.
         23    2    4    4    0    0  0.22166273905E+03  0.62104236939E+03  0.91854625915E+03  0.11337128897E+04  0.82156506841E+02 0.  0.
          1    1    3    3  502    0  0.58674809468E+02 -0.17531970083E+03  0.14464538669E+03  0.23473819173E+03  0.00000000000E+00 0. -1.
         -2    1    3    3    0  502  0.31055559132E+03 -0.75162221092E+03  0.44690755780E+03  0.92795855967E+03  0.00000000000E+00 0.  1.
         11    1    5    5    0    0 -0.44755018115E+03  0.25562591646E+03  0.60398405722E+03  0.79400410276E+03  0.00000000000E+00 0. -1.
        -11    1    5    5    0    0 -0.14334295868E+03  0.50273625893E+02  0.24811050015E+03  0.29091830735E+03  0.00000000000E+00 0.  1.
          3    1    6    6  503    0  0.19495718814E+03  0.58793092961E+03  0.83175166136E+03  0.10370544390E+04  0.00000000000E+00 0. -1.
         -3    1    6    6    0  503  0.26705550904E+02  0.33111439782E+02  0.86794597788E+02  0.96658450736E+02  0.00000000000E+00 0.  1.
<mgrwt>
<rscale>  0 0.24193898E+04</rscale>
<asrwt>0</asrwt>
<pdfrwt beam="1">  1        1 0.44180967E+00 0.24193898E+04</pdfrwt>
<pdfrwt beam="2">  1       -2 0.78395255E-01 0.24193898E+04</pdfrwt>
<totfact> 0.84243322E-01</totfact>
</mgrwt>
</event>
<event>
12    4  0.4207946E-008  0.1310383E+04  0.7818608E-02  0.9021371E-01
          1   -1    0    0  501    0  0.00000000000E+00  0.00000000000E+00  0.10420150847E+04  0.10420150847E+04  0.00000000000E+00 0. -1.
         -2   -1    0    0    0  501 -0.00000000000E+00 -0.00000000000E+00 -0.41196738369E+03  0.41196738369E+03  0.00000000000E+00 0.  1.
        -24    2    1    2    0    0 -0.25454880135E+03 -0.49848563827E+02  0.42671316372E+03  0.50664969421E+03  0.85614350264E+02 0.  0.
        254    2    1    2    0    0  0.25454880135E+03  0.49848563827E+02  0.20333453725E+03  0.94733277414E+03  0.88815228387E+03 0.  0.
         23    2    4    4    0    0 -0.20895809729E+03  0.16494209845E+03  0.34066036210E+03  0.44216163922E+03  0.92671735835E+02 0.  0.
         23    2    4    4    0    0  0.46350689864E+03 -0.11509353462E+03 -0.13732582485E+03  0.50517113493E+03  0.90853324627E+02 0.  0.
          1    1    3    3  502    0 -0.19638450685E+03 -0.73260287457E+02  0.34452999697E+03  0.40328012977E+03  0.00000000000E+00 0. -1.
         -2    1    3    3    0  502 -0.58164294494E+02  0.23411723630E+02  0.82183166750E+02  0.10336956445E+03  0.00000000000E+00 0.  1.
         11    1    5    5    0    0 -0.70291977498E+02  0.11205586106E+03  0.14032311218E+03  0.19284204394E+03  0.00000000000E+00 0.  1.
        -11    1    5    5    0    0 -0.13866611979E+03  0.52886237391E+02  0.20033724992E+03  0.24931959527E+03  0.00000000000E+00 0. -1.
          2    1    6    6  503    0  0.45000464025E+03 -0.92437651594E+02 -0.12528089190E+03  0.47617664532E+03  0.00000000000E+00 0. -1.
         -2    1    6    6    0  503  0.13502258388E+02 -0.22655883030E+02 -0.12044932954E+02  0.28994489603E+02  0.00000000000E+00 0.  1.
<mgrwt>
<rscale>  0 0.13103835E+04</rscale>
<asrwt>0</asrwt>
<pdfrwt beam="1">  1        1 0.16031001E+00 0.13103835E+04</pdfrwt>
<pdfrwt beam="2">  1       -2 0.63379598E-01 0.13103835E+04</pdfrwt>
<totfact> 0.27847031E+01</totfact>
</mgrwt>
</event>
<event>
12    4  0.4207946E-008  0.1374919E+04  0.7818608E-02  0.8972176E-01
         -2   -1    0    0    0  501 -0.00000000000E+00  0.00000000000E+00  0.54051162299E+03  0.54051162299E+03  0.00000000000E+00 0.  1.
          1   -1    0    0  501    0  0.00000000000E+00 -0.00000000000E+00 -0.87435828898E+03  0.87435828898E+03  0.00000000000E+00 0. -1.
        -24    2    1    2    0    0  0.13196462278E+03  0.16012215079E+03  0.23459997717E+03  0.32149623889E+03  0.72587309482E+02 0.  0.
        254    2    1    2    0    0 -0.13196462278E+03 -0.16012215079E+03 -0.56844664315E+03  0.10933736731E+04  0.91064847116E+03 0.  0.
         23    2    4    4    0    0 -0.47722095852E+03 -0.26416699897E+03 -0.41389652518E+03  0.69051269626E+03  0.89293916602E+02 0.  0.
         23    2    4    4    0    0  0.34525633575E+03  0.10404484818E+03 -0.15455011797E+03  0.40286097681E+03  0.91563965988E+02 0.  0.
          1    1    3    3  502    0  0.25936648714E+01  0.28342892045E+01 -0.54665682619E+01  0.66815912268E+01  0.00000000000E+00 0. -1.
         -2    1    3    3    0  502  0.12937095791E+03  0.15728786158E+03  0.24006654543E+03  0.31481464767E+03  0.00000000000E+00 0.  1.
         11    1    5    5    0    0 -0.12633609474E+03 -0.87146914978E+02 -0.71683899336E+02  0.16939296045E+03  0.00000000000E+00 0.  1.
        -11    1    5    5    0    0 -0.35088486378E+03 -0.17702008399E+03 -0.34221262585E+03  0.52111973581E+03  0.00000000000E+00 0. -1.
          2    1    6    6  503    0  0.28598126821E+03  0.11243873716E+03 -0.10371072663E+03  0.32432032036E+03  0.00000000000E+00 0. -1.
         -2    1    6    6    0  503  0.59275067534E+02 -0.83938889777E+01 -0.50839391347E+02  0.78540656451E+02  0.00000000000E+00 0.  1.
<mgrwt>
<rscale>  0 0.13749194E+04</rscale>
<asrwt>0</asrwt>
<pdfrwt beam="1">  1        1 0.13451666E+00 0.13749194E+04</pdfrwt>
<pdfrwt beam="2">  1       -2 0.83155634E-01 0.13749194E+04</pdfrwt>
<totfact> 0.20720775E+01</totfact>
</mgrwt>
</event>
<event>
12    4  0.4207946E-008  0.1289364E+04  0.7818608E-02  0.9038042E-01
         -2   -1    0    0    0  501 -0.00000000000E+00  0.00000000000E+00  0.24642038619E+03  0.24642038619E+03  0.00000000000E+00 0.  1.
          1   -1    0    0  501    0  0.00000000000E+00 -0.00000000000E+00 -0.16866097028E+04  0.16866097028E+04  0.00000000000E+00 0. -1.
        -24    2    1    2    0    0 -0.11945344992E+02 -0.52712792825E+02 -0.85758775632E+03  0.86438400796E+03  0.93710317620E+02 0.  0.
        254    2    1    2    0    0  0.11945344992E+02  0.52712792825E+02 -0.58260156030E+03  0.10686460810E+04  0.89423628794E+03 0.  0.
         23    2    4    4    0    0  0.81353061790E+02  0.38377097536E+03 -0.59373822773E+03  0.71746241210E+03  0.91261971933E+02 0.  0.
         23    2    4    4    0    0 -0.69407716798E+02 -0.33105818254E+03  0.11136667428E+02  0.35118366894E+03  0.93749627140E+02 0.  0.
          3    1    3    3  502    0  0.18283578767E+02 -0.67186193519E+02 -0.44242996919E+03  0.44787559823E+03  0.00000000000E+00 0. -1.
         -4    1    3    3    0  502 -0.30228923760E+02  0.14473400694E+02 -0.41515778714E+03  0.41650840974E+03  0.00000000000E+00 0.  1.
         11    1    5    5    0    0  0.10224503336E+01  0.79219333432E+01  0.22474571391E+01  0.82978006827E+01  0.00000000000E+00 0. -1.
        -11    1    5    5    0    0  0.80330611456E+02  0.37584904202E+03 -0.59598568486E+03  0.70916461142E+03  0.00000000000E+00 0.  1.
          4    1    6    6  503    0  0.36570902509E+01 -0.34155075371E+02  0.28923423172E+02  0.44905544098E+02  0.00000000000E+00 0. -1.
         -4    1    6    6    0  503 -0.73064807049E+02 -0.29690310717E+03 -0.17786755743E+02  0.30627812484E+03  0.00000000000E+00 0.  1.
<mgrwt>
<rscale>  0 0.12893642E+04</rscale>
<asrwt>0</asrwt>
<pdfrwt beam="1">  1        1 0.25947842E+00 0.12893642E+04</pdfrwt>
<pdfrwt beam="2">  1       -2 0.37910829E-01 0.12893642E+04</pdfrwt>
<totfact> 0.27590479E+01</totfact>
</mgrwt>
</event>
<event>
12    4  0.4207946E-008  0.1339246E+04  0.7818608E-02  0.8999009E-01
         -2   -1    0    0    0  501 -0.00000000000E+00  0.00000000000E+00  0.20541566356E+03  0.20541566356E+03  0.00000000000E+00 0.  1.
          1   -1    0    0  501    0  0.00000000000E+00 -0.00000000000E+00 -0.21828666066E+04  0.21828666066E+04  0.00000000000E+00 0. -1.
        -24    2    1    2    0    0 -0.62271474887E+02  0.33134841772E+03 -0.72492697493E+03  0.80361050966E+03  0.81247903087E+02 0.  0.
        254    2    1    2    0    0  0.62271474887E+02 -0.33134841772E+03 -0.12525239681E+04  0.15846717605E+04  0.91032894457E+03 0.  0.
         23    2    4    4    0    0 -0.38626167605E+03 -0.20316118741E+03 -0.85941786507E+03  0.96807278512E+03  0.89962770239E+02 0.  0.
         23    2    4    4    0    0  0.44853315094E+03 -0.12818723031E+03 -0.39310610304E+03  0.61659897537E+03  0.89710281908E+02 0.  0.
          3    1    3    3  502    0 -0.23187781465E+02  0.27128104292E+03 -0.61245630204E+03  0.67024905771E+03  0.00000000000E+00 0. -1.
         -4    1    3    3    0  502 -0.39083693422E+02  0.60067374799E+02 -0.11247067289E+03  0.13336145195E+03  0.00000000000E+00 0.  1.
         11    1    5    5    0    0 -0.38507528137E+03 -0.18810799508E+03 -0.80984668314E+03  0.91625282556E+03  0.00000000000E+00 0. -1.
        -11    1    5    5    0    0 -0.11863946801E+01 -0.15053192332E+02 -0.49571181928E+02  0.51819959566E+02  0.00000000000E+00 0.  1.
          4    1    6    6  503    0  0.41823863663E+03 -0.10070718163E+03 -0.33356568977E+03  0.54436344752E+03  0.00000000000E+00 0. -1.
         -4    1    6    6    0  503  0.30294514313E+02 -0.27480048677E+02 -0.59540413268E+02  0.72235527858E+02  0.00000000000E+00 0.  1.
<mgrwt>
<rscale>  0 0.13392460E+04</rscale>
<asrwt>0</asrwt>
<pdfrwt beam="1">  1        1 0.33582564E+00 0.13392460E+04</pdfrwt>
<pdfrwt beam="2">  1       -2 0.31602409E-01 0.13392460E+04</pdfrwt>
<totfact> 0.17937994E+01</totfact>
</mgrwt>
</event>
<event>
12    4  0.4207946E-008  0.2218276E+04  0.7818608E-02  0.8510860E-01
          1   -1    0    0  501    0  0.00000000000E+00  0.00000000000E+00  0.18003881964E+04  0.18003881964E+04  0.00000000000E+00 0. -1.
         -2   -1    0    0    0  501 -0.00000000000E+00 -0.00000000000E+00 -0.68328975830E+03  0.68328975830E+03  0.00000000000E+00 0.  1.
        -24    2    1    2    0    0 -0.40063088102E+03  0.48848490623E+03 -0.28739838338E+03  0.69863825243E+03  0.79843412634E+02 0.  0.
        254    2    1    2    0    0  0.40063088102E+03 -0.48848490623E+03  0.14044968215E+04  0.17850397023E+04  0.90257011399E+03 0.  0.
         23    2    4    4    0    0  0.10050258427E+03 -0.36481203376E+03  0.13924123948E+04  0.14457705195E+04  0.90837923207E+02 0.  0.
         23    2    4    4    0    0  0.30012829675E+03 -0.12367287247E+03  0.12084426658E+02  0.33926918279E+03  0.97905930022E+02 0.  0.
          1    1    3    3  502    0 -0.52670193433E+02  0.28692186985E+02 -0.22125141320E+02  0.63928966429E+02  0.00000000000E+00 0. -1.
         -2    1    3    3    0  502 -0.34796068759E+03  0.45979271925E+03 -0.26527324206E+03  0.63470928600E+03  0.00000000000E+00 0.  1.
         11    1    5    5    0    0 -0.17005874027E+00  0.45009269387E+01  0.61106590888E+01  0.75912724745E+01  0.00000000000E+00 0.  1.
        -11    1    5    5    0    0  0.10067264301E+03 -0.36931296070E+03  0.13863017357E+04  0.14381792470E+04  0.00000000000E+00 0. -1.
          1    1    6    6  503    0  0.20931341676E+03 -0.45565538242E+02 -0.20327652657E+02  0.21517792213E+03  0.00000000000E+00 0. -1.
         -1    1    6    6    0  503  0.90814879986E+02 -0.78107334224E+02  0.32412079315E+02  0.12409126066E+03  0.00000000000E+00 0.  1.
<mgrwt>
<rscale>  0 0.22182757E+04</rscale>
<asrwt>0</asrwt>
<pdfrwt beam="1">  1        1 0.27698280E+00 0.22182757E+04</pdfrwt>
<pdfrwt beam="2">  1       -2 0.10512150E+00 0.22182757E+04</pdfrwt>
<totfact> 0.23860624E+00</totfact>
</mgrwt>
</event>
<event>
12    4  0.4207946E-008  0.1241765E+04  0.7818608E-02  0.9077065E-01
         -2   -1    0    0    0  501 -0.00000000000E+00  0.00000000000E+00  0.53397066127E+03  0.53397066127E+03  0.00000000000E+00 0.  1.
          1   -1    0    0  501    0  0.00000000000E+00 -0.00000000000E+00 -0.72194104853E+03  0.72194104853E+03  0.00000000000E+00 0. -1.
        -24    2    1    2    0    0  0.20058957071E+03 -0.16996002137E+01  0.16013561341E+03  0.26836716660E+03  0.78348305063E+02 0.  0.
        254    2    1    2    0    0 -0.20058957071E+03  0.16996002137E+01 -0.34810600067E+03  0.98754454321E+03  0.90212381223E+03 0.  0.
         23    2    4    4    0    0  0.29772390883E+03  0.10713135925E+03  0.53411254143E+02  0.33248717433E+03  0.87053460576E+02 0.  0.
         23    2    4    4    0    0 -0.49831347954E+03 -0.10543175904E+03 -0.40151725481E+03  0.65505736888E+03  0.91934057373E+02 0.  0.
          3    1    3    3  502    0  0.69301943506E+02 -0.52766304546E+01  0.12237605984E+02  0.70571674225E+02  0.00000000000E+00 0. -1.
         -4    1    3    3    0  502  0.13128762721E+03  0.35770302409E+01  0.14789800742E+03  0.19779549237E+03  0.00000000000E+00 0.  1.
         11    1    5    5    0    0  0.88988337581E+02  0.72947257605E+02  0.34501795253E+02  0.12012743439E+03  0.00000000000E+00 0.  1.
        -11    1    5    5    0    0  0.20873557125E+03  0.34184101644E+02  0.18909458889E+02  0.21235973994E+03  0.00000000000E+00 0. -1.
          2    1    6    6  503    0 -0.45564831904E+03 -0.67926683740E+02 -0.36110845177E+03  0.58534497431E+03  0.00000000000E+00 0. -1.
         -2    1    6    6    0  503 -0.42665160500E+02 -0.37505075295E+02 -0.40408803042E+02  0.69712394570E+02  0.00000000000E+00 0.  1.
<mgrwt>
<rscale>  0 0.12417654E+04</rscale>
<asrwt>0</asrwt>
<pdfrwt beam="1">  1        1 0.11106785E+00 0.12417654E+04</pdfrwt>
<pdfrwt beam="2">  1       -2 0.82149332E-01 0.12417654E+04</pdfrwt>
<totfact> 0.29245477E+01</totfact>
</mgrwt>
</event>
<event>
12    4  0.4207946E-008  0.1533762E+04  0.7818608E-02  0.8862307E-01
          1   -1    0    0  501    0  0.00000000000E+00  0.00000000000E+00  0.42260141762E+03  0.42260141762E+03  0.00000000000E+00 0. -1.
         -2   -1    0    0    0  501 -0.00000000000E+00 -0.00000000000E+00 -0.13916334457E+04  0.13916334457E+04  0.00000000000E+00 0.  1.
        -24    2    1    2    0    0 -0.15996016515E+03 -0.90467665373E+02  0.23109368667E+03  0.30591817668E+03  0.80062387504E+02 0.  0.
        254    2    1    2    0    0  0.15996016515E+03  0.90467665373E+02 -0.12001257147E+04  0.15083166866E+04  0.89495577713E+03 0.  0.
         23    2    4    4    0    0  0.76264076725E+02  0.39450830354E+03 -0.20494779679E+03  0.46014294901E+03  0.90966604596E+02 0.  0.
         23    2    4    4    0    0  0.83696088425E+02 -0.30404063817E+03 -0.99517791794E+03  0.10481737376E+04  0.94039092701E+02 0.  0.
          1    1    3    3  502    0 -0.98854166430E+02 -0.90824393574E+02  0.18856211127E+03  0.23146681511E+03  0.00000000000E+00 0. -1.
         -2    1    3    3    0  502 -0.61105998720E+02  0.35672820084E+00  0.42531575400E+02  0.74451361576E+02  0.00000000000E+00 0.  1.
         11    1    5    5    0    0  0.55332217190E+02  0.29170596981E+03 -0.19398351075E+03  0.35465987865E+03  0.00000000000E+00 0.  1.
        -11    1    5    5    0    0  0.20931859535E+02  0.10280233373E+03 -0.10964286045E+02  0.10548307036E+03  0.00000000000E+00 0. -1.
          3    1    6    6  503    0  0.82030574835E+02 -0.13269698758E+03 -0.52790585530E+03  0.55047442972E+03  0.00000000000E+00 0. -1.
         -3    1    6    6    0  503  0.16655135899E+01 -0.17134365059E+03 -0.46727206264E+03  0.49769930787E+03  0.00000000000E+00 0.  1.
<mgrwt>
<rscale>  0 0.15337617E+04</rscale>
<asrwt>0</asrwt>
<pdfrwt beam="1">  1        1 0.65015603E-01 0.15337617E+04</pdfrwt>
<pdfrwt beam="2">  1       -2 0.21409745E+00 0.15337617E+04</pdfrwt>
<totfact> 0.50626444E+00</totfact>
</mgrwt>
</event>
<event>
12    4  0.4207946E-008  0.1479893E+04  0.7818608E-02  0.8897935E-01
         -2   -1    0    0    0  501 -0.00000000000E+00  0.00000000000E+00  0.27331902255E+03  0.27331902255E+03  0.00000000000E+00 0.  1.
          1   -1    0    0  501    0  0.00000000000E+00 -0.00000000000E+00 -0.20032309488E+04  0.20032309488E+04  0.00000000000E+00 0. -1.
        -24    2    1    2    0    0 -0.81235822337E+01  0.36863757135E+03 -0.95944568962E+03  0.10310281469E+04  0.80767300637E+02 0.  0.
        254    2    1    2    0    0  0.81235822337E+01 -0.36863757135E+03 -0.77046623659E+03  0.12455218244E+04  0.90650247747E+03 0.  0.
         23    2    4    4    0    0 -0.27249589834E+02  0.28752135747E+03 -0.33353336235E+03  0.45070290569E+03  0.92073526311E+02 0.  0.
         23    2    4    4    0    0  0.35373172068E+02 -0.65615892882E+03 -0.43693287424E+03  0.79481891868E+03  0.95031445948E+02 0.  0.
          3    1    3    3  502    0 -0.32331975451E+02  0.28075734082E+03 -0.78273605644E+03  0.83219335200E+03  0.00000000000E+00 0. -1.
         -4    1    3    3    0  502  0.24208393217E+02  0.87880230531E+02 -0.17670963318E+03  0.19883479494E+03  0.00000000000E+00 0.  1.
         11    1    5    5    0    0 -0.43848521771E+02  0.14252516514E+03 -0.11681648521E+03  0.18942599288E+03  0.00000000000E+00 0.  1.
        -11    1    5    5    0    0  0.16598931936E+02  0.14499619233E+03 -0.21671687714E+03  0.26127691281E+03  0.00000000000E+00 0. -1.
          1    1    6    6  503    0  0.49623841020E+02 -0.60011602626E+03 -0.37170190027E+03  0.70764685630E+03  0.00000000000E+00 0. -1.
         -1    1    6    6    0  503 -0.14250668953E+02 -0.56042902562E+02 -0.65230973971E+02  0.87172062373E+02  0.00000000000E+00 0.  1.
<mgrwt>
<rscale>  0 0.14798934E+04</rscale>
<asrwt>0</asrwt>
<pdfrwt beam="1">  1        1 0.30818938E+00 0.14798934E+04</pdfrwt>
<pdfrwt beam="2">  1       -2 0.42049080E-01 0.14798934E+04</pdfrwt>
<totfact> 0.13527680E+01</totfact>
</mgrwt>
</event>
<event>
12    4  0.4207946E-008  0.1915181E+04  0.7818608E-02  0.8647337E-01
         -4   -1    0    0    0  501 -0.00000000000E+00  0.00000000000E+00  0.84933306846E+03  0.84933306846E+03  0.00000000000E+00 0.  1.
          1   -1    0    0  501    0  0.00000000000E+00 -0.00000000000E+00 -0.10796465119E+04  0.10796465119E+04  0.00000000000E+00 0. -1.
        -24    2    1    2    0    0  0.40073841689E+03  0.56148537699E+03  0.19361164902E+03  0.72089649875E+03  0.79681766573E+02 0.  0.
        254    2    1    2    0    0 -0.40073841689E+03 -0.56148537699E+03 -0.42392509242E+03  0.12080830816E+04  0.89660199680E+03 0.  0.
         23    2    4    4    0    0 -0.57444094822E+03 -0.54230847943E+03 -0.64089113003E+02  0.79750680034E+03  0.88480463023E+02 0.  0.
         23    2    4    4    0    0  0.17370253133E+03 -0.19176897559E+02 -0.35983597942E+03  0.41057628123E+03  0.92469604933E+02 0.  0.
          3    1    3    3  502    0  0.69654631369E+02  0.59020976688E+02  0.10407837107E+02  0.91888880903E+02  0.00000000000E+00 0. -1.
         -4    1    3    3    0  502  0.33108378552E+03  0.50246440030E+03  0.18320381191E+03  0.62900761784E+03  0.00000000000E+00 0.  1.
         11    1    5    5    0    0 -0.38086403505E+03 -0.30068953799E+03 -0.33819003367E+02  0.48643122478E+03  0.00000000000E+00 0.  1.
        -11    1    5    5    0    0 -0.19357691316E+03 -0.24161894145E+03 -0.30270109636E+02  0.31107557556E+03  0.00000000000E+00 0. -1.
          2    1    6    6  503    0  0.13040434360E+03 -0.54686030284E+02 -0.26789689724E+03  0.30292672759E+03  0.00000000000E+00 0.  1.
         -2    1    6    6    0  503  0.43298187733E+02  0.35509132724E+02 -0.91939082172E+02  0.10764955364E+03  0.00000000000E+00 0. -1.
<mgrwt>
<rscale>  0 0.19151809E+04</rscale>
<asrwt>0</asrwt>
<pdfrwt beam="1">  1        1 0.16609946E+00 0.19151809E+04</pdfrwt>
<pdfrwt beam="2">  1       -4 0.13066663E+00 0.19151809E+04</pdfrwt>
<totfact> 0.25461395E+00</totfact>
</mgrwt>
</event>
<event>
12    4  0.4207946E-008  0.2311596E+04  0.7818608E-02  0.8473363E-01
         -2   -1    0    0    0  501 -0.00000000000E+00  0.00000000000E+00  0.57787780227E+03  0.57787780227E+03  0.00000000000E+00 0.  1.
          1   -1    0    0  501    0  0.00000000000E+00 -0.00000000000E+00 -0.23116801001E+04  0.23116801001E+04  0.00000000000E+00 0. -1.
        -24    2    1    2    0    0 -0.27335560156E+03  0.49841811188E+03 -0.17000217296E+04  0.17943194793E+04  0.79778527984E+02 0.  0.
        254    2    1    2    0    0  0.27335560156E+03 -0.49841811188E+03 -0.33780568243E+02  0.10952384231E+04  0.93555447595E+03 0.  0.
         23    2    4    4    0    0  0.45744577093E+03 -0.25406221721E+03 -0.35797228853E+03  0.64018791183E+03  0.88837827223E+02 0.  0.
         23    2    4    4    0    0 -0.18409016937E+03 -0.24435589467E+03  0.32419172028E+03  0.45505051126E+03  0.91497008586E+02 0.  0.
          1    1    3    3  502    0 -0.27046971122E+03  0.48423326229E+03 -0.16034653871E+04  0.16966841087E+04  0.00000000000E+00 0. -1.
         -2    1    3    3    0  502 -0.28858903369E+01  0.14184849593E+02 -0.96556342438E+02  0.97635370569E+02  0.00000000000E+00 0.  1.
         11    1    5    5    0    0  0.12564078360E+03 -0.11555057278E+03 -0.10239788742E+03  0.19905493895E+03  0.00000000000E+00 0.  1.
        -11    1    5    5    0    0  0.33180498733E+03 -0.13851164444E+03 -0.25557440111E+03  0.44113297288E+03  0.00000000000E+00 0. -1.
          1    1    6    6  503    0 -0.18521458282E+03 -0.24934035754E+03  0.30547551487E+03  0.43564933808E+03  0.00000000000E+00 0. -1.
         -1    1    6    6    0  503  0.11244134446E+01  0.49844628705E+01  0.18716205411E+02  0.19401173179E+02  0.00000000000E+00 0.  1.
<mgrwt>
<rscale>  0 0.23115957E+04</rscale>
<asrwt>0</asrwt>
<pdfrwt beam="1">  1        1 0.35564310E+00 0.23115957E+04</pdfrwt>
<pdfrwt beam="2">  1       -2 0.88904276E-01 0.23115957E+04</pdfrwt>
<totfact> 0.15759865E+00</totfact>
</mgrwt>
</event>
<event>
12    4  0.4207946E-008  0.1239948E+04  0.7818608E-02  0.9078591E-01
          1   -1    0    0  501    0  0.00000000000E+00  0.00000000000E+00  0.21029618692E+04  0.21029618692E+04  0.00000000000E+00 0. -1.
         -2   -1    0    0    0  501 -0.00000000000E+00 -0.00000000000E+00 -0.18277461483E+03  0.18277461483E+03  0.00000000000E+00 0.  1.
        -24    2    1    2    0    0  0.17121874448E+03 -0.22481803967E+03  0.44889878256E+03  0.53652348512E+03  0.80550131453E+02 0.  0.
        254    2    1    2    0    0 -0.17121874448E+03  0.22481803967E+03  0.14712884718E+04  0.17492129989E+04  0.90288279353E+03 0.  0.
         23    2    4    4    0    0 -0.48323579149E+02  0.32382276766E+03  0.15235606432E+04  0.15610041479E+04  0.91107426402E+02 0.  0.
         23    2    4    4    0    0 -0.12289516533E+03 -0.99004727990E+02 -0.52272171349E+02  0.18820885104E+03  0.88232839031E+02 0.  0.
          1    1    3    3  502    0  0.13790755288E+03 -0.18895533133E+03  0.41689724213E+03  0.47804384828E+03  0.00000000000E+00 0. -1.
         -2    1    3    3    0  502  0.33311191608E+02 -0.35862708332E+02  0.32001540433E+02  0.58479636844E+02  0.00000000000E+00 0.  1.
         11    1    5    5    0    0 -0.51396953473E+01  0.66563082451E+02  0.51267458641E+03  0.51700318370E+03  0.00000000000E+00 0. -1.
        -11    1    5    5    0    0 -0.43183883802E+02  0.25725968521E+03  0.10108860568E+04  0.10440009642E+04  0.00000000000E+00 0.  1.
          4    1    6    6  503    0 -0.45702867316E+02 -0.86963689288E+02 -0.83819451791E+01  0.98598642691E+02  0.00000000000E+00 0. -1.
         -4    1    6    6    0  503 -0.77192298018E+02 -0.12041038703E+02 -0.43890226170E+02  0.89610208345E+02  0.00000000000E+00 0.  1.
<mgrwt>
<rscale>  0 0.12399485E+04</rscale>
<asrwt>0</asrwt>
<pdfrwt beam="1">  1        1 0.32353258E+00 0.12399485E+04</pdfrwt>
<pdfrwt beam="2">  1       -2 0.28119173E-01 0.12399485E+04</pdfrwt>
<totfact> 0.25475510E+01</totfact>
</mgrwt>
</event>
<event>
12    4  0.4207946E-008  0.1912023E+04  0.7818608E-02  0.8648895E-01
         -2   -1    0    0    0  501 -0.00000000000E+00  0.00000000000E+00  0.32523946778E+03  0.32523946778E+03  0.00000000000E+00 0.  1.
          1   -1    0    0  501    0  0.00000000000E+00 -0.00000000000E+00 -0.28101076194E+04  0.28101076194E+04  0.00000000000E+00 0. -1.
        -24    2    1    2    0    0 -0.42104276095E+03 -0.48228675706E+03 -0.36008443904E+03  0.73883288506E+03  0.79597149624E+02 0.  0.
        254    2    1    2    0    0  0.42104276095E+03  0.48228675706E+03 -0.21247837126E+04  0.23965142021E+04  0.90481875154E+03 0.  0.
         23    2    4    4    0    0  0.66909704516E+03  0.26008380635E+03 -0.11155922243E+04  0.13300241788E+04  0.95309302145E+02 0.  0.
         23    2    4    4    0    0 -0.24805428421E+03  0.22220295070E+03 -0.10091914883E+04  0.10664900233E+04  0.89601510232E+02 0.  0.
          3    1    3    3  502    0 -0.78879555468E+02 -0.13993791145E+03 -0.77474265283E+02  0.17834479278E+03  0.00000000000E+00 0. -1.
         -4    1    3    3    0  502 -0.34216320548E+03 -0.34234884560E+03 -0.28261017375E+03  0.56048809227E+03  0.00000000000E+00 0.  1.
         11    1    5    5    0    0  0.41275117347E+03  0.14660941601E+03 -0.59619917935E+03  0.73980491585E+03  0.00000000000E+00 0. -1.
        -11    1    5    5    0    0  0.25634587169E+03  0.11347439034E+03 -0.51939304498E+03  0.59021926296E+03  0.00000000000E+00 0.  1.
          2    1    6    6  503    0 -0.18776343571E+03  0.19459449587E+03 -0.88903767001E+03  0.92925244380E+03  0.00000000000E+00 0. -1.
         -2    1    6    6    0  503 -0.60290848498E+02  0.27608454834E+02 -0.12015381827E+03  0.13723757953E+03  0.00000000000E+00 0.  1.
<mgrwt>
<rscale>  0 0.19120229E+04</rscale>
<asrwt>0</asrwt>
<pdfrwt beam="1">  1        1 0.43232425E+00 0.19120229E+04</pdfrwt>
<pdfrwt beam="2">  1       -2 0.50036841E-01 0.19120229E+04</pdfrwt>
<totfact> 0.25470474E+00</totfact>
</mgrwt>
</event>
<event>
12    4  0.4207946E-008  0.1441225E+04  0.7818608E-02  0.8924507E-01
         -2   -1    0    0    0  501 -0.00000000000E+00  0.00000000000E+00  0.23343666204E+03  0.23343666204E+03  0.00000000000E+00 0.  1.
          1   -1    0    0  501    0  0.00000000000E+00 -0.00000000000E+00 -0.22245095364E+04  0.22245095364E+04  0.00000000000E+00 0. -1.
        -24    2    1    2    0    0  0.31726503267E+03  0.41801602625E+02 -0.10177367865E+03  0.34585532711E+03  0.82786174484E+02 0.  0.
        254    2    1    2    0    0 -0.31726503267E+03 -0.41801602625E+02 -0.18892991957E+04  0.21120908713E+04  0.88829720414E+03 0.  0.
         23    2    4    4    0    0  0.26090372919E+02  0.92882894473E+02  0.42647573102E+02  0.14314231706E+03  0.96762429671E+02 0.  0.
         23    2    4    4    0    0 -0.34335540559E+03 -0.13468449710E+03 -0.19319467688E+04  0.19689485543E+04  0.91144081208E+02 0.  0.
          3    1    3    3  502    0  0.22060807458E+02  0.14956044794E+02 -0.31413771927E+02  0.41196936394E+02  0.00000000000E+00 0. -1.
         -2    1    3    3    0  502  0.29520422521E+03  0.26845557831E+02 -0.70359906725E+02  0.30465839072E+03  0.00000000000E+00 0.  1.
         11    1    5    5    0    0 -0.18131474991E+02 -0.12626516678E+02  0.45052133494E+01  0.22549418088E+02  0.00000000000E+00 0. -1.
        -11    1    5    5    0    0  0.44221847909E+02  0.10550941115E+03  0.38142359752E+02  0.12059289897E+03  0.00000000000E+00 0.  1.
          3    1    6    6  503    0 -0.16481474474E+02  0.74476175778E+01 -0.19311658001E+03  0.19396164436E+03  0.00000000000E+00 0. -1.
         -3    1    6    6    0  503 -0.32687393112E+03 -0.14213211468E+03 -0.17388301888E+04  0.17749869099E+04  0.00000000000E+00 0.  1.
<mgrwt>
<rscale>  0 0.14412246E+04</rscale>
<asrwt>0</asrwt>
<pdfrwt beam="1">  1        1 0.34223226E+00 0.14412246E+04</pdfrwt>
<pdfrwt beam="2">  1       -2 0.35913331E-01 0.14412246E+04</pdfrwt>
<totfact> 0.13063273E+01</totfact>
</mgrwt>
</event>
<event>
12    4  0.4207946E-008  0.1880997E+04  0.7818608E-02  0.8664374E-01
          1   -1    0    0  501    0  0.00000000000E+00  0.00000000000E+00  0.28984631091E+03  0.28984631091E+03  0.00000000000E+00 0. -1.
         -2   -1    0    0    0  501 -0.00000000000E+00 -0.00000000000E+00 -0.30517460852E+04  0.30517460852E+04  0.00000000000E+00 0.  1.
        -24    2    1    2    0    0  0.30799239928E+03 -0.49112460901E+03 -0.30529161526E+03  0.65992535815E+03  0.78967134925E+02 0.  0.
        254    2    1    2    0    0 -0.30799239928E+03  0.49112460901E+03 -0.24566081590E+04  0.26816670379E+04  0.90573271765E+03 0.  0.
         23    2    4    4    0    0 -0.53920457440E+02  0.64402473301E+03 -0.10126155308E+04  0.12049172363E+04  0.93595194925E+02 0.  0.
         23    2    4    4    0    0 -0.25407194184E+03 -0.15290012400E+03 -0.14439926282E+04  0.14767498017E+04  0.88001516630E+02 0.  0.
          1    1    3    3  502    0  0.15391482578E+03 -0.30668084460E+03 -0.15543272811E+03  0.37669914655E+03  0.00000000000E+00 0. -1.
         -4    1    3    3    0  502  0.15407757350E+03 -0.18444376440E+03 -0.14985888715E+03  0.28322621161E+03  0.00000000000E+00 0.  1.
         11    1    5    5    0    0 -0.34917108922E+02  0.10558225196E+03 -0.13247883750E+03  0.17296664074E+03  0.00000000000E+00 0. -1.
        -11    1    5    5    0    0 -0.19003348518E+02  0.53844248105E+03 -0.88013669332E+03  0.10319505955E+04  0.00000000000E+00 0.  1.
          4    1    6    6  503    0 -0.81465589170E+02 -0.86138292623E+02 -0.43197322835E+03  0.44794789617E+03  0.00000000000E+00 0. -1.
         -4    1    6    6    0  503 -0.17260635267E+03 -0.66761831380E+02 -0.10120193998E+04  0.10288019055E+04  0.00000000000E+00 0.  1.
<mgrwt>
<rscale>  0 0.18809969E+04</rscale>
<asrwt>0</asrwt>
<pdfrwt beam="1">  1        1 0.44591740E-01 0.18809969E+04</pdfrwt>
<pdfrwt beam="2">  1       -2 0.46949940E+00 0.18809969E+04</pdfrwt>
<totfact> 0.19429188E-01</totfact>
</mgrwt>
</event>
<event>
12    4  0.4207946E-008  0.1289165E+04  0.7818608E-02  0.9038202E-01
          1   -1    0    0  501    0  0.00000000000E+00  0.00000000000E+00  0.20394257672E+04  0.20394257672E+04  0.00000000000E+00 0. -1.
         -2   -1    0    0    0  501 -0.00000000000E+00 -0.00000000000E+00 -0.20372730105E+03  0.20372730105E+03  0.00000000000E+00 0.  1.
        -24    2    1    2    0    0  0.29666950313E+03  0.11577978476E+03  0.60441830324E+03  0.68809787871E+03  0.82094169988E+02 0.  0.
        254    2    1    2    0    0 -0.29666950313E+03 -0.11577978476E+03  0.12312801629E+04  0.15550551896E+04  0.89483409094E+03 0.  0.
         23    2    4    4    0    0 -0.11274545762E+03  0.29518418186E+03  0.97482137324E+03  0.10289115642E+04  0.92396199879E+02 0.  0.
         23    2    4    4    0    0 -0.18392404551E+03 -0.41096396663E+03  0.25645878970E+03  0.52614362538E+03  0.91304804559E+02 0.  0.
          1    1    3    3  502    0  0.17901920218E+03  0.69703069015E+02  0.44487140923E+03  0.48457916106E+03  0.00000000000E+00 0. -1.
         -2    1    3    3    0  502  0.11765030095E+03  0.46076715749E+02  0.15954689401E+03  0.20351871766E+03  0.00000000000E+00 0.  1.
         11    1    5    5    0    0  0.67219433041E+01  0.10077613134E+03  0.29243886211E+03  0.30938891584E+03  0.00000000000E+00 0.  1.
        -11    1    5    5    0    0 -0.11946740093E+03  0.19440805052E+03  0.68238251113E+03  0.71952264835E+03  0.00000000000E+00 0. -1.
          3    1    6    6  503    0 -0.17183905379E+03 -0.40382071224E+03  0.22833008973E+03  0.49470643610E+03  0.00000000000E+00 0. -1.
         -3    1    6    6    0  503 -0.12084991720E+02 -0.71432543825E+01  0.28128699966E+02  0.31437189280E+02  0.00000000000E+00 0.  1.
<mgrwt>
<rscale>  0 0.12891652E+04</rscale>
<asrwt>0</asrwt>
<pdfrwt beam="1">  1        1 0.31375780E+00 0.12891652E+04</pdfrwt>
<pdfrwt beam="2">  1       -2 0.31342663E-01 0.12891652E+04</pdfrwt>
<totfact> 0.22882588E+01</totfact>
</mgrwt>
</event>
<event>
12    4  0.4207946E-008  0.2023521E+04  0.7818608E-02  0.8595702E-01
          1   -1    0    0  501    0  0.00000000000E+00  0.00000000000E+00  0.19554633351E+04  0.19554633351E+04  0.00000000000E+00 0. -1.
         -2   -1    0    0    0  501 -0.00000000000E+00 -0.00000000000E+00 -0.52348690770E+03  0.52348690770E+03  0.00000000000E+00 0.  1.
        -24    2    1    2    0    0 -0.14726520289E+03  0.26051790366E+03 -0.34761183274E+03  0.46559973192E+03  0.79953148712E+02 0.  0.
        254    2    1    2    0    0  0.14726520289E+03 -0.26051790366E+03  0.17795882601E+04  0.20133505109E+04  0.89279856963E+03 0.  0.
         23    2    4    4    0    0 -0.11549460963E+03 -0.32227262582E+03  0.16711615982E+04  0.17086105116E+04  0.96799497250E+02 0.  0.
         23    2    4    4    0    0  0.26275981251E+03  0.61754722159E+02  0.10842666188E+03  0.30473999928E+03  0.90850213949E+02 0.  0.
          3    1    3    3  502    0  0.22475172556E+01  0.24938143397E+02 -0.84741255963E+01  0.26434317364E+02  0.00000000000E+00 0. -1.
         -4    1    3    3    0  502 -0.14951272014E+03  0.23557976027E+03 -0.33913770715E+03  0.43916541455E+03  0.00000000000E+00 0.  1.
         11    1    5    5    0    0 -0.12814318306E+03 -0.28010149722E+03  0.15317008985E+04  0.15623652475E+04  0.00000000000E+00 0.  1.
        -11    1    5    5    0    0  0.12648573434E+02 -0.42171128603E+02  0.13946069969E+03  0.14624526404E+03  0.00000000000E+00 0. -1.
          4    1    6    6  503    0  0.27110737017E+02 -0.18149208215E+02  0.28699763014E+02  0.43451837908E+02  0.00000000000E+00 0. -1.
         -4    1    6    6    0  503  0.23564907549E+03  0.79903930374E+02  0.79726898867E+02  0.26128816137E+03  0.00000000000E+00 0.  1.
<mgrwt>
<rscale>  0 0.20235211E+04</rscale>
<asrwt>0</asrwt>
<pdfrwt beam="1">  1        1 0.30084051E+00 0.20235211E+04</pdfrwt>
<pdfrwt beam="2">  1       -2 0.80536448E-01 0.20235211E+04</pdfrwt>
<totfact> 0.35367120E+00</totfact>
</mgrwt>
</event>
<event>
12    4  0.4207946E-008  0.1537070E+04  0.7818608E-02  0.8860169E-01
          1   -1    0    0  501    0  0.00000000000E+00  0.00000000000E+00  0.85267161087E+03  0.85267161087E+03  0.00000000000E+00 0. -1.
         -2   -1    0    0    0  501 -0.00000000000E+00 -0.00000000000E+00 -0.69270048876E+03  0.69270048876E+03  0.00000000000E+00 0.  1.
        -24    2    1    2    0    0  0.59114007855E+02  0.24591576400E+03 -0.37759608426E+03  0.46164702620E+03  0.81056431260E+02 0.  0.
        254    2    1    2    0    0 -0.59114007855E+02 -0.24591576400E+03  0.53756720637E+03  0.10837250734E+04  0.90637326996E+03 0.  0.
         23    2    4    4    0    0  0.50456219657E+02 -0.30729822242E+03 -0.16532211375E+03  0.36309869593E+03  0.86782683083E+02 0.  0.
         23    2    4    4    0    0 -0.10957022751E+03  0.61382458422E+02  0.70288932012E+03  0.72062637750E+03  0.97342378511E+02 0.  0.
          1    1    3    3  502    0  0.37849510919E+02  0.33009967691E+02 -0.91685094593E+02  0.10453898801E+03  0.00000000000E+00 0. -1.
         -2    1    3    3    0  502  0.21264496936E+02  0.21290579631E+03 -0.28591098966E+03  0.35710803819E+03  0.00000000000E+00 0.  1.
         11    1    5    5    0    0  0.37759599832E+02 -0.93924078312E+02 -0.16315480017E+02  0.10253640697E+03  0.00000000000E+00 0. -1.
        -11    1    5    5    0    0  0.12696619825E+02 -0.21337414411E+03 -0.14900663373E+03  0.26056228895E+03  0.00000000000E+00 0.  1.
          4    1    6    6  503    0 -0.59290446289E+02 -0.11361785616E+02  0.16890115187E+03  0.17936567759E+03  0.00000000000E+00 0. -1.
         -4    1    6    6    0  503 -0.50279781223E+02  0.72744244039E+02  0.53398816825E+03  0.54126069991E+03  0.00000000000E+00 0.  1.
<mgrwt>
<rscale>  0 0.15370700E+04</rscale>
<asrwt>0</asrwt>
<pdfrwt beam="1">  1        1 0.13118025E+00 0.15370700E+04</pdfrwt>
<pdfrwt beam="2">  1       -2 0.10656931E+00 0.15370700E+04</pdfrwt>
<totfact> 0.11942461E+01</totfact>
</mgrwt>
</event>
<event>
12    4  0.4207946E-008  0.1627733E+04  0.7818608E-02  0.8803690E-01
          1   -1    0    0  501    0  0.00000000000E+00  0.00000000000E+00  0.12462498506E+04  0.12462498506E+04  0.00000000000E+00 0. -1.
         -2   -1    0    0    0  501 -0.00000000000E+00 -0.00000000000E+00 -0.53149725303E+03  0.53149725303E+03  0.00000000000E+00 0.  1.
        -24    2    1    2    0    0 -0.49828216368E+03  0.11994737009E+03 -0.13336759956E+02  0.51854615591E+03  0.77715895439E+02 0.  0.
        254    2    1    2    0    0  0.49828216368E+03 -0.11994737009E+03  0.72808935751E+03  0.12592009477E+04  0.89039341190E+03 0.  0.
         23    2    4    4    0    0  0.37884672645E+03  0.17510088952E+03 -0.34186508038E+02  0.42826285325E+03  0.89750713049E+02 0.  0.
         23    2    4    4    0    0  0.11943543724E+03 -0.29504825960E+03  0.76227586555E+03  0.83093809446E+03  0.89862798026E+02 0.  0.
          3    1    3    3  502    0 -0.18147186799E+03  0.69239521897E+02 -0.33372992276E+02  0.19707842824E+03  0.00000000000E+00 0. -1.
         -4    1    3    3    0  502 -0.31681029569E+03  0.50707848189E+02  0.20036232320E+02  0.32146772766E+03  0.00000000000E+00 0.  1.
         11    1    5    5    0    0  0.16683079435E+03  0.43604151101E+02 -0.46112345493E+02  0.17849421375E+03  0.00000000000E+00 0. -1.
        -11    1    5    5    0    0  0.21201593210E+03  0.13149673841E+03  0.11925837456E+02  0.24976863950E+03  0.00000000000E+00 0.  1.
          3    1    6    6  503    0  0.91044936550E+02 -0.17467265993E+03  0.56234424868E+03  0.59584458764E+03  0.00000000000E+00 0. -1.
         -3    1    6    6    0  503  0.28390500687E+02 -0.12037559967E+03  0.19993161687E+03  0.23509350682E+03  0.00000000000E+00 0.  1.
<mgrwt>
<rscale>  0 0.16277326E+04</rscale>
<asrwt>0</asrwt>
<pdfrwt beam="1">  1        1 0.19173075E+00 0.16277326E+04</pdfrwt>
<pdfrwt beam="2">  1       -2 0.81768809E-01 0.16277326E+04</pdfrwt>
<totfact> 0.10925609E+01</totfact>
</mgrwt>
</event>
<event>
12    4  0.4207946E-008  0.1255322E+04  0.7818608E-02  0.9065765E-01
         -2   -1    0    0    0  501 -0.00000000000E+00  0.00000000000E+00  0.17416632431E+03  0.17416632431E+03  0.00000000000E+00 0.  1.
          1   -1    0    0  501    0  0.00000000000E+00 -0.00000000000E+00 -0.22619671311E+04  0.22619671311E+04  0.00000000000E+00 0. -1.
        -24    2    1    2    0    0 -0.24276603392E+03  0.17018420318E+03 -0.75259676728E+03  0.81273852010E+03  0.79018970445E+02 0.  0.
        254    2    1    2    0    0  0.24276603392E+03 -0.17018420318E+03 -0.13352040395E+04  0.16233949353E+04  0.87449601410E+03 0.  0.
         23    2    4    4    0    0 -0.24111464240E+03 -0.26173962549E+03 -0.30066663338E+03  0.47396397682E+03  0.87163780113E+02 0.  0.
         23    2    4    4    0    0  0.48388067632E+03  0.91555422310E+02 -0.10345374062E+04  0.11494309585E+04  0.91656856825E+02 0.  0.
          3    1    3    3  502    0 -0.71657029936E+02  0.94235713612E+02 -0.32770455919E+03  0.34843274498E+03  0.00000000000E+00 0. -1.
         -4    1    3    3    0  502 -0.17110900398E+03  0.75948489569E+02 -0.42489220809E+03  0.46430577512E+03  0.00000000000E+00 0.  1.
         11    1    5    5    0    0 -0.18664800245E+02 -0.49528901442E+02 -0.16837216842E+02  0.55542584719E+02  0.00000000000E+00 0.  1.
        -11    1    5    5    0    0 -0.22244984216E+03 -0.21221072405E+03 -0.28382941653E+03  0.41842139210E+03  0.00000000000E+00 0. -1.
          1    1    6    6  503    0  0.36562107936E+03  0.28175859630E+02 -0.75052556514E+03  0.83532106202E+03  0.00000000000E+00 0. -1.
         -1    1    6    6    0  503  0.11825959697E+03  0.63379562680E+02 -0.28401184102E+03  0.31410989650E+03  0.00000000000E+00 0.  1.
<mgrwt>
<rscale>  0 0.12553223E+04</rscale>
<asrwt>0</asrwt>
<pdfrwt beam="1">  1        1 0.34799493E+00 0.12553223E+04</pdfrwt>
<pdfrwt beam="2">  1       -2 0.26794820E-01 0.12553223E+04</pdfrwt>
<totfact> 0.21689366E+01</totfact>
</mgrwt>
</event>
<event>
12    4  0.4207946E-008  0.1515019E+04  0.7818608E-02  0.8874527E-01
         -2   -1    0    0    0  501 -0.00000000000E+00  0.00000000000E+00  0.36804711057E+03  0.36804711057E+03  0.00000000000E+00 0.  1.
          1   -1    0    0  501    0  0.00000000000E+00 -0.00000000000E+00 -0.15590953989E+04  0.15590953989E+04  0.00000000000E+00 0. -1.
        -24    2    1    2    0    0 -0.14678515408E+03  0.41769373549E+03 -0.14125317825E+03  0.47628960567E+03  0.10433307232E+03 0.  0.
        254    2    1    2    0    0  0.14678515408E+03 -0.41769373549E+03 -0.10497951101E+04  0.14508529038E+04  0.89827080393E+03 0.  0.
         23    2    4    4    0    0 -0.15251949675E+03  0.72571381749E+02 -0.78968702862E+03  0.81406400551E+03  0.10279007516E+03 0.  0.
         23    2    4    4    0    0  0.29930465083E+03 -0.49026511723E+03 -0.26010808144E+03  0.63678889828E+03  0.88886038012E+02 0.  0.
          3    1    3    3  502    0 -0.94279863634E+01  0.64254149152E+02  0.14188831867E+02  0.66474096909E+02  0.00000000000E+00 0. -1.
         -4    1    3    3    0  502 -0.13735716772E+03  0.35343958633E+03 -0.15544201012E+03  0.40981550876E+03  0.00000000000E+00 0.  1.
         11    1    5    5    0    0 -0.67454353554E+02 -0.15873757655E+02 -0.38478115981E+03  0.39097136332E+03  0.00000000000E+00 0. -1.
        -11    1    5    5    0    0 -0.85065143192E+02  0.88445139403E+02 -0.40490586881E+03  0.42309264218E+03  0.00000000000E+00 0.  1.
          1    1    6    6  503    0  0.19469063230E+03 -0.35216460884E+03 -0.14033329165E+03  0.42616638391E+03  0.00000000000E+00 0. -1.
         -1    1    6    6    0  503  0.10461401853E+03 -0.13810050839E+03 -0.11977478979E+03  0.21062251437E+03  0.00000000000E+00 0.  1.
<mgrwt>
<rscale>  0 0.15150189E+04</rscale>
<asrwt>0</asrwt>
<pdfrwt beam="1">  1        1 0.23986083E+00 0.15150189E+04</pdfrwt>
<pdfrwt beam="2">  1       -2 0.56622633E-01 0.15150189E+04</pdfrwt>
<totfact> 0.14770002E+01</totfact>
</mgrwt>
</event>
<event>
12    4  0.4207946E-008  0.1585381E+04  0.7818608E-02  0.8829580E-01
          3   -1    0    0  501    0  0.00000000000E+00  0.00000000000E+00  0.75608908144E+03  0.75608908144E+03  0.00000000000E+00 0. -1.
         -4   -1    0    0    0  501 -0.00000000000E+00 -0.00000000000E+00 -0.83106354547E+03  0.83106354547E+03  0.00000000000E+00 0.  1.
        -24    2    1    2    0    0 -0.41695998862E+03  0.29472239122E+03 -0.14175230697E+03  0.53568453792E+03  0.78404640415E+02 0.  0.
        254    2    1    2    0    0  0.41695998862E+03 -0.29472239122E+03  0.66777842936E+02  0.10514680890E+04  0.91673820792E+03 0.  0.
         23    2    4    4    0    0  0.74659023406E+02  0.20371237279E+03 -0.26649888123E+03  0.35557416899E+03  0.91316128646E+02 0.  0.
         23    2    4    4    0    0  0.34230096522E+03 -0.49843476401E+03  0.33327672416E+03  0.69589392000E+03  0.87108026376E+02 0.  0.
          3    1    3    3  502    0 -0.11835889194E+03  0.12904328047E+03 -0.47565186073E+02  0.18144818120E+03  0.00000000000E+00 0. -1.
         -4    1    3    3    0  502 -0.29860109668E+03  0.16567911075E+03 -0.94187120897E+02  0.35423635672E+03  0.00000000000E+00 0.  1.
         11    1    5    5    0    0  0.77629003825E+02  0.17700487802E+03 -0.17683011258E+03  0.26196541335E+03  0.00000000000E+00 0.  1.
        -11    1    5    5    0    0 -0.29699804192E+01  0.26707494773E+02 -0.89668768648E+02  0.93608755636E+02  0.00000000000E+00 0. -1.
          4    1    6    6  503    0  0.17540000513E+03 -0.19145374264E+03  0.16881152612E+03  0.30970474443E+03  0.00000000000E+00 0. -1.
         -4    1    6    6    0  503  0.16690096009E+03 -0.30698102137E+03  0.16446519805E+03  0.38618917557E+03  0.00000000000E+00 0.  1.
<mgrwt>
<rscale>  0 0.15853808E+04</rscale>
<asrwt>0</asrwt>
<pdfrwt beam="1">  1        3 0.11632140E+00 0.15853808E+04</pdfrwt>
<pdfrwt beam="2">  1       -4 0.12785593E+00 0.15853808E+04</pdfrwt>
<totfact> 0.60582280E-01</totfact>
</mgrwt>
</event>
<event>
12    4  0.4207946E-008  0.2741114E+04  0.7818608E-02  0.8321787E-01
          1   -1    0    0  501    0  0.00000000000E+00  0.00000000000E+00  0.22914625852E+04  0.22914625852E+04  0.00000000000E+00 0. -1.
         -2   -1    0    0    0  501 -0.00000000000E+00 -0.00000000000E+00 -0.81975030125E+03  0.81975030125E+03  0.00000000000E+00 0.  1.
        -24    2    1    2    0    0 -0.78052855181E+03 -0.39454370710E+03  0.16252219669E+04  0.18470926007E+04  0.74263564008E+02 0.  0.
        254    2    1    2    0    0  0.78052855181E+03  0.39454370710E+03 -0.15350968293E+03  0.12641202857E+04  0.89974736293E+03 0.  0.
         23    2    4    4    0    0  0.85546294250E+03  0.32322282554E+02 -0.19211575742E+02  0.86130675055E+03  0.92836727379E+02 0.  0.
         23    2    4    4    0    0 -0.74934390694E+02  0.36222142454E+03 -0.13429810718E+03  0.40281353520E+03  0.86042078328E+02 0.  0.
          1    1    3    3  502    0 -0.14746996941E+03 -0.59509709804E+02  0.24484078428E+03  0.29195172047E+03  0.00000000000E+00 0. -1.
         -2    1    3    3    0  502 -0.63305858240E+03 -0.33503399729E+03  0.13803811826E+04  0.15551408802E+04  0.00000000000E+00 0.  1.
         11    1    5    5    0    0  0.52527631765E+03  0.33201488399E+02 -0.54974641231E+02  0.52918783045E+03  0.00000000000E+00 0. -1.
        -11    1    5    5    0    0  0.33018662485E+03 -0.87920584527E+00  0.35763065488E+02  0.33211892010E+03  0.00000000000E+00 0.  1.
          4    1    6    6  503    0 -0.53432317935E+02  0.26719602597E+03 -0.13774783155E+03  0.30532473530E+03  0.00000000000E+00 0. -1.
         -4    1    6    6    0  503 -0.21502072759E+02  0.95025398577E+02  0.34497243646E+01  0.97488799899E+02  0.00000000000E+00 0.  1.
<mgrwt>
<rscale>  0 0.27411145E+04</rscale>
<asrwt>0</asrwt>
<pdfrwt beam="1">  1        1 0.35253270E+00 0.27411145E+04</pdfrwt>
<pdfrwt beam="2">  1       -2 0.12611543E+00 0.27411145E+04</pdfrwt>
<totfact> 0.67658221E-01</totfact>
</mgrwt>
</event>
<event>
12    4  0.4207946E-008  0.1886724E+04  0.7818608E-02  0.8661493E-01
         -4   -1    0    0    0  501 -0.00000000000E+00  0.00000000000E+00  0.89913096022E+03  0.89913096022E+03  0.00000000000E+00 0.  1.
          3   -1    0    0  501    0  0.00000000000E+00 -0.00000000000E+00 -0.98976885278E+03  0.98976885278E+03  0.00000000000E+00 0. -1.
        -24    2    1    2    0    0 -0.22557750309E+03  0.68739257260E+03  0.28732048903E+02  0.72853298779E+03  0.80876602915E+02 0.  0.
        254    2    1    2    0    0  0.22557750309E+03 -0.68739257260E+03 -0.11936994147E+03  0.11603668252E+04  0.89933766037E+03 0.  0.
         23    2    4    4    0    0  0.24530116464E+03  0.15451640623E+03 -0.50262174015E+01  0.30499760301E+03  0.94605992470E+02 0.  0.
         23    2    4    4    0    0 -0.19723661549E+02 -0.84190897883E+03 -0.11434372407E+03  0.85536922221E+03  0.96862106156E+02 0.  0.
          3    1    3    3  502    0 -0.87410160850E+02  0.32621203394E+03  0.49202967409E+02  0.34128545136E+03  0.00000000000E+00 0. -1.
         -4    1    3    3    0  502 -0.13816734224E+03  0.36118053866E+03 -0.20470918505E+02  0.38724753643E+03  0.00000000000E+00 0.  1.
         11    1    5    5    0    0  0.11343957241E+03  0.24810461953E+02 -0.25553873719E+02  0.11889952091E+03  0.00000000000E+00 0. -1.
        -11    1    5    5    0    0  0.13186159223E+03  0.12970594428E+03  0.20527656318E+02  0.18609808210E+03  0.00000000000E+00 0.  1.
          3    1    6    6  503    0  0.21136479572E+02 -0.13945177236E+03  0.75425772258E+01  0.14124601961E+03  0.00000000000E+00 0. -1.
         -3    1    6    6    0  503 -0.40860141121E+02 -0.70245720646E+03 -0.12188630129E+03  0.71412320260E+03  0.00000000000E+00 0.  1.
<mgrwt>
<rscale>  0 0.18867240E+04</rscale>
<asrwt>0</asrwt>
<pdfrwt beam="1">  1        3 0.15227213E+00 0.18867240E+04</pdfrwt>
<pdfrwt beam="2">  1       -4 0.13832784E+00 0.18867240E+04</pdfrwt>
<totfact> 0.24623270E-01</totfact>
</mgrwt>
</event>
<event>
12    4  0.4207946E-008  0.1498782E+04  0.7818608E-02  0.8885263E-01
          1   -1    0    0  501    0  0.00000000000E+00  0.00000000000E+00  0.49115650046E+03  0.49115650046E+03  0.00000000000E+00 0. -1.
         -2   -1    0    0    0  501 -0.00000000000E+00 -0.00000000000E+00 -0.11433971115E+04  0.11433971115E+04  0.00000000000E+00 0.  1.
        -24    2    1    2    0    0  0.24965190883E+03 -0.39680028567E+03 -0.12578013547E+03  0.49183534470E+03  0.79402906278E+02 0.  0.
        254    2    1    2    0    0 -0.24965190883E+03  0.39680028567E+03 -0.52646047562E+03  0.11427182673E+04  0.89937081548E+03 0.  0.
         23    2    4    4    0    0  0.25791083698E+03  0.18798462078E+03  0.55763355132E+02  0.33718803554E+03  0.93434480029E+02 0.  0.
         23    2    4    4    0    0 -0.50756274581E+03  0.20881566489E+03 -0.58222383075E+03  0.80553023175E+03  0.93115210026E+02 0.  0.
          1    1    3    3  502    0  0.38232477281E+02 -0.84473179163E+02  0.44489732056E+01  0.92829056224E+02  0.00000000000E+00 0. -1.
         -2    1    3    3    0  502  0.21141943155E+03 -0.31232710651E+03 -0.13022910867E+03  0.39900628847E+03  0.00000000000E+00 0.  1.
         11    1    5    5    0    0  0.68127668354E+02  0.91483688193E+02 -0.96118711167E+01  0.11446847805E+03  0.00000000000E+00 0. -1.
        -11    1    5    5    0    0  0.18978316863E+03  0.96500932583E+02  0.65375226248E+02  0.22271955749E+03  0.00000000000E+00 0.  1.
          2    1    6    6  503    0 -0.25004058521E+03  0.87111533519E+02 -0.34469773165E+03  0.43465531140E+03  0.00000000000E+00 0. -1.
         -2    1    6    6    0  503 -0.25752216060E+03  0.12170413138E+03 -0.23752609910E+03  0.37087492035E+03  0.00000000000E+00 0.  1.
<mgrwt>
<rscale>  0 0.14987821E+04</rscale>
<asrwt>0</asrwt>
<pdfrwt beam="1">  1        1 0.75562539E-01 0.14987821E+04</pdfrwt>
<pdfrwt beam="2">  1       -2 0.17590725E+00 0.14987821E+04</pdfrwt>
<totfact> 0.74344436E+00</totfact>
</mgrwt>
</event>
<event>
12    4  0.4207946E-008  0.1296429E+04  0.7818608E-02  0.9032402E-01
         -2   -1    0    0    0  501 -0.00000000000E+00  0.00000000000E+00  0.22770381754E+03  0.22770381754E+03  0.00000000000E+00 0.  1.
          1   -1    0    0  501    0  0.00000000000E+00 -0.00000000000E+00 -0.18452998529E+04  0.18452998529E+04  0.00000000000E+00 0. -1.
        -24    2    1    2    0    0  0.35994584589E+02  0.40443853256E+02 -0.93031013813E+03  0.93526835699E+03  0.79489817555E+02 0.  0.
        254    2    1    2    0    0 -0.35994584589E+02 -0.40443853256E+02 -0.68728589726E+03  0.11377353135E+04  0.90506818727E+03 0.  0.
         23    2    4    4    0    0 -0.44657157468E+02 -0.83088514593E+01 -0.89924001563E+03  0.90521866471E+03  0.93407315078E+02 0.  0.
         23    2    4    4    0    0  0.86625728786E+01 -0.32135001796E+02  0.21195411836E+03  0.23251664878E+03  0.89620004231E+02 0.  0.
          1    1    3    3  502    0 -0.72968975528E+01 -0.32841030475E+01 -0.54637473648E+03  0.54643332870E+03  0.00000000000E+00 0. -1.
         -2    1    3    3    0  502  0.43291482142E+02  0.43727956303E+02 -0.38393540165E+03  0.38883502829E+03  0.00000000000E+00 0.  1.
         11    1    5    5    0    0 -0.64026273413E+02 -0.13198558108E+02 -0.84309383886E+03  0.84562449512E+03  0.00000000000E+00 0. -1.
        -11    1    5    5    0    0  0.19369115946E+02  0.48897066487E+01 -0.56146176764E+02  0.59594169588E+02  0.00000000000E+00 0.  1.
          2    1    6    6  503    0 -0.21268611502E+02 -0.54228070226E+02  0.12294881748E+03  0.13604943644E+03  0.00000000000E+00 0.  1.
         -2    1    6    6    0  503  0.29931184380E+02  0.22093068430E+02  0.89005300884E+02  0.96467212339E+02  0.00000000000E+00 0. -1.
<mgrwt>
<rscale>  0 0.12964287E+04</rscale>
<asrwt>0</asrwt>
<pdfrwt beam="1">  1        1 0.28389229E+00 0.12964287E+04</pdfrwt>
<pdfrwt beam="2">  1       -2 0.35031357E-01 0.12964287E+04</pdfrwt>
<totfact> 0.25055001E+01</totfact>
</mgrwt>
</event>
<event>
12    4  0.4207946E-008  0.4035807E+04  0.7818608E-02  0.7997362E-01
         -2   -1    0    0    0  501 -0.00000000000E+00  0.00000000000E+00  0.15890982787E+04  0.15890982787E+04  0.00000000000E+00 0.  1.
          1   -1    0    0  501    0  0.00000000000E+00 -0.00000000000E+00 -0.25624179926E+04  0.25624179926E+04  0.00000000000E+00 0. -1.
        -24    2    1    2    0    0 -0.19079485837E+04  0.21574537015E+03 -0.47712320763E+03  0.19800937794E+04  0.79441532968E+02 0.  0.
        254    2    1    2    0    0  0.19079485837E+04 -0.21574537015E+03 -0.49619650626E+03  0.21714224919E+04  0.88433636286E+03 0.  0.
         23    2    4    4    0    0 -0.64915560206E+02 -0.29427359286E+02  0.10064046440E+02  0.12409560193E+03  0.10108626987E+03 0.  0.
         23    2    4    4    0    0  0.19728641439E+04 -0.18631801086E+03 -0.50626055270E+03  0.20473268899E+04  0.91325328744E+02 0.  0.
          3    1    3    3  502    0 -0.46398676773E+03  0.40698409284E+02 -0.82951646784E+02  0.47309730168E+03  0.00000000000E+00 0. -1.
         -4    1    3    3    0  502 -0.14439618160E+04  0.17504696086E+03 -0.39417156084E+03  0.15069964777E+04  0.00000000000E+00 0.  1.
         11    1    5    5    0    0 -0.28004532953E+02  0.37030856364E+02  0.12344590004E+02  0.48040889785E+02  0.00000000000E+00 0.  1.
        -11    1    5    5    0    0 -0.36911027253E+02 -0.66458215650E+02 -0.22805435637E+01  0.76054712144E+02  0.00000000000E+00 0. -1.
          4    1    6    6  503    0  0.98717204021E+03 -0.67888799520E+02 -0.29199312736E+03  0.10316867318E+04  0.00000000000E+00 0. -1.
         -4    1    6    6    0  503  0.98569210368E+03 -0.11842921134E+03 -0.21426742534E+03  0.10156401582E+04  0.00000000000E+00 0.  1.
<mgrwt>
<rscale>  0 0.40358067E+04</rscale>
<asrwt>0</asrwt>
<pdfrwt beam="1">  1        1 0.39421815E+00 0.40358067E+04</pdfrwt>
<pdfrwt beam="2">  1       -2 0.24447666E+00 0.40358067E+04</pdfrwt>
<totfact> 0.58495794E-02</totfact>
</mgrwt>
</event>
<event>
12    4  0.4207946E-008  0.1843241E+04  0.7818608E-02  0.8683637E-01
         -2   -1    0    0    0  501 -0.00000000000E+00  0.00000000000E+00  0.27665066611E+03  0.27665066611E+03  0.00000000000E+00 0.  1.
          1   -1    0    0  501    0  0.00000000000E+00 -0.00000000000E+00 -0.30702411573E+04  0.30702411573E+04  0.00000000000E+00 0. -1.
        -24    2    1    2    0    0  0.26591724321E+03 -0.62344634317E+03 -0.13553898882E+04  0.15175079433E+04  0.79694956054E+02 0.  0.
        254    2    1    2    0    0 -0.26591724321E+03  0.62344634317E+03 -0.14382006030E+04  0.18293838801E+04  0.90489064708E+03 0.  0.
         23    2    4    4    0    0  0.17025979660E+03 -0.13885900661E+02 -0.80157405813E+03  0.82426640447E+03  0.87823221823E+02 0.  0.
         23    2    4    4    0    0 -0.43617703981E+03  0.63733224383E+03 -0.63662654490E+03  0.10051174756E+04  0.92330834901E+02 0.  0.
          3    1    3    3  502    0  0.23479487845E+03 -0.59644921594E+03 -0.12830393625E+04  0.14342490397E+04  0.00000000000E+00 0. -1.
         -4    1    3    3    0  502  0.31122364763E+02 -0.26997127231E+02 -0.72350525636E+02  0.83258903590E+02  0.00000000000E+00 0.  1.
         11    1    5    5    0    0  0.16583537185E+03  0.10779793047E+02 -0.71999986340E+03  0.73892988692E+03  0.00000000000E+00 0. -1.
        -11    1    5    5    0    0  0.44244247502E+01 -0.24665693708E+02 -0.81574194730E+02  0.85336517543E+02  0.00000000000E+00 0.  1.
          4    1    6    6  503    0 -0.40337373956E+03  0.54794619979E+03 -0.53240330401E+03  0.86394947176E+03  0.00000000000E+00 0. -1.
         -4    1    6    6    0  503 -0.32803300243E+02  0.89386044048E+02 -0.10422324089E+03  0.14116800388E+03  0.00000000000E+00 0.  1.
<mgrwt>
<rscale>  0 0.18432409E+04</rscale>
<asrwt>0</asrwt>
<pdfrwt beam="1">  1        1 0.47234478E+00 0.18432409E+04</pdfrwt>
<pdfrwt beam="2">  1       -2 0.42561642E-01 0.18432409E+04</pdfrwt>
<totfact> 0.23014112E+00</totfact>
</mgrwt>
</event>
<event>
12    4  0.4207946E-008  0.1446974E+04  0.7818608E-02  0.8920501E-01
          1   -1    0    0  501    0  0.00000000000E+00  0.00000000000E+00  0.32879438433E+04  0.32879438433E+04  0.00000000000E+00 0. -1.
         -2   -1    0    0    0  501 -0.00000000000E+00 -0.00000000000E+00 -0.15919782899E+03  0.15919782899E+03  0.00000000000E+00 0.  1.
        -24    2    1    2    0    0  0.80120207824E+02  0.56331868056E+02 -0.55692305668E+02  0.13774628170E+03  0.79245682217E+02 0.  0.
        254    2    1    2    0    0 -0.80120207824E+02 -0.56331868056E+02  0.31844383199E+04  0.33093953905E+04  0.89546519222E+03 0.  0.
         23    2    4    4    0    0  0.59654771878E+02 -0.16321774617E+03  0.30802704452E+04  0.30865413073E+04  0.92046191651E+02 0.  0.
         23    2    4    4    0    0 -0.13977497970E+03  0.10688587811E+03  0.10416787473E+03  0.22285408329E+03  0.88607902695E+02 0.  0.
          3    1    3    3  502    0  0.23900078286E+02  0.18178555429E+02  0.19964360562E+02  0.36058969927E+02  0.00000000000E+00 0. -1.
         -4    1    3    3    0  502  0.56220129538E+02  0.38153312626E+02 -0.75656666231E+02  0.10168731177E+03  0.00000000000E+00 0.  1.
         11    1    5    5    0    0  0.92612802317E+01  0.10542983826E+02  0.35135734966E+03  0.35163747379E+03  0.00000000000E+00 0.  1.
        -11    1    5    5    0    0  0.50393491646E+02 -0.17376073000E+03  0.27289130955E+04  0.27349038335E+04  0.00000000000E+00 0. -1.
          1    1    6    6  503    0 -0.31663980864E+02  0.76834052100E+02  0.30020520653E+02  0.88358988827E+02  0.00000000000E+00 0. -1.
         -1    1    6    6    0  503 -0.10811099884E+03  0.30051826015E+02  0.74147354080E+02  0.13449509446E+03  0.00000000000E+00 0.  1.
<mgrwt>
<rscale>  0 0.14469741E+04</rscale>
<asrwt>0</asrwt>
<pdfrwt beam="1">  1        1 0.50583746E+00 0.14469741E+04</pdfrwt>
<pdfrwt beam="2">  1       -2 0.24491976E-01 0.14469741E+04</pdfrwt>
<totfact> 0.46812468E+00</totfact>
</mgrwt>
</event>
<event>
12    4  0.4207946E-008  0.2329946E+04  0.7818608E-02  0.8466206E-01
         -2   -1    0    0    0  501 -0.00000000000E+00  0.00000000000E+00  0.90544886723E+03  0.90544886723E+03  0.00000000000E+00 0.  1.
          1   -1    0    0  501    0  0.00000000000E+00 -0.00000000000E+00 -0.14988836155E+04  0.14988836155E+04  0.00000000000E+00 0. -1.
        -24    2    1    2    0    0 -0.34422853077E+03  0.43324055423E+03 -0.11107184854E+04  0.12432028536E+04  0.75280290969E+02 0.  0.
        254    2    1    2    0    0  0.34422853077E+03 -0.43324055423E+03  0.51728373705E+03  0.11611296292E+04  0.88002777907E+03 0.  0.
         23    2    4    4    0    0  0.50902940608E+03  0.16051001124E+01  0.93399919557E+02  0.52555427814E+03  0.91489025035E+02 0.  0.
         23    2    4    4    0    0 -0.16480087531E+03 -0.43484565434E+03  0.42388381749E+03  0.63557535105E+03  0.89601699341E+02 0.  0.
          3    1    3    3  502    0 -0.33906641035E+03  0.40877794050E+03 -0.10325087092E+04  0.11610941693E+04  0.00000000000E+00 0. -1.
         -4    1    3    3    0  502 -0.51621204188E+01  0.24462613735E+02 -0.78209776141E+02  0.82108684328E+02  0.00000000000E+00 0.  1.
         11    1    5    5    0    0  0.29462966617E+03  0.35367797799E+02  0.24120217986E+02  0.29772353993E+03  0.00000000000E+00 0. -1.
        -11    1    5    5    0    0  0.21439973990E+03 -0.33762697686E+02  0.69279701571E+02  0.22783073821E+03  0.00000000000E+00 0.  1.
          3    1    6    6  503    0 -0.13411192183E+03 -0.40781762479E+03  0.36283057018E+03  0.56209184777E+03  0.00000000000E+00 0. -1.
         -3    1    6    6    0  503 -0.30688953481E+02 -0.27028029549E+02  0.61053247314E+02  0.73483503283E+02  0.00000000000E+00 0.  1.
<mgrwt>
<rscale>  0 0.23299463E+04</rscale>
<asrwt>0</asrwt>
<pdfrwt beam="1">  1        1 0.23059748E+00 0.23299463E+04</pdfrwt>
<pdfrwt beam="2">  1       -2 0.13929983E+00 0.23299463E+04</pdfrwt>
<totfact> 0.18875660E+00</totfact>
</mgrwt>
</event>
<event>
12    4  0.4207946E-008  0.2631717E+04  0.7818608E-02  0.8357507E-01
          1   -1    0    0  501    0  0.00000000000E+00  0.00000000000E+00  0.12642378912E+04  0.12642378912E+04  0.00000000000E+00 0. -1.
         -2   -1    0    0    0  501 -0.00000000000E+00 -0.00000000000E+00 -0.13695873410E+04  0.13695873410E+04  0.00000000000E+00 0.  1.
        -24    2    1    2    0    0 -0.36668593795E+02  0.13661154500E+03 -0.12002154490E+04  0.12112153277E+04  0.80735036263E+02 0.  0.
        254    2    1    2    0    0  0.36668593795E+02 -0.13661154500E+03  0.10948659991E+04  0.14226099045E+04  0.89726255031E+03 0.  0.
         23    2    4    4    0    0  0.20117403162E+03 -0.31624004749E+03  0.10966877365E+04  0.11624779898E+04  0.90290236742E+02 0.  0.
         23    2    4    4    0    0 -0.16450543783E+03  0.17962850249E+03 -0.18217373384E+01  0.26013191463E+03  0.91306386975E+02 0.  0.
          3    1    3    3  502    0 -0.61012210569E+02  0.85851314205E+02 -0.85071771571E+03  0.85721267478E+03  0.00000000000E+00 0. -1.
         -4    1    3    3    0  502  0.24343616774E+02  0.50760230797E+02 -0.34949773326E+03  0.35400265290E+03  0.00000000000E+00 0.  1.
         11    1    5    5    0    0  0.15732635433E+03 -0.16507376193E+03  0.66132532902E+03  0.69953707510E+03  0.00000000000E+00 0. -1.
        -11    1    5    5    0    0  0.43847677299E+02 -0.15116628556E+03  0.43536240746E+03  0.46294091472E+03  0.00000000000E+00 0.  1.
          2    1    6    6  503    0 -0.85758638664E+02  0.11395648253E+03 -0.44007559377E+02  0.14925578481E+03  0.00000000000E+00 0.  1.
         -2    1    6    6    0  503 -0.78746799165E+02  0.65672019957E+02  0.42185822038E+02  0.11087612983E+03  0.00000000000E+00 0. -1.
<mgrwt>
<rscale>  0 0.26317175E+04</rscale>
<asrwt>0</asrwt>
<pdfrwt beam="1">  1        1 0.19449814E+00 0.26317175E+04</pdfrwt>
<pdfrwt beam="2">  1       -2 0.21070574E+00 0.26317175E+04</pdfrwt>
<totfact> 0.83831186E-01</totfact>
</mgrwt>
</event>
<event>
12    4  0.4207946E-008  0.1122205E+04  0.7818608E-02  0.9183816E-01
         -4   -1    0    0    0  501 -0.00000000000E+00  0.00000000000E+00  0.47731953358E+03  0.47731953358E+03  0.00000000000E+00 0.  1.
          1   -1    0    0  501    0  0.00000000000E+00 -0.00000000000E+00 -0.65959132709E+03  0.65959132709E+03  0.00000000000E+00 0. -1.
        -24    2    1    2    0    0 -0.17788025361E+03  0.48682479575E+02 -0.29453218384E+02  0.20399689285E+03  0.82072356963E+02 0.  0.
        254    2    1    2    0    0  0.17788025361E+03 -0.48682479575E+02 -0.15281857513E+03  0.93291396781E+03  0.90164493344E+03 0.  0.
         23    2    4    4    0    0  0.15814503306E+03 -0.45200896606E+03  0.85827453589E+01  0.48733564231E+03  0.90002265917E+02 0.  0.
         23    2    4    4    0    0  0.19735220552E+02  0.40332648648E+03 -0.16140132048E+03  0.44557832550E+03  0.97097498819E+02 0.  0.
          1    1    3    3  502    0 -0.17240584720E+03  0.52017600971E+02 -0.65368332188E+01  0.18020082449E+03  0.00000000000E+00 0. -1.
         -2    1    3    3    0  502 -0.54744064118E+01 -0.33351213968E+01 -0.22916385165E+02  0.23796068358E+02  0.00000000000E+00 0.  1.
         11    1    5    5    0    0  0.74416464050E+02 -0.21225659988E+03 -0.40887822863E+02  0.22860990436E+03  0.00000000000E+00 0. -1.
        -11    1    5    5    0    0  0.83728569008E+02 -0.23975236618E+03  0.49470568222E+02  0.25872573795E+03  0.00000000000E+00 0.  1.
          2    1    6    6  503    0  0.20113816280E+02  0.22938025930E+03 -0.40633194312E+02  0.23381814609E+03  0.00000000000E+00 0. -1.
         -2    1    6    6    0  503 -0.37859572757E+00  0.17394622718E+03 -0.12076812617E+03  0.21176017941E+03  0.00000000000E+00 0.  1.
<mgrwt>
<rscale>  0 0.11222047E+04</rscale>
<asrwt>0</asrwt>
<pdfrwt beam="1">  1        1 0.10147559E+00 0.11222047E+04</pdfrwt>
<pdfrwt beam="2">  1       -4 0.73433775E-01 0.11222047E+04</pdfrwt>
<totfact> 0.24114248E+01</totfact>
</mgrwt>
</event>
<event>
12    4  0.5270373E-008  0.1947417E+04  0.7818608E-02  0.8631607E-01
          1   -1    0    0  501    0  0.00000000000E+00  0.00000000000E+00  0.24690948598E+04  0.24690948598E+04  0.00000000000E+00 0. -1.
         -2   -1    0    0    0  501 -0.00000000000E+00 -0.00000000000E+00 -0.38399016559E+03  0.38399016559E+03  0.00000000000E+00 0.  1.
        -24    2    1    2    0    0  0.71980566904E+03  0.36433228094E+02  0.56751155062E+03  0.92094081004E+03  0.81332860607E+02 0.  0.
        254    2    1    2    0    0 -0.71980566904E+03 -0.36433228094E+02  0.15175931436E+04  0.19321442153E+04  0.95427707620E+03 0.  0.
         23    2    4    4    0    0 -0.62972512086E+03 -0.33270935331E+03  0.14249439890E+04  0.15960398334E+04  0.98125105598E+02 0.  0.
         23    2    4    4    0    0 -0.90080548179E+02  0.29627612522E+03  0.92649154564E+02  0.33610438194E+03  0.92131656813E+02 0.  0.
          3    1    3    3  502    0  0.35063792120E+03  0.13848922966E+02  0.22500908270E+03  0.41685468900E+03  0.00000000000E+00 0. -1.
         -4    1    3    3    0  502  0.36916774784E+03  0.22584305128E+02  0.34250246792E+03  0.50408612103E+03  0.00000000000E+00 0.  1.
         11    1    5    5    0    0 -0.61545027938E+03 -0.33701063032E+03  0.14099174505E+04  0.15748721943E+04  0.00000000000E+00 0. -1.
        -11    1    5    5    0    0 -0.14274841476E+02  0.43012770093E+01  0.15026538546E+02  0.21167639069E+02  0.00000000000E+00 0.  1.
          3    1    6    6  503    0 -0.76055764560E+02  0.29327381267E+03  0.72770884351E+02  0.31159205723E+03  0.00000000000E+00 0. -1.
         -3    1    6    6    0  503 -0.14024783618E+02  0.30023125474E+01  0.19878270213E+02  0.24512324713E+02  0.00000000000E+00 0.  1.
<mgrwt>
<rscale>  0 0.19474169E+04</rscale>
<asrwt>0</asrwt>
<pdfrwt beam="1">  1        1 0.37986074E+00 0.19474169E+04</pdfrwt>
<pdfrwt beam="2">  1       -2 0.59075412E-01 0.19474169E+04</pdfrwt>
<totfact> 0.31197498E+00</totfact>
</mgrwt>
</event>
<event>
12    4  0.4207946E-008  0.1594072E+04  0.7818608E-02  0.8824198E-01
         -2   -1    0    0    0  501 -0.00000000000E+00  0.00000000000E+00  0.34480657879E+03  0.34480657879E+03  0.00000000000E+00 0.  1.
          1   -1    0    0  501    0  0.00000000000E+00 -0.00000000000E+00 -0.18423847780E+04  0.18423847780E+04  0.00000000000E+00 0. -1.
        -24    2    1    2    0    0 -0.95911164024E+02  0.53701907600E+03 -0.37309193217E+03  0.66351617583E+03  0.58887064531E+02 0.  0.
        254    2    1    2    0    0  0.95911164024E+02 -0.53701907600E+03 -0.11244862671E+04  0.15236751810E+04  0.87150918124E+03 0.  0.
         23    2    4    4    0    0 -0.17058985610E+03  0.37218330804E+01 -0.81973628115E+03  0.84212235978E+03  0.89931902927E+02 0.  0.
         23    2    4    4    0    0  0.26650102012E+03 -0.54074090908E+03 -0.30474998592E+03  0.68155282121E+03  0.90654121303E+02 0.  0.
          1    1    3    3  502    0 -0.95263700036E+02  0.53254030190E+03 -0.36041668420E+03  0.65005732974E+03  0.00000000000E+00 0. -1.
         -2    1    3    3    0  502 -0.64746398839E+00  0.44787740932E+01 -0.12675247974E+02  0.13458846095E+02  0.00000000000E+00 0.  1.
         11    1    5    5    0    0 -0.15760475080E+03 -0.26565237711E+02 -0.66921702151E+03  0.68803807395E+03  0.00000000000E+00 0.  1.
        -11    1    5    5    0    0 -0.12985105299E+02  0.30287070791E+02 -0.15051925964E+03  0.15408428583E+03  0.00000000000E+00 0. -1.
          1    1    6    6  503    0  0.74862263898E+02 -0.95824864213E+02 -0.91894971333E+02  0.15241866327E+03  0.00000000000E+00 0. -1.
         -1    1    6    6    0  503  0.19163875623E+03 -0.44491604486E+03 -0.21285501458E+03  0.52913415794E+03  0.00000000000E+00 0.  1.
<mgrwt>
<rscale>  0 0.15940720E+04</rscale>
<asrwt>0</asrwt>
<pdfrwt beam="1">  1        1 0.28344381E+00 0.15940720E+04</pdfrwt>
<pdfrwt beam="2">  1       -2 0.53047166E-01 0.15940720E+04</pdfrwt>
<totfact> 0.10768544E+01</totfact>
</mgrwt>
</event>
<event>
12    4  0.4207946E-008  0.1470715E+04  0.7818608E-02  0.8904164E-01
         -4   -1    0    0    0  501 -0.00000000000E+00  0.00000000000E+00  0.83343192647E+03  0.83343192647E+03  0.00000000000E+00 0.  1.
          3   -1    0    0  501    0  0.00000000000E+00 -0.00000000000E+00 -0.64882373486E+03  0.64882373486E+03  0.00000000000E+00 0. -1.
        -24    2    1    2    0    0 -0.40979846529E+03 -0.12784541735E+03  0.21548963837E+03  0.48673238777E+03  0.78698158617E+02 0.  0.
        254    2    1    2    0    0  0.40979846529E+03  0.12784541735E+03 -0.30881446763E+02  0.99552327355E+03  0.89768240015E+03 0.  0.
         23    2    4    4    0    0  0.39154408353E+02  0.40579335924E+02 -0.42605437637E+03  0.43926054486E+03  0.90817093403E+02 0.  0.
         23    2    4    4    0    0  0.37064405694E+03  0.87266081430E+02  0.39517292960E+03  0.55626272869E+03  0.90962591918E+02 0.  0.
          3    1    3    3  502    0 -0.56222143318E+02 -0.20787272781E+02  0.18346920295E+01  0.59970044220E+02  0.00000000000E+00 0. -1.
         -4    1    3    3    0  502 -0.35357632197E+03 -0.10705814457E+03  0.21365494634E+03  0.42676234355E+03  0.00000000000E+00 0.  1.
         11    1    5    5    0    0  0.35363663663E+02 -0.20726591164E+02 -0.11221831746E+03  0.11947020994E+03  0.00000000000E+00 0. -1.
        -11    1    5    5    0    0  0.37907446901E+01  0.61305927087E+02 -0.31383605891E+03  0.31979033493E+03  0.00000000000E+00 0.  1.
          1    1    6    6  503    0  0.24969141350E+03  0.99999160046E+02  0.28924849216E+03  0.39498142261E+03  0.00000000000E+00 0. -1.
         -1    1    6    6    0  503  0.12095264343E+03 -0.12733078615E+02  0.10592443744E+03  0.16128130608E+03  0.00000000000E+00 0.  1.
<mgrwt>
<rscale>  0 0.14707147E+04</rscale>
<asrwt>0</asrwt>
<pdfrwt beam="1">  1        3 0.99819036E-01 0.14707147E+04</pdfrwt>
<pdfrwt beam="2">  1       -4 0.12822030E+00 0.14707147E+04</pdfrwt>
<totfact> 0.87236875E-01</totfact>
</mgrwt>
</event>
<event>
12    4  0.4207946E-008  0.2509489E+04  0.7818608E-02  0.8399613E-01
         -2   -1    0    0    0  501 -0.00000000000E+00  0.00000000000E+00  0.52990784220E+03  0.52990784220E+03  0.00000000000E+00 0.  1.
          1   -1    0    0  501    0  0.00000000000E+00 -0.00000000000E+00 -0.29710530920E+04  0.29710530920E+04  0.00000000000E+00 0. -1.
        -24    2    1    2    0    0  0.99239367843E+02 -0.10789440893E+04 -0.89509868061E+03  0.14075625485E+04  0.77858076424E+02 0.  0.
        254    2    1    2    0    0 -0.99239367843E+02  0.10789440893E+04 -0.15460465691E+04  0.20933983856E+04  0.90448217617E+03 0.  0.
         23    2    4    4    0    0 -0.10983329497E+02 -0.14760917591E+03 -0.22115352376E+03  0.28341427503E+03  0.97497014728E+02 0.  0.
         23    2    4    4    0    0 -0.88256038346E+02  0.12265532652E+04 -0.13248930454E+04  0.18099841106E+04  0.92080715731E+02 0.  0.
          1    1    3    3  502    0  0.59185310163E+02 -0.63119214600E+03 -0.57302370336E+03  0.85455403031E+03  0.00000000000E+00 0. -1.
         -2    1    3    3    0  502  0.40054057680E+02 -0.44775194329E+03 -0.32207497726E+03  0.55300851822E+03  0.00000000000E+00 0.  1.
         11    1    5    5    0    0 -0.32197842852E+01 -0.15903331860E+03 -0.21687395562E+03  0.26895404080E+03  0.00000000000E+00 0. -1.
        -11    1    5    5    0    0 -0.77635452121E+01  0.11424142696E+02 -0.42795681448E+01  0.14460234234E+02  0.00000000000E+00 0.  1.
          1    1    6    6  503    0 -0.44620493398E+02  0.87166784328E+03 -0.99398080602E+03  0.13227976641E+04  0.00000000000E+00 0. -1.
         -1    1    6    6    0  503 -0.43635544948E+02  0.35488542191E+03 -0.33091223936E+03  0.48718644647E+03  0.00000000000E+00 0.  1.
<mgrwt>
<rscale>  0 0.25094895E+04</rscale>
<asrwt>0</asrwt>
<pdfrwt beam="1">  1        1 0.45708509E+00 0.25094895E+04</pdfrwt>
<pdfrwt beam="2">  1       -2 0.81524283E-01 0.25094895E+04</pdfrwt>
<totfact> 0.64879380E-01</totfact>
</mgrwt>
</event>
<event>
12    4  0.4207946E-008  0.2091523E+04  0.7818608E-02  0.8564987E-01
          1   -1    0    0  501    0  0.00000000000E+00  0.00000000000E+00  0.96556249963E+03  0.96556249963E+03  0.00000000000E+00 0. -1.
         -2   -1    0    0    0  501 -0.00000000000E+00 -0.00000000000E+00 -0.11326213118E+04  0.11326213118E+04  0.00000000000E+00 0.  1.
        -24    2    1    2    0    0  0.19344636549E+03  0.14333519322E+03  0.75076686436E+03  0.79248772880E+03  0.80121418707E+02 0.  0.
        254    2    1    2    0    0 -0.19344636549E+03 -0.14333519322E+03 -0.91782567652E+03  0.13056960826E+04  0.89692352726E+03 0.  0.
         23    2    4    4    0    0  0.50694454417E+01 -0.11729036992E+03 -0.10424024119E+04  0.10521285012E+04  0.81171820836E+02 0.  0.
         23    2    4    4    0    0 -0.19851581093E+03 -0.26044823305E+02  0.12457673539E+03  0.25356758143E+03  0.93221753586E+02 0.  0.
          3    1    3    3  502    0  0.14860532850E+03  0.14661498820E+03  0.61334798629E+03  0.64790064879E+03  0.00000000000E+00 0. -1.
         -4    1    3    3    0  502  0.44841036990E+02 -0.32797949771E+01  0.13741887808E+03  0.14458708001E+03  0.00000000000E+00 0.  1.
         11    1    5    5    0    0  0.32045095803E+02 -0.14429902606E+02 -0.20337408932E+03  0.20638830020E+03  0.00000000000E+00 0.  1.
        -11    1    5    5    0    0 -0.26975650361E+02 -0.10286046731E+03 -0.83902832260E+03  0.84574020099E+03  0.00000000000E+00 0. -1.
          3    1    6    6  503    0 -0.89499593724E+02  0.28555654126E+02  0.81146069073E+02  0.12413817779E+03  0.00000000000E+00 0. -1.
         -3    1    6    6    0  503 -0.10901621721E+03 -0.54600477431E+02  0.43430666320E+02  0.12942940364E+03  0.00000000000E+00 0.  1.
<mgrwt>
<rscale>  0 0.20915226E+04</rscale>
<asrwt>0</asrwt>
<pdfrwt beam="1">  1        1 0.14854808E+00 0.20915226E+04</pdfrwt>
<pdfrwt beam="2">  1       -2 0.17424943E+00 0.20915226E+04</pdfrwt>
<totfact> 0.25841344E+00</totfact>
</mgrwt>
</event>
<event>
12    4  0.4207946E-008  0.2622366E+04  0.7818608E-02  0.8360644E-01
          1   -1    0    0  501    0  0.00000000000E+00  0.00000000000E+00  0.13904023722E+04  0.13904023722E+04  0.00000000000E+00 0. -1.
         -2   -1    0    0    0  501 -0.00000000000E+00 -0.00000000000E+00 -0.12364770261E+04  0.12364770261E+04  0.00000000000E+00 0.  1.
        -24    2    1    2    0    0  0.84443009183E+03 -0.27166679143E+03 -0.67032564110E+03  0.11147548331E+04  0.80478862473E+02 0.  0.
        254    2    1    2    0    0 -0.84443009183E+03  0.27166679143E+03  0.82425098722E+03  0.15121245651E+04  0.90568536754E+03 0.  0.
         23    2    4    4    0    0 -0.13411432261E+03  0.49237428723E+03  0.34621298708E+03  0.62312580750E+03  0.89460881366E+02 0.  0.
         23    2    4    4    0    0 -0.71031576922E+03 -0.22070749580E+03  0.47803800014E+03  0.88899875763E+03  0.92402222832E+02 0.  0.
          3    1    3    3  502    0  0.12863228481E+03 -0.59941601991E+02 -0.13786317973E+03  0.19785225971E+03  0.00000000000E+00 0. -1.
         -4    1    3    3    0  502  0.71579780701E+03 -0.21172518944E+03 -0.53246246136E+03  0.91690257341E+03  0.00000000000E+00 0.  1.
         11    1    5    5    0    0 -0.13012346025E+03  0.48087427273E+03  0.31445044496E+03  0.58911056977E+03  0.00000000000E+00 0. -1.
        -11    1    5    5    0    0 -0.39908623595E+01  0.11500014503E+02  0.31762542120E+02  0.34015237730E+02  0.00000000000E+00 0.  1.
          4    1    6    6  503    0 -0.60815290226E+03 -0.21366816217E+03  0.43653551340E+03  0.77850323731E+03  0.00000000000E+00 0. -1.
         -4    1    6    6    0  503 -0.10216286697E+03 -0.70393336248E+01  0.41502486742E+02  0.11049552032E+03  0.00000000000E+00 0.  1.
<mgrwt>
<rscale>  0 0.26223658E+04</rscale>
<asrwt>0</asrwt>
<pdfrwt beam="1">  1        1 0.21390806E+00 0.26223658E+04</pdfrwt>
<pdfrwt beam="2">  1       -2 0.19022723E+00 0.26223658E+04</pdfrwt>
<totfact> 0.93016213E-01</totfact>
</mgrwt>
</event>
<event>
12    4  0.4207946E-008  0.2300056E+04  0.7818608E-02  0.8477899E-01
         -2   -1    0    0    0  501 -0.00000000000E+00  0.00000000000E+00  0.68505044651E+03  0.68505044651E+03  0.00000000000E+00 0.  1.
          1   -1    0    0  501    0  0.00000000000E+00 -0.00000000000E+00 -0.19306080698E+04  0.19306080698E+04  0.00000000000E+00 0. -1.
        -24    2    1    2    0    0  0.77872778754E+03 -0.21378957130E+02 -0.12124755676E+04  0.14432273605E+04  0.77033661651E+02 0.  0.
        254    2    1    2    0    0 -0.77872778754E+03  0.21378957130E+02 -0.33082055614E+02  0.11724311558E+04  0.87557202204E+03 0.  0.
         23    2    4    4    0    0 -0.45476655772E+03  0.55892428818E+02 -0.44051422172E+03  0.64291819607E+03  0.96718362722E+02 0.  0.
         23    2    4    4    0    0 -0.32396122982E+03 -0.34513471688E+02  0.40743216610E+03  0.52951295972E+03  0.90779658399E+02 0.  0.
          3    1    3    3  502    0  0.57826152670E+03 -0.43127808628E+02 -0.93519791953E+03  0.11003824562E+04  0.00000000000E+00 0. -1.
         -4    1    3    3    0  502  0.20046626084E+03  0.21748851497E+02 -0.27727764812E+03  0.34284490433E+03  0.00000000000E+00 0.  1.
         11    1    5    5    0    0 -0.83237217644E+02  0.37594005052E+02 -0.52256138921E+02  0.10522569872E+03  0.00000000000E+00 0.  1.
        -11    1    5    5    0    0 -0.37152934008E+03  0.18298423766E+02 -0.38825808280E+03  0.53769249735E+03  0.00000000000E+00 0. -1.
          3    1    6    6  503    0 -0.32111191859E+03 -0.41384978238E+02  0.40927036979E+03  0.52185037728E+03  0.00000000000E+00 0. -1.
         -3    1    6    6    0  503 -0.28493112312E+01  0.68715065501E+01 -0.18382036866E+01  0.76625824338E+01  0.00000000000E+00 0.  1.
<mgrwt>
<rscale>  0 0.23000556E+04</rscale>
<asrwt>0</asrwt>
<pdfrwt beam="1">  1        1 0.29701662E+00 0.23000556E+04</pdfrwt>
<pdfrwt beam="2">  1       -2 0.10539238E+00 0.23000556E+04</pdfrwt>
<totfact> 0.19212538E+00</totfact>
</mgrwt>
</event>
<event>
12    4  0.4207946E-008  0.1295901E+04  0.7818608E-02  0.9032822E-01
         -2   -1    0    0    0  501 -0.00000000000E+00  0.00000000000E+00  0.28545036330E+03  0.28545036330E+03  0.00000000000E+00 0.  1.
          1   -1    0    0  501    0  0.00000000000E+00 -0.00000000000E+00 -0.14707973461E+04  0.14707973461E+04  0.00000000000E+00 0. -1.
        -24    2    1    2    0    0  0.31709192179E+03  0.86690445716E+02 -0.30220997712E+03  0.45310702925E+03  0.76893364098E+02 0.  0.
        254    2    1    2    0    0 -0.31709192179E+03 -0.86690445716E+02 -0.88313700572E+03  0.13031406802E+04  0.90010118389E+03 0.  0.
         23    2    4    4    0    0 -0.26979942356E+03  0.35114471590E+03 -0.66214798325E+03  0.80185756495E+03  0.91876342374E+02 0.  0.
         23    2    4    4    0    0 -0.47292498223E+02 -0.43783516162E+03 -0.22098902247E+03  0.50128311523E+03  0.92262692499E+02 0.  0.
          3    1    3    3  502    0  0.17268127266E+03  0.60140515309E+02 -0.11835412649E+03  0.21781506552E+03  0.00000000000E+00 0. -1.
         -4    1    3    3    0  502  0.14441064913E+03  0.26549930407E+02 -0.18385585063E+03  0.23529196373E+03  0.00000000000E+00 0.  1.
         11    1    5    5    0    0 -0.58758619414E+02  0.80499914483E+02 -0.22498584857E+03  0.24607202938E+03  0.00000000000E+00 0.  1.
        -11    1    5    5    0    0 -0.21104080415E+03  0.27064480142E+03 -0.43716213468E+03  0.55578553557E+03  0.00000000000E+00 0. -1.
          4    1    6    6  503    0 -0.43148306430E+02 -0.34799969855E+03 -0.21461458229E+03  0.41112648355E+03  0.00000000000E+00 0. -1.
         -4    1    6    6    0  503 -0.41441917931E+01 -0.89835463066E+02 -0.63744401832E+01  0.90156631689E+02  0.00000000000E+00 0.  1.
<mgrwt>
<rscale>  0 0.12959007E+04</rscale>
<asrwt>0</asrwt>
<pdfrwt beam="1">  1        1 0.22627651E+00 0.12959007E+04</pdfrwt>
<pdfrwt beam="2">  1       -2 0.43915441E-01 0.12959007E+04</pdfrwt>
<totfact> 0.29063598E+01</totfact>
</mgrwt>
</event>
<event>
12    4  0.4207946E-008  0.2046952E+04  0.7818608E-02  0.8584978E-01
         -4   -1    0    0    0  501 -0.00000000000E+00  0.00000000000E+00  0.50627055444E+03  0.50627055444E+03  0.00000000000E+00 0.  1.
          3   -1    0    0  501    0  0.00000000000E+00 -0.00000000000E+00 -0.20690578971E+04  0.20690578971E+04  0.00000000000E+00 0. -1.
        -24    2    1    2    0    0 -0.54205180717E+03  0.59810665519E+03 -0.41275827124E+03  0.91008396952E+03  0.79572033212E+02 0.  0.
        254    2    1    2    0    0  0.54205180717E+03 -0.59810665519E+03 -0.11500290714E+04  0.16652444820E+04  0.89382357720E+03 0.  0.
         23    2    4    4    0    0 -0.22593674041E+02 -0.45324087349E+03 -0.92374971840E+03  0.10332437795E+04  0.91331276730E+02 0.  0.
         23    2    4    4    0    0  0.56464548121E+03 -0.14486578171E+03 -0.22627935303E+03  0.63200070253E+03  0.91716564714E+02 0.  0.
          3    1    3    3  502    0 -0.50783625967E+03  0.54318319886E+03 -0.39915196634E+03  0.84395968292E+03  0.00000000000E+00 0. -1.
         -4    1    3    3    0  502 -0.34215547493E+02  0.54923456328E+02 -0.13606304897E+02  0.66124286599E+02  0.00000000000E+00 0.  1.
         11    1    5    5    0    0 -0.34934841537E+01 -0.31120921435E+03 -0.53528847184E+03  0.61919070375E+03  0.00000000000E+00 0. -1.
        -11    1    5    5    0    0 -0.19100189887E+02 -0.14203165914E+03 -0.38846124656E+03  0.41405307574E+03  0.00000000000E+00 0.  1.
          3    1    6    6  503    0  0.57618825905E+02 -0.45448102800E+02 -0.25831859009E+02  0.77799383589E+02  0.00000000000E+00 0. -1.
         -3    1    6    6    0  503  0.50702665530E+03 -0.99417678905E+02 -0.20044749402E+03  0.55420131895E+03  0.00000000000E+00 0.  1.
<mgrwt>
<rscale>  0 0.20469520E+04</rscale>
<asrwt>0</asrwt>
<pdfrwt beam="1">  1        3 0.31831660E+00 0.20469520E+04</pdfrwt>
<pdfrwt beam="2">  1       -4 0.77887778E-01 0.20469520E+04</pdfrwt>
<totfact> 0.96083462E-02</totfact>
</mgrwt>
</event>
<event>
12    4  0.4207946E-008  0.2391552E+04  0.7818608E-02  0.8442673E-01
          1   -1    0    0  501    0  0.00000000000E+00  0.00000000000E+00  0.37287678767E+04  0.37287678767E+04  0.00000000000E+00 0. -1.
         -2   -1    0    0    0  501 -0.00000000000E+00 -0.00000000000E+00 -0.38347246337E+03  0.38347246337E+03  0.00000000000E+00 0.  1.
        -24    2    1    2    0    0  0.46753386104E+03 -0.23698135754E+02  0.30190988356E+04  0.30561800976E+04  0.78291100898E+02 0.  0.
        254    2    1    2    0    0 -0.46753386104E+03  0.23698135754E+02  0.32619657771E+03  0.10560602425E+04  0.88865601651E+03 0.  0.
         23    2    4    4    0    0 -0.25592483700E+03 -0.30439440981E+03  0.47664342774E+03  0.62767220186E+03  0.92897561115E+02 0.  0.
         23    2    4    4    0    0 -0.21160902403E+03  0.32809254556E+03 -0.15044685003E+03  0.42838804067E+03  0.91972611118E+02 0.  0.
          1    1    3    3  502    0  0.41306116713E+03 -0.42775011356E+02  0.25590771157E+04  0.25925518150E+04  0.00000000000E+00 0. -1.
         -2    1    3    3    0  502  0.54472693903E+02  0.19076875602E+02  0.46002171995E+03  0.46362828256E+03  0.00000000000E+00 0.  1.
         11    1    5    5    0    0 -0.17978756070E+03 -0.17156945690E+03  0.23771723189E+03  0.34390278839E+03  0.00000000000E+00 0. -1.
        -11    1    5    5    0    0 -0.76137276300E+02 -0.13282495291E+03  0.23892619585E+03  0.28376941347E+03  0.00000000000E+00 0.  1.
          3    1    6    6  503    0 -0.20114951375E+03  0.29957107515E+03 -0.10888694382E+03  0.37690890475E+03  0.00000000000E+00 0. -1.
         -3    1    6    6    0  503 -0.10459510286E+02  0.28521470413E+02 -0.41559906217E+02  0.51479135916E+02  0.00000000000E+00 0.  1.
<mgrwt>
<rscale>  0 0.23915516E+04</rscale>
<asrwt>0</asrwt>
<pdfrwt beam="1">  1        1 0.57365657E+00 0.23915516E+04</pdfrwt>
<pdfrwt beam="2">  1       -2 0.58995766E-01 0.23915516E+04</pdfrwt>
<totfact> 0.34651734E-01</totfact>
</mgrwt>
</event>
<event>
12    4  0.4207946E-008  0.2323216E+04  0.7818608E-02  0.8468823E-01
          1   -1    0    0  501    0  0.00000000000E+00  0.00000000000E+00  0.78101937355E+03  0.78101937355E+03  0.00000000000E+00 0. -1.
         -4   -1    0    0    0  501 -0.00000000000E+00 -0.00000000000E+00 -0.17276558120E+04  0.17276558120E+04  0.00000000000E+00 0.  1.
        -24    2    1    2    0    0  0.14119854191E+03  0.84973606884E+03  0.10212367215E+03  0.87107412291E+03  0.79702373061E+02 0.  0.
        254    2    1    2    0    0 -0.14119854191E+03 -0.84973606884E+03 -0.10487601106E+04  0.16376010626E+04  0.91643387969E+03 0.  0.
         23    2    4    4    0    0 -0.97363153864E+02 -0.95881169374E+03 -0.11133780234E+04  0.14754726972E+04  0.92787979744E+02 0.  0.
         23    2    4    4    0    0 -0.43835388046E+02  0.10907562490E+03  0.64617912815E+02  0.16212836550E+03  0.91055472371E+02 0.  0.
          1    1    3    3  502    0  0.10795088447E+03  0.78388441521E+03  0.94869585482E+02  0.79694943887E+03  0.00000000000E+00 0. -1.
         -2    1    3    3    0  502  0.33247657441E+02  0.65851653632E+02  0.72540866633E+01  0.74124684045E+02  0.00000000000E+00 0.  1.
         11    1    5    5    0    0 -0.85689086452E+02 -0.59903567795E+03 -0.75427021608E+03  0.96701081786E+03  0.00000000000E+00 0.  1.
        -11    1    5    5    0    0 -0.11674067412E+02 -0.35977601579E+03 -0.35910780735E+03  0.50846187929E+03  0.00000000000E+00 0. -1.
          4    1    6    6  503    0 -0.17881269985E+02  0.18258475522E+02 -0.22188674718E+02  0.33844483013E+02  0.00000000000E+00 0. -1.
         -4    1    6    6    0  503 -0.25954118061E+02  0.90817149382E+02  0.86806587533E+02  0.12828388248E+03  0.00000000000E+00 0.  1.
<mgrwt>
<rscale>  0 0.23232156E+04</rscale>
<asrwt>0</asrwt>
<pdfrwt beam="1">  1        1 0.12015683E+00 0.23232156E+04</pdfrwt>
<pdfrwt beam="2">  1       -4 0.26579320E+00 0.23232156E+04</pdfrwt>
<totfact> 0.50092171E-01</totfact>
</mgrwt>
</event>
<event>
12    4  0.4207946E-008  0.2547943E+04  0.7818608E-02  0.8386102E-01
          1   -1    0    0  501    0  0.00000000000E+00  0.00000000000E+00  0.25513874592E+04  0.25513874592E+04  0.00000000000E+00 0. -1.
         -2   -1    0    0    0  501 -0.00000000000E+00 -0.00000000000E+00 -0.63612603359E+03  0.63612603359E+03  0.00000000000E+00 0.  1.
        -24    2    1    2    0    0 -0.59676692560E+03  0.35888704273E+03  0.19295574781E+04  0.20528579852E+04  0.78122806680E+02 0.  0.
        254    2    1    2    0    0  0.59676692560E+03 -0.35888704273E+03 -0.14296052510E+02  0.11346555076E+04  0.89571651260E+03 0.  0.
         23    2    4    4    0    0 -0.38785327207E+02 -0.40203247571E+03  0.19675022989E+03  0.45838553865E+03  0.90951833109E+02 0.  0.
         23    2    4    4    0    0  0.63555225281E+03  0.43145432982E+02 -0.21104628240E+03  0.67626996898E+03  0.83739734872E+02 0.  0.
          3    1    3    3  502    0 -0.52129228785E+03  0.33594383311E+03  0.16629878575E+04  0.17748612685E+04  0.00000000000E+00 0. -1.
         -4    1    3    3    0  502 -0.75474637751E+02  0.22943209619E+02  0.26656962063E+03  0.27799671663E+03  0.00000000000E+00 0.  1.
         11    1    5    5    0    0 -0.61017974477E+02 -0.32601750562E+03  0.18022382195E+03  0.37748010965E+03  0.00000000000E+00 0. -1.
        -11    1    5    5    0    0  0.22232647270E+02 -0.76014970090E+02  0.16526407942E+02  0.80905429001E+02  0.00000000000E+00 0.  1.
          2    1    6    6  503    0  0.48108168109E+02  0.17296804456E+02 -0.36775856003E+02  0.62976494567E+02  0.00000000000E+00 0.  1.
         -2    1    6    6    0  503  0.58744408470E+03  0.25848628526E+02 -0.17427042640E+03  0.61329347442E+03  0.00000000000E+00 0. -1.
<mgrwt>
<rscale>  0 0.25479435E+04</rscale>
<asrwt>0</asrwt>
<pdfrwt beam="1">  1        1 0.39252114E+00 0.25479435E+04</pdfrwt>
<pdfrwt beam="2">  1       -2 0.97865545E-01 0.25479435E+04</pdfrwt>
<totfact> 0.84338839E-01</totfact>
</mgrwt>
</event>
<event>
12    4  0.4207946E-008  0.1757138E+04  0.7818608E-02  0.8729431E-01
          1   -1    0    0  501    0  0.00000000000E+00  0.00000000000E+00  0.27719130075E+04  0.27719130075E+04  0.00000000000E+00 0. -1.
         -2   -1    0    0    0  501 -0.00000000000E+00 -0.00000000000E+00 -0.27846589509E+03  0.27846589509E+03  0.00000000000E+00 0.  1.
        -24    2    1    2    0    0  0.20293053060E+03  0.56403456836E+03  0.47442952996E+03  0.76883481824E+03  0.81901186081E+02 0.  0.
        254    2    1    2    0    0 -0.20293053060E+03 -0.56403456836E+03  0.20190175824E+04  0.22815440844E+04  0.87732298274E+03 0.  0.
         23    2    4    4    0    0 -0.12219989485E+03 -0.32659537750E+03  0.14471487408E+03  0.38850994643E+03  0.91652762017E+02 0.  0.
         23    2    4    4    0    0 -0.80730635750E+02 -0.23743919086E+03  0.18743027084E+04  0.18930341379E+04  0.87594519554E+02 0.  0.
          3    1    3    3  502    0  0.15595842058E+02  0.52303300431E+02  0.16460816315E+02  0.57007227605E+02  0.00000000000E+00 0. -1.
         -4    1    3    3    0  502  0.18733468854E+03  0.51173126793E+03  0.45796871365E+03  0.71182759064E+03  0.00000000000E+00 0.  1.
         11    1    5    5    0    0 -0.81355396687E+02 -0.26817295294E+03  0.78043101724E+02  0.29090575619E+03  0.00000000000E+00 0. -1.
        -11    1    5    5    0    0 -0.40844498163E+02 -0.58422424557E+02  0.66671772358E+02  0.97604190231E+02  0.00000000000E+00 0.  1.
          3    1    6    6  503    0 -0.64513509942E+02 -0.19430051360E+03  0.12154770157E+04  0.12325984984E+04  0.00000000000E+00 0. -1.
         -3    1    6    6    0  503 -0.16217125808E+02 -0.43138677268E+02  0.65882569268E+03  0.66043563954E+03  0.00000000000E+00 0.  1.
<mgrwt>
<rscale>  0 0.17571377E+04</rscale>
<asrwt>0</asrwt>
<pdfrwt beam="1">  1        1 0.42644814E+00 0.17571377E+04</pdfrwt>
<pdfrwt beam="2">  1       -2 0.42840909E-01 0.17571377E+04</pdfrwt>
<totfact> 0.37583910E+00</totfact>
</mgrwt>
</event>
<event>
12    4  0.4207946E-008  0.2403246E+04  0.7818608E-02  0.8438289E-01
         -2   -1    0    0    0  501 -0.00000000000E+00  0.00000000000E+00  0.35385959578E+03  0.35385959578E+03  0.00000000000E+00 0.  1.
          1   -1    0    0  501    0  0.00000000000E+00 -0.00000000000E+00 -0.40804244879E+04  0.40804244879E+04  0.00000000000E+00 0. -1.
        -24    2    1    2    0    0  0.59923268486E+03  0.35729994955E+03 -0.19949085226E+03  0.73003890164E+03  0.80107011029E+02 0.  0.
        254    2    1    2    0    0 -0.59923268486E+03 -0.35729994955E+03 -0.35270740399E+04  0.37042451820E+04  0.89131252735E+03 0.  0.
         23    2    4    4    0    0 -0.75899582590E+03 -0.19757242107E+03 -0.32019502061E+04  0.32979235276E+04  0.93300301604E+02 0.  0.
         23    2    4    4    0    0  0.15976314104E+03 -0.15972752848E+03 -0.32512383377E+03  0.40632165444E+03  0.91403692438E+02 0.  0.
          1    1    3    3  502    0  0.24197707017E+03  0.12052114020E+03 -0.11194473419E+03  0.29259164587E+03  0.00000000000E+00 0. -1.
         -4    1    3    3    0  502  0.35725561469E+03  0.23677880935E+03 -0.87546118069E+02  0.43744725577E+03  0.00000000000E+00 0.  1.
         11    1    5    5    0    0 -0.36555774057E+03 -0.12860784148E+03 -0.17171364282E+04  0.17603209797E+04  0.00000000000E+00 0. -1.
        -11    1    5    5    0    0 -0.39343808533E+03 -0.68964579591E+02 -0.14848137779E+04  0.15376025479E+04  0.00000000000E+00 0.  1.
          4    1    6    6  503    0  0.12952918499E+03 -0.10081550813E+03 -0.28502788524E+03  0.32891103935E+03  0.00000000000E+00 0. -1.
         -4    1    6    6    0  503  0.30233956056E+02 -0.58912020344E+02 -0.40095948536E+02  0.77410615091E+02  0.00000000000E+00 0.  1.
<mgrwt>
<rscale>  0 0.24032456E+04</rscale>
<asrwt>0</asrwt>
<pdfrwt beam="1">  1        1 0.62775762E+00 0.24032456E+04</pdfrwt>
<pdfrwt beam="2">  1       -2 0.54439938E-01 0.24032456E+04</pdfrwt>
<totfact> 0.20431866E-01</totfact>
</mgrwt>
</event>
<event>
12    4  0.4207946E-008  0.1754076E+04  0.7818608E-02  0.8731110E-01
         -4   -1    0    0    0  501 -0.00000000000E+00  0.00000000000E+00  0.57693841723E+03  0.57693841723E+03  0.00000000000E+00 0.  1.
          1   -1    0    0  501    0  0.00000000000E+00 -0.00000000000E+00 -0.13332369903E+04  0.13332369903E+04  0.00000000000E+00 0. -1.
        -24    2    1    2    0    0 -0.59117854082E+02 -0.33671626355E+03 -0.87116639896E+03  0.93945213363E+03  0.82259673519E+02 0.  0.
        254    2    1    2    0    0  0.59117854082E+02  0.33671626355E+03  0.11486782588E+03  0.97072327391E+03  0.90124152938E+03 0.  0.
         23    2    4    4    0    0 -0.11409020463E+03  0.56665114770E+03 -0.10980156807E+03  0.59590177956E+03  0.94511631858E+02 0.  0.
         23    2    4    4    0    0  0.17320805871E+03 -0.22993488415E+03  0.22466939395E+03  0.37482149435E+03  0.84520609928E+02 0.  0.
          1    1    3    3  502    0 -0.63700772205E+02 -0.22714089504E+03 -0.50829980929E+03  0.56037440225E+03  0.00000000000E+00 0. -1.
         -2    1    3    3    0  502  0.45829181225E+01 -0.10957536851E+03 -0.36286658967E+03  0.37907773137E+03  0.00000000000E+00 0.  1.
         11    1    5    5    0    0 -0.40591645944E+02  0.76008237819E+02 -0.39636786109E+02  0.94847291737E+02  0.00000000000E+00 0. -1.
        -11    1    5    5    0    0 -0.73498558684E+02  0.49064290988E+03 -0.70164781961E+02  0.50105448782E+03  0.00000000000E+00 0.  1.
          3    1    6    6  503    0  0.33918896395E+02 -0.20474949187E+02  0.33284621444E+01  0.39759196887E+02  0.00000000000E+00 0. -1.
         -3    1    6    6    0  503  0.13928916232E+03 -0.20945993496E+03  0.22134093180E+03  0.33506229747E+03  0.00000000000E+00 0.  1.
<mgrwt>
<rscale>  0 0.17540760E+04</rscale>
<asrwt>0</asrwt>
<pdfrwt beam="1">  1        1 0.20511338E+00 0.17540760E+04</pdfrwt>
<pdfrwt beam="2">  1       -4 0.88759758E-01 0.17540760E+04</pdfrwt>
<totfact> 0.43352266E+00</totfact>
</mgrwt>
</event>
<event>
12    4  0.4207946E-008  0.1430116E+04  0.7818608E-02  0.8932303E-01
         -2   -1    0    0    0  501 -0.00000000000E+00  0.00000000000E+00  0.46675486873E+03  0.46675486873E+03  0.00000000000E+00 0.  1.
          1   -1    0    0  501    0  0.00000000000E+00 -0.00000000000E+00 -0.10954529362E+04  0.10954529362E+04  0.00000000000E+00 0. -1.
        -24    2    1    2    0    0 -0.23968447646E+03  0.83360248241E+02  0.18580838514E+03  0.32434534686E+03  0.79231110034E+02 0.  0.
        254    2    1    2    0    0  0.23968447646E+03 -0.83360248241E+02 -0.81450645261E+03  0.12378624581E+04  0.89693094745E+03 0.  0.
         23    2    4    4    0    0 -0.25450265755E+03 -0.30756312633E+02  0.11656458797E+02  0.26929185509E+03  0.81637471299E+02 0.  0.
         23    2    4    4    0    0  0.49418713401E+03 -0.52603935608E+02 -0.82616291141E+03  0.96857060297E+03  0.92713317776E+02 0.  0.
          1    1    3    3  502    0 -0.94473234031E+02 -0.47026626447E+01  0.82865777339E+02  0.12575390268E+03  0.00000000000E+00 0. -1.
         -2    1    3    3    0  502 -0.14521124243E+03  0.88062910886E+02  0.10294260780E+03  0.19859144418E+03  0.00000000000E+00 0.  1.
         11    1    5    5    0    0 -0.22099866703E+03 -0.47801418025E+01  0.30042031925E+02  0.22308246069E+03  0.00000000000E+00 0.  1.
        -11    1    5    5    0    0 -0.33503990518E+02 -0.25976170830E+02 -0.18385573128E+02  0.46209394400E+02  0.00000000000E+00 0. -1.
          2    1    6    6  503    0  0.38662375602E+03 -0.17495884948E+02 -0.57521514424E+03  0.69329394694E+03  0.00000000000E+00 0. -1.
         -2    1    6    6    0  503  0.10756337799E+03 -0.35108050661E+02 -0.25094776717E+03  0.27527665603E+03  0.00000000000E+00 0.  1.
<mgrwt>
<rscale>  0 0.14301161E+04</rscale>
<asrwt>0</asrwt>
<pdfrwt beam="1">  1        1 0.16853122E+00 0.14301161E+04</pdfrwt>
<pdfrwt beam="2">  1       -2 0.71808442E-01 0.14301161E+04</pdfrwt>
<totfact> 0.19161752E+01</totfact>
</mgrwt>
</event>
<event>
12    4  0.4207946E-008  0.2222457E+04  0.7818608E-02  0.8509139E-01
          1   -1    0    0  501    0  0.00000000000E+00  0.00000000000E+00  0.25295969698E+04  0.25295969698E+04  0.00000000000E+00 0. -1.
         -2   -1    0    0    0  501 -0.00000000000E+00 -0.00000000000E+00 -0.48815224628E+03  0.48815224628E+03  0.00000000000E+00 0.  1.
        -24    2    1    2    0    0  0.54223457219E+03 -0.58865356543E+03  0.21315364478E+03  0.83224351755E+03  0.81629926188E+02 0.  0.
        254    2    1    2    0    0 -0.54223457219E+03  0.58865356543E+03  0.18282910787E+04  0.21855056985E+04  0.89064894228E+03 0.  0.
         23    2    4    4    0    0 -0.59275784535E+03  0.39579499765E+02  0.12103679382E+04  0.13512382671E+04  0.89027572622E+02 0.  0.
         23    2    4    4    0    0  0.50523273166E+02  0.54907406566E+03  0.61792314053E+03  0.83426743141E+03  0.10068867259E+03 0.  0.
          1    1    3    3  502    0  0.56261043416E+01 -0.21273618698E+00 -0.38654533122E+01  0.68293510714E+01  0.00000000000E+00 0. -1.
         -2    1    3    3    0  502  0.53660846785E+03 -0.58844082924E+03  0.21701909809E+03  0.82541416648E+03  0.00000000000E+00 0.  1.
         11    1    5    5    0    0 -0.13910461556E+03  0.41280421552E+01  0.20603903041E+03  0.24863470565E+03  0.00000000000E+00 0. -1.
        -11    1    5    5    0    0 -0.45365322979E+03  0.35451457610E+02  0.10043289078E+04  0.11026035615E+04  0.00000000000E+00 0.  1.
          3    1    6    6  503    0  0.51688117030E+02  0.11736433654E+03  0.15749749960E+03  0.20310468068E+03  0.00000000000E+00 0. -1.
         -3    1    6    6    0  503 -0.11648438636E+01  0.43170972912E+03  0.46042564094E+03  0.63116275073E+03  0.00000000000E+00 0.  1.
<mgrwt>
<rscale>  0 0.22224567E+04</rscale>
<asrwt>0</asrwt>
<pdfrwt beam="1">  1        1 0.38916876E+00 0.22224567E+04</pdfrwt>
<pdfrwt beam="2">  1       -2 0.75100347E-01 0.22224567E+04</pdfrwt>
<totfact> 0.16449618E+00</totfact>
</mgrwt>
</event>
<event>
12    4  0.4207946E-008  0.1656072E+04  0.7818608E-02  0.8786822E-01
          1   -1    0    0  501    0  0.00000000000E+00  0.00000000000E+00  0.12710839514E+04  0.12710839514E+04  0.00000000000E+00 0. -1.
         -2   -1    0    0    0  501 -0.00000000000E+00 -0.00000000000E+00 -0.53941647202E+03  0.53941647202E+03  0.00000000000E+00 0.  1.
        -24    2    1    2    0    0  0.20072093216E+03  0.26510346216E+03 -0.26213929320E+03  0.42961228908E+03  0.72670294056E+02 0.  0.
        254    2    1    2    0    0 -0.20072093216E+03 -0.26510346216E+03  0.99380677260E+03  0.13808881344E+04  0.89923934526E+03 0.  0.
         23    2    4    4    0    0 -0.17619385396E+03  0.21642025539E+03  0.24351522650E+02  0.29473995161E+03  0.91633188873E+02 0.  0.
         23    2    4    4    0    0 -0.24527078203E+02 -0.48152371755E+03  0.96945524995E+03  0.10861481827E+04  0.86068142201E+02 0.  0.
          3    1    3    3  502    0  0.11406915503E+03  0.14866519960E+03 -0.10147935570E+03  0.21309897544E+03  0.00000000000E+00 0. -1.
         -4    1    3    3    0  502  0.86651777129E+02  0.11643826256E+03 -0.16065993750E+03  0.21651331364E+03  0.00000000000E+00 0.  1.
         11    1    5    5    0    0 -0.24616996624E+02  0.32530068968E+02  0.38390118455E+02  0.56017882010E+02  0.00000000000E+00 0.  1.
        -11    1    5    5    0    0 -0.15157685733E+03  0.18389018642E+03 -0.14038595805E+02  0.23872206960E+03  0.00000000000E+00 0. -1.
          4    1    6    6  503    0 -0.54611093009E+02 -0.23599227659E+03  0.46519196380E+03  0.52447906467E+03  0.00000000000E+00 0. -1.
         -4    1    6    6    0  503  0.30084014806E+02 -0.24553144096E+03  0.50426328615E+03  0.56166911808E+03  0.00000000000E+00 0.  1.
<mgrwt>
<rscale>  0 0.16560720E+04</rscale>
<asrwt>0</asrwt>
<pdfrwt beam="1">  1        1 0.19555138E+00 0.16560720E+04</pdfrwt>
<pdfrwt beam="2">  1       -2 0.82987150E-01 0.16560720E+04</pdfrwt>
<totfact> 0.10114998E+01</totfact>
</mgrwt>
</event>
<event>
12    4  0.4207946E-008  0.1713614E+04  0.7818608E-02  0.8753637E-01
          1   -1    0    0  501    0  0.00000000000E+00  0.00000000000E+00  0.13566915910E+04  0.13566915910E+04  0.00000000000E+00 0. -1.
         -2   -1    0    0    0  501 -0.00000000000E+00 -0.00000000000E+00 -0.54110938820E+03  0.54110938820E+03  0.00000000000E+00 0.  1.
        -24    2    1    2    0    0  0.48738211702E+03 -0.27065689475E+03 -0.50400959442E+01  0.56361004571E+03  0.82670420299E+02 0.  0.
        254    2    1    2    0    0 -0.48738211702E+03  0.27065689475E+03  0.82062229873E+03  0.13341909335E+04  0.89210313704E+03 0.  0.
         23    2    4    4    0    0 -0.20360770225E+03 -0.18850785393E+03 -0.59736504245E+02  0.29755680575E+03  0.89332498562E+02 0.  0.
         23    2    4    4    0    0 -0.28377441476E+03  0.45916474868E+03  0.88035880298E+03  0.10366341277E+04  0.90655986452E+02 0.  0.
          3    1    3    3  502    0  0.30734292980E+03 -0.15995906470E+03 -0.42138554910E+02  0.34903042372E+03  0.00000000000E+00 0. -1.
         -4    1    3    3    0  502  0.18003918722E+03 -0.11069783005E+03  0.37098458966E+02  0.21457962198E+03  0.00000000000E+00 0.  1.
         11    1    5    5    0    0 -0.14547798493E+03 -0.95943359250E+02 -0.27470391844E+01  0.17428860694E+03  0.00000000000E+00 0.  1.
        -11    1    5    5    0    0 -0.58129717324E+02 -0.92564494675E+02 -0.56989465060E+02  0.12326819881E+03  0.00000000000E+00 0. -1.
          1    1    6    6  503    0 -0.64240834628E+02  0.58245717166E+02  0.10094745240E+03  0.13307830983E+03  0.00000000000E+00 0. -1.
         -1    1    6    6    0  503 -0.21953358013E+03  0.40091903151E+03  0.77941135058E+03  0.90355581789E+03  0.00000000000E+00 0.  1.
<mgrwt>
<rscale>  0 0.17136144E+04</rscale>
<asrwt>0</asrwt>
<pdfrwt beam="1">  1        1 0.20872178E+00 0.17136144E+04</pdfrwt>
<pdfrwt beam="2">  1       -2 0.83247599E-01 0.17136144E+04</pdfrwt>
<totfact> 0.86845968E+00</totfact>
</mgrwt>
</event>
<event>
12    4  0.4207946E-008  0.2450929E+04  0.7818608E-02  0.8420679E-01
          1   -1    0    0  501    0  0.00000000000E+00  0.00000000000E+00  0.29386921473E+04  0.29386921473E+04  0.00000000000E+00 0. -1.
         -2   -1    0    0    0  501 -0.00000000000E+00 -0.00000000000E+00 -0.51103108451E+03  0.51103108451E+03  0.00000000000E+00 0.  1.
        -24    2    1    2    0    0  0.12332681730E+03 -0.94371354729E+03  0.17025183114E+04  0.19520459306E+04  0.78166176557E+02 0.  0.
        254    2    1    2    0    0 -0.12332681730E+03  0.94371354729E+03  0.72514275137E+03  0.14976773012E+04  0.90077773373E+03 0.  0.
         23    2    4    4    0    0  0.36424997973E+03  0.35111196872E+03  0.15423198334E+03  0.53695727008E+03  0.92617184661E+02 0.  0.
         23    2    4    4    0    0 -0.48757679703E+03  0.59260157856E+03  0.57091076804E+03  0.96072003115E+03  0.90200384060E+02 0.  0.
          3    1    3    3  502    0  0.50667953661E+02 -0.50344167180E+03  0.83076903888E+03  0.97272707086E+03  0.00000000000E+00 0. -1.
         -4    1    3    3    0  502  0.72658863636E+02 -0.44027187549E+03  0.87174927254E+03  0.97931885971E+03  0.00000000000E+00 0.  1.
         11    1    5    5    0    0  0.94804251056E+02  0.14240059235E+03  0.27162126335E+02  0.17321534524E+03  0.00000000000E+00 0.  1.
        -11    1    5    5    0    0  0.26944572868E+03  0.20871137638E+03  0.12706985700E+03  0.36374192485E+03  0.00000000000E+00 0. -1.
          2    1    6    6  503    0 -0.17965793520E+03  0.18932553265E+03  0.14699982910E+03  0.29954979678E+03  0.00000000000E+00 0. -1.
         -2    1    6    6    0  503 -0.30791886183E+03  0.40327604591E+03  0.42391093894E+03  0.66117023438E+03  0.00000000000E+00 0.  1.
<mgrwt>
<rscale>  0 0.24509288E+04</rscale>
<asrwt>0</asrwt>
<pdfrwt beam="1">  1        1 0.45210647E+00 0.24509288E+04</pdfrwt>
<pdfrwt beam="2">  1       -2 0.78620169E-01 0.24509288E+04</pdfrwt>
<totfact> 0.74691743E-01</totfact>
</mgrwt>
</event>
<event>
12    4  0.4207946E-008  0.1443981E+04  0.7818608E-02  0.8922584E-01
         -2   -1    0    0    0  501 -0.00000000000E+00  0.00000000000E+00  0.10372225305E+04  0.10372225305E+04  0.00000000000E+00 0.  1.
          1   -1    0    0  501    0  0.00000000000E+00 -0.00000000000E+00 -0.50256325403E+03  0.50256325403E+03  0.00000000000E+00 0. -1.
        -24    2    1    2    0    0 -0.36472683926E+03 -0.16839597447E+03 -0.68677826995E+01  0.40965524948E+03  0.79921120458E+02 0.  0.
        254    2    1    2    0    0  0.36472683926E+03  0.16839597447E+03  0.54152705918E+03  0.11301305351E+04  0.90695126603E+03 0.  0.
         23    2    4    4    0    0  0.52064504125E+03 -0.31809155048E+02  0.65108573646E+03  0.83910479035E+03  0.90006286689E+02 0.  0.
         23    2    4    4    0    0 -0.15591820199E+03  0.20020512951E+03 -0.10955867729E+03  0.29102574471E+03  0.91105986175E+02 0.  0.
          1    1    3    3  502    0 -0.35262689835E+03 -0.16740573125E+03  0.80401772682E+01  0.39042931850E+03  0.00000000000E+00 0. -1.
         -2    1    3    3    0  502 -0.12099940907E+02 -0.99024322054E+00 -0.14907959968E+02  0.19225930978E+02  0.00000000000E+00 0.  1.
         11    1    5    5    0    0 -0.22087490093E+01  0.57128027263E+00  0.14536330079E+02  0.14714272850E+02  0.00000000000E+00 0.  1.
        -11    1    5    5    0    0  0.52285379026E+03 -0.32380435320E+02  0.63654940638E+03  0.82439051750E+03  0.00000000000E+00 0. -1.
          2    1    6    6  503    0 -0.42377925993E+02  0.15747905270E+02 -0.47798879570E+02  0.65792233736E+02  0.00000000000E+00 0.  1.
         -2    1    6    6    0  503 -0.11354027600E+03  0.18445722425E+03 -0.61759797717E+02  0.22523351097E+03  0.00000000000E+00 0. -1.
<mgrwt>
<rscale>  0 0.14439805E+04</rscale>
<asrwt>0</asrwt>
<pdfrwt beam="1">  1        1 0.77317424E-01 0.14439805E+04</pdfrwt>
<pdfrwt beam="2">  1       -2 0.15957270E+00 0.14439805E+04</pdfrwt>
<totfact> 0.94807508E+00</totfact>
</mgrwt>
</event>
<event>
12    4  0.4207946E-008  0.1224526E+04  0.7818608E-02  0.9091656E-01
         -2   -1    0    0    0  501 -0.00000000000E+00  0.00000000000E+00  0.12771702270E+03  0.12771702270E+03  0.00000000000E+00 0.  1.
          1   -1    0    0  501    0  0.00000000000E+00 -0.00000000000E+00 -0.29351300011E+04  0.29351300011E+04  0.00000000000E+00 0. -1.
        -24    2    1    2    0    0 -0.56494623237E+01  0.27144534277E+03 -0.91669768816E+03  0.95947044849E+03  0.80835632696E+02 0.  0.
        254    2    1    2    0    0  0.56494623237E+01 -0.27144534277E+03 -0.18907152902E+04  0.21033765753E+04  0.88072369009E+03 0.  0.
         23    2    4    4    0    0  0.36734437622E+03 -0.37690086591E+03 -0.10701795019E+04  0.11961710668E+04  0.92438635020E+02 0.  0.
         23    2    4    4    0    0 -0.36169491390E+03  0.10545552315E+03 -0.82053578826E+03  0.90720550846E+03  0.88310682602E+02 0.  0.
          3    1    3    3  502    0  0.34655901538E+02  0.74989609923E+02 -0.25469146073E+03  0.26775401636E+03  0.00000000000E+00 0. -1.
         -4    1    3    3    0  502 -0.40305363862E+02  0.19645573284E+03 -0.66200622743E+03  0.69171643213E+03  0.00000000000E+00 0.  1.
         11    1    5    5    0    0  0.66163123951E+02 -0.41271370981E+02 -0.22630029477E+03  0.23935895313E+03  0.00000000000E+00 0. -1.
        -11    1    5    5    0    0  0.30118125227E+03 -0.33562949493E+03 -0.84387920718E+03  0.95681211369E+03  0.00000000000E+00 0.  1.
          2    1    6    6  503    0 -0.14837154931E+03  0.56615208228E+02 -0.25040814246E+03  0.29651920049E+03  0.00000000000E+00 0. -1.
         -2    1    6    6    0  503 -0.21332336460E+03  0.48840314919E+02 -0.57012764579E+03  0.61068630797E+03  0.00000000000E+00 0.  1.
<mgrwt>
<rscale>  0 0.12245261E+04</rscale>
<asrwt>0</asrwt>
<pdfrwt beam="1">  1        1 0.45155844E+00 0.12245261E+04</pdfrwt>
<pdfrwt beam="2">  1       -2 0.19648774E-01 0.12245261E+04</pdfrwt>
<totfact> 0.12891231E+01</totfact>
</mgrwt>
</event>
<event>
12    4  0.4207946E-008  0.1677029E+04  0.7818608E-02  0.8774575E-01
          1   -1    0    0  501    0  0.00000000000E+00  0.00000000000E+00  0.33283345541E+04  0.33283345541E+04  0.00000000000E+00 0. -1.
         -2   -1    0    0    0  501 -0.00000000000E+00 -0.00000000000E+00 -0.21124868287E+03  0.21124868287E+03  0.00000000000E+00 0.  1.
        -24    2    1    2    0    0  0.29130974307E+03 -0.29204849556E+03  0.19887947039E+04  0.20327701010E+04  0.81830429003E+02 0.  0.
        254    2    1    2    0    0 -0.29130974307E+03  0.29204849556E+03  0.11282911674E+04  0.15068131360E+04  0.90955548390E+03 0.  0.
         23    2    4    4    0    0 -0.38102047003E+03 -0.43513693146E+02  0.87144905995E+02  0.40540077675E+03  0.98415014474E+02 0.  0.
         23    2    4    4    0    0  0.89710726967E+02  0.33556218870E+03  0.10411462614E+04  0.11014123592E+04  0.92052433489E+02 0.  0.
          1    1    3    3  502    0  0.13168869449E+03 -0.14390451263E+03  0.11349582277E+04  0.11515991489E+04  0.00000000000E+00 0. -1.
         -2    1    3    3    0  502  0.15962104858E+03 -0.14814398293E+03  0.85383647618E+03  0.88117095213E+03  0.00000000000E+00 0.  1.
         11    1    5    5    0    0 -0.31757805905E+02 -0.18937999311E+02 -0.16159438108E+02  0.40352614460E+02  0.00000000000E+00 0. -1.
        -11    1    5    5    0    0 -0.34926266413E+03 -0.24575693835E+02  0.10330434410E+03  0.36504816229E+03  0.00000000000E+00 0.  1.
          1    1    6    6  503    0  0.80771806433E+02  0.13855609788E+03  0.41350278944E+03  0.44351599053E+03  0.00000000000E+00 0. -1.
         -1    1    6    6    0  503  0.89389205337E+01  0.19700609083E+03  0.62764347192E+03  0.65789636871E+03  0.00000000000E+00 0.  1.
<mgrwt>
<rscale>  0 0.16770287E+04</rscale>
<asrwt>0</asrwt>
<pdfrwt beam="1">  1        1 0.51205143E+00 0.16770287E+04</pdfrwt>
<pdfrwt beam="2">  1       -2 0.32499800E-01 0.16770287E+04</pdfrwt>
<totfact> 0.25269215E+00</totfact>
</mgrwt>
</event>
<event>
12    4  0.5349630E-008  0.2022660E+04  0.7818608E-02  0.8596099E-01
          1   -1    0    0  501    0  0.00000000000E+00  0.00000000000E+00  0.83722306992E+03  0.83722306992E+03  0.00000000000E+00 0. -1.
         -2   -1    0    0    0  501 -0.00000000000E+00 -0.00000000000E+00 -0.12216442021E+04  0.12216442021E+04  0.00000000000E+00 0.  1.
        -24    2    1    2    0    0  0.44394673372E+03  0.63757403670E+03 -0.37150468861E+03  0.86509943442E+03  0.82413246007E+02 0.  0.
        254    2    1    2    0    0 -0.44394673372E+03 -0.63757403670E+03 -0.12916443566E+02  0.11937678376E+04  0.90627008168E+03 0.  0.
         23    2    4    4    0    0  0.66709348465E+01 -0.53193803623E+02 -0.35754767498E+03  0.37302568046E+03  0.91835375993E+02 0.  0.
         23    2    4    4    0    0 -0.45061766856E+03 -0.58438023308E+03  0.34463123142E+03  0.82074215715E+03  0.10144191845E+03 0.  0.
          1    1    3    3  502    0  0.52680276130E+01  0.13686556263E+02 -0.21306038546E+02  0.25865444435E+02  0.00000000000E+00 0. -1.
         -4    1    3    3    0  502  0.43867870610E+03  0.62388748044E+03 -0.35019865007E+03  0.83923398998E+03  0.00000000000E+00 0.  1.
         11    1    5    5    0    0  0.31020789777E+01 -0.10303589275E+02  0.19715290188E+01  0.10939550841E+02  0.00000000000E+00 0. -1.
        -11    1    5    5    0    0  0.35688558688E+01 -0.42890214349E+02 -0.35951920400E+03  0.36208612962E+03  0.00000000000E+00 0.  1.
          3    1    6    6  503    0 -0.53548598147E+02 -0.11912941351E+03  0.35198040537E+02  0.13527073440E+03  0.00000000000E+00 0. -1.
         -3    1    6    6    0  503 -0.39706907042E+03 -0.46525081957E+03  0.30943319088E+03  0.68547142275E+03  0.00000000000E+00 0.  1.
<mgrwt>
<rscale>  0 0.20226603E+04</rscale>
<asrwt>0</asrwt>
<pdfrwt beam="1">  1        1 0.12880355E+00 0.20226603E+04</pdfrwt>
<pdfrwt beam="2">  1       -2 0.18794526E+00 0.20226603E+04</pdfrwt>
<totfact> 0.26647258E+00</totfact>
</mgrwt>
</event>
<event>
12    4  0.4207946E-008  0.1343194E+04  0.7818608E-02  0.8995996E-01
         -2   -1    0    0    0  501 -0.00000000000E+00  0.00000000000E+00  0.47313085375E+03  0.47313085375E+03  0.00000000000E+00 0.  1.
          1   -1    0    0  501    0  0.00000000000E+00 -0.00000000000E+00 -0.95331412292E+03  0.95331412292E+03  0.00000000000E+00 0. -1.
        -24    2    1    2    0    0 -0.25906560842E+03 -0.41050868717E+02  0.12743901542E+03  0.30224760501E+03  0.79452808620E+02 0.  0.
        254    2    1    2    0    0  0.25906560842E+03  0.41050868717E+02 -0.60762228459E+03  0.11241973717E+04  0.90874348769E+03 0.  0.
         23    2    4    4    0    0 -0.25685666550E+03 -0.68592723735E+02 -0.50681491311E+03  0.57944242861E+03  0.90619333287E+02 0.  0.
         23    2    4    4    0    0  0.51592227392E+03  0.10964359245E+03 -0.10080737148E+03  0.54475494304E+03  0.91642303201E+02 0.  0.
          3    1    3    3  502    0 -0.18052361919E+03 -0.35987091413E+01  0.54215280188E+02  0.18852327283E+03  0.00000000000E+00 0. -1.
         -4    1    3    3    0  502 -0.78541989226E+02 -0.37452159576E+02  0.73223735236E+02  0.11372433218E+03  0.00000000000E+00 0.  1.
         11    1    5    5    0    0 -0.87838065363E+02 -0.58676515109E+01 -0.25482355033E+03  0.26960155205E+03  0.00000000000E+00 0.  1.
        -11    1    5    5    0    0 -0.16901860014E+03 -0.62725072225E+02 -0.25199136277E+03  0.30984087657E+03  0.00000000000E+00 0. -1.
          1    1    6    6  503    0  0.39516471300E+03  0.93740085225E+02 -0.11508184348E+03  0.42212105453E+03  0.00000000000E+00 0. -1.
         -1    1    6    6    0  503  0.12075756092E+03  0.15903507228E+02  0.14274472005E+02  0.12263388851E+03  0.00000000000E+00 0.  1.
<mgrwt>
<rscale>  0 0.13431937E+04</rscale>
<asrwt>0</asrwt>
<pdfrwt beam="1">  1        1 0.14666371E+00 0.13431937E+04</pdfrwt>
<pdfrwt beam="2">  1       -2 0.72789362E-01 0.13431937E+04</pdfrwt>
<totfact> 0.24129514E+01</totfact>
</mgrwt>
</event>
<event>
12    4  0.4207946E-008  0.1735271E+04  0.7818608E-02  0.8741500E-01
         -2   -1    0    0    0  501 -0.00000000000E+00  0.00000000000E+00  0.12026403338E+04  0.12026403338E+04  0.00000000000E+00 0.  1.
          1   -1    0    0  501    0  0.00000000000E+00 -0.00000000000E+00 -0.62594909068E+03  0.62594909068E+03  0.00000000000E+00 0. -1.
        -24    2    1    2    0    0  0.52503889237E+03  0.34670695541E+03  0.14657419037E+03  0.65073985351E+03  0.78146095489E+02 0.  0.
        254    2    1    2    0    0 -0.52503889237E+03 -0.34670695541E+03  0.43011705270E+03  0.11778495709E+04  0.89802972181E+03 0.  0.
         23    2    4    4    0    0 -0.53584998187E+03 -0.15683031416E+03 -0.12862463347E+03  0.58015012544E+03  0.91098414941E+02 0.  0.
         23    2    4    4    0    0  0.10811089505E+02 -0.18987664125E+03  0.55874168617E+03  0.59769944547E+03  0.94246149500E+02 0.  0.
          3    1    3    3  502    0  0.46773895571E+03  0.32119322311E+03  0.10947596755E+03  0.57786659770E+03  0.00000000000E+00 0. -1.
         -4    1    3    3    0  502  0.57299936654E+02  0.25513732298E+02  0.37098222827E+02  0.72873255816E+02  0.00000000000E+00 0.  1.
         11    1    5    5    0    0 -0.42360187586E+03 -0.15796158668E+03 -0.11893862788E+03  0.46747920735E+03  0.00000000000E+00 0.  1.
        -11    1    5    5    0    0 -0.11224810601E+03  0.11312725210E+01 -0.96860055952E+01  0.11267091810E+03  0.00000000000E+00 0. -1.
          2    1    6    6  503    0  0.37140260020E+02 -0.28935473279E+02  0.93135365468E+02  0.10435926806E+03  0.00000000000E+00 0. -1.
         -2    1    6    6    0  503 -0.26329170516E+02 -0.16094116797E+03  0.46560632071E+03  0.49334017741E+03  0.00000000000E+00 0.  1.
<mgrwt>
<rscale>  0 0.17352713E+04</rscale>
<asrwt>0</asrwt>
<pdfrwt beam="1">  1        1 0.96299860E-01 0.17352713E+04</pdfrwt>
<pdfrwt beam="2">  1       -2 0.18502159E+00 0.17352713E+04</pdfrwt>
<totfact> 0.44758979E+00</totfact>
</mgrwt>
</event>
<event>
12    4  0.4207946E-008  0.1686342E+04  0.7818608E-02  0.8769193E-01
          1   -1    0    0  501    0  0.00000000000E+00  0.00000000000E+00  0.22571162770E+04  0.22571162770E+04  0.00000000000E+00 0. -1.
         -2   -1    0    0    0  501 -0.00000000000E+00 -0.00000000000E+00 -0.31497584262E+03  0.31497584262E+03  0.00000000000E+00 0.  1.
        -24    2    1    2    0    0 -0.58561299918E+03  0.22869206673E+02  0.58359843201E+03  0.83104986647E+03  0.81185991976E+02 0.  0.
        254    2    1    2    0    0  0.58561299918E+03 -0.22869206673E+02  0.13585420023E+04  0.17410422531E+04  0.91767432657E+03 0.  0.
         23    2    4    4    0    0  0.57782941452E+03  0.33392193868E+01  0.14767722882E+04  0.15881231132E+04  0.85910703228E+02 0.  0.
         23    2    4    4    0    0  0.77835846517E+01 -0.26208426060E+02 -0.11823028587E+03  0.15291913989E+03  0.93050508119E+02 0.  0.
          3    1    3    3  502    0 -0.18388292569E+03  0.46493747105E+01  0.23807649156E+03  0.30085704725E+03  0.00000000000E+00 0. -1.
         -4    1    3    3    0  502 -0.40173007348E+03  0.18219831963E+02  0.34552194045E+03  0.53019281922E+03  0.00000000000E+00 0.  1.
         11    1    5    5    0    0  0.55874239554E+03  0.48992271402E+01  0.14575762700E+04  0.15610078955E+04  0.00000000000E+00 0.  1.
        -11    1    5    5    0    0  0.19087018980E+02 -0.15600077534E+01  0.19196018242E+02  0.27115217758E+02  0.00000000000E+00 0. -1.
          2    1    6    6  503    0  0.43343548522E+02 -0.20992931386E+02 -0.27797789822E+02  0.55606505785E+02  0.00000000000E+00 0. -1.
         -2    1    6    6    0  503 -0.35559963870E+02 -0.52154946746E+01 -0.90432496044E+02  0.97312634102E+02  0.00000000000E+00 0.  1.
<mgrwt>
<rscale>  0 0.16863417E+04</rscale>
<asrwt>0</asrwt>
<pdfrwt beam="1">  1        1 0.34724865E+00 0.16863417E+04</pdfrwt>
<pdfrwt beam="2">  1       -2 0.48457823E-01 0.16863417E+04</pdfrwt>
<totfact> 0.67251726E+00</totfact>
</mgrwt>
</event>
<event>
12    4  0.4207946E-008  0.1522905E+04  0.7818608E-02  0.8869363E-01
         -2   -1    0    0    0  501 -0.00000000000E+00  0.00000000000E+00  0.53444520549E+03  0.53444520549E+03  0.00000000000E+00 0.  1.
          1   -1    0    0  501    0  0.00000000000E+00 -0.00000000000E+00 -0.10848820179E+04  0.10848820179E+04  0.00000000000E+00 0. -1.
        -24    2    1    2    0    0 -0.64574540328E+02 -0.87829086962E+02  0.33192180394E+03  0.35869089917E+03  0.81260429735E+02 0.  0.
        254    2    1    2    0    0  0.64574540328E+02  0.87829086962E+02 -0.88235861632E+03  0.12606363242E+04  0.89373564006E+03 0.  0.
         23    2    4    4    0    0  0.43084434993E+03  0.99567386848E+02 -0.23107100202E+03  0.50748415887E+03  0.92767694499E+02 0.  0.
         23    2    4    4    0    0 -0.36626980960E+03 -0.11738299885E+02 -0.65128761429E+03  0.75315216532E+03  0.93655039841E+02 0.  0.
          1    1    3    3  502    0  0.55355396742E+01 -0.25725558285E+02  0.20117527091E+02  0.33123427431E+02  0.00000000000E+00 0. -1.
         -2    1    3    3    0  502 -0.70110080002E+02 -0.62103528677E+02  0.31180427685E+03  0.32556747174E+03  0.00000000000E+00 0.  1.
         11    1    5    5    0    0  0.40095669754E+03  0.81380968061E+02 -0.23573840230E+03  0.47218823533E+03  0.00000000000E+00 0.  1.
        -11    1    5    5    0    0  0.29887652391E+02  0.18186418787E+02  0.46674002745E+01  0.35295923547E+02  0.00000000000E+00 0. -1.
          1    1    6    6  503    0 -0.69279991034E+02  0.27695203569E+02 -0.17807239898E+03  0.19307128408E+03  0.00000000000E+00 0. -1.
         -1    1    6    6    0  503 -0.29698981857E+03 -0.39433503455E+02 -0.47321521532E+03  0.56008088124E+03  0.00000000000E+00 0.  1.
<mgrwt>
<rscale>  0 0.15229051E+04</rscale>
<asrwt>0</asrwt>
<pdfrwt beam="1">  1        1 0.16690492E+00 0.15229051E+04</pdfrwt>
<pdfrwt beam="2">  1       -2 0.82222340E-01 0.15229051E+04</pdfrwt>
<totfact> 0.14320464E+01</totfact>
</mgrwt>
</event>
<event>
12    4  0.4207946E-008  0.1366665E+04  0.7818608E-02  0.8978308E-01
          3   -1    0    0  501    0  0.00000000000E+00  0.00000000000E+00  0.11520161957E+04  0.11520161957E+04  0.00000000000E+00 0. -1.
         -2   -1    0    0    0  501 -0.00000000000E+00 -0.00000000000E+00 -0.40532716799E+03  0.40532716799E+03  0.00000000000E+00 0.  1.
        -24    2    1    2    0    0 -0.11954435459E+01  0.23039534350E+03  0.55758681004E+03  0.60862076365E+03  0.80204362822E+02 0.  0.
        254    2    1    2    0    0  0.11954435459E+01 -0.23039534350E+03  0.18910221769E+03  0.94872260006E+03  0.90068389557E+03 0.  0.
         23    2    4    4    0    0 -0.40987014815E+03 -0.41821625237E+02 -0.55515153790E+02  0.42541150992E+03  0.90279752921E+02 0.  0.
         23    2    4    4    0    0  0.41106559170E+03 -0.18857371826E+03  0.24461737148E+03  0.52331109014E+03  0.97374897881E+02 0.  0.
          1    1    3    3  502    0  0.77244751509E+01  0.11986978898E+03  0.38656588715E+03  0.40479824472E+03  0.00000000000E+00 0. -1.
         -2    1    3    3    0  502 -0.89199186968E+01  0.11052555452E+03  0.17102092290E+03  0.20382251892E+03  0.00000000000E+00 0.  1.
         11    1    5    5    0    0 -0.18466178425E+03 -0.63927555660E+02 -0.29556513477E+02  0.19763677397E+03  0.00000000000E+00 0. -1.
        -11    1    5    5    0    0 -0.22520836390E+03  0.22105930423E+02 -0.25958640313E+02  0.22777473595E+03  0.00000000000E+00 0.  1.
          4    1    6    6  503    0  0.11504692869E+03 -0.36868511873E+02  0.11353269961E+03  0.16578527332E+03  0.00000000000E+00 0. -1.
         -4    1    6    6    0  503  0.29601866300E+03 -0.15170520639E+03  0.13108467187E+03  0.35752581682E+03  0.00000000000E+00 0.  1.
<mgrwt>
<rscale>  0 0.13666652E+04</rscale>
<asrwt>0</asrwt>
<pdfrwt beam="1">  1        3 0.17723326E+00 0.13666652E+04</pdfrwt>
<pdfrwt beam="2">  1       -2 0.62358026E-01 0.13666652E+04</pdfrwt>
<totfact> 0.19848259E+00</totfact>
</mgrwt>
</event>
<event>
12    4  0.4207946E-008  0.1853538E+04  0.7818608E-02  0.8678336E-01
          3   -1    0    0  501    0  0.00000000000E+00  0.00000000000E+00  0.36138017621E+03  0.36138017621E+03  0.00000000000E+00 0. -1.
         -4   -1    0    0    0  501 -0.00000000000E+00 -0.00000000000E+00 -0.23767226813E+04  0.23767226813E+04  0.00000000000E+00 0.  1.
        -24    2    1    2    0    0  0.60396805672E+03 -0.55157674021E+02 -0.10349610550E+04  0.12020587907E+04  0.77338015026E+02 0.  0.
        254    2    1    2    0    0 -0.60396805672E+03  0.55157674021E+02 -0.98038145015E+03  0.15360440668E+04  0.10151176310E+04 0.  0.
         23    2    4    4    0    0 -0.77429667994E+03  0.29171393175E+03 -0.51351146799E+03  0.97808273304E+03  0.91210955218E+02 0.  0.
         23    2    4    4    0    0  0.17032862322E+03 -0.23655625773E+03 -0.46686998216E+03  0.55796133376E+03  0.91556358413E+02 0.  0.
          1    1    3    3  502    0  0.21855495768E+03 -0.54975702482E+02 -0.35611394681E+03  0.42143296086E+03  0.00000000000E+00 0. -1.
         -2    1    3    3    0  502  0.38541309905E+03 -0.18197153905E+00 -0.67884710814E+03  0.78062582987E+03  0.00000000000E+00 0.  1.
         11    1    5    5    0    0 -0.87493966208E+02  0.35503019368E+02 -0.95217264622E+02  0.13409692759E+03  0.00000000000E+00 0. -1.
        -11    1    5    5    0    0 -0.68680271374E+03  0.25621091239E+03 -0.41829420337E+03  0.84398580545E+03  0.00000000000E+00 0.  1.
          3    1    6    6  503    0  0.19247943773E+02 -0.27562584933E+02 -0.13196971387E+02  0.36115640400E+02  0.00000000000E+00 0. -1.
         -3    1    6    6    0  503  0.15108067945E+03 -0.20899367280E+03 -0.45367301077E+03  0.52184569336E+03  0.00000000000E+00 0.  1.
<mgrwt>
<rscale>  0 0.18535377E+04</rscale>
<asrwt>0</asrwt>
<pdfrwt beam="1">  1        3 0.55596950E-01 0.18535377E+04</pdfrwt>
<pdfrwt beam="2">  1       -4 0.36564964E+00 0.18535377E+04</pdfrwt>
<totfact> 0.80404591E-02</totfact>
</mgrwt>
</event>
<event>
12    4  0.4207946E-008  0.3011086E+04  0.7818608E-02  0.8240572E-01
         -2   -1    0    0    0  501 -0.00000000000E+00  0.00000000000E+00  0.15530417611E+04  0.15530417611E+04  0.00000000000E+00 0.  1.
          1   -1    0    0  501    0  0.00000000000E+00 -0.00000000000E+00 -0.14594970046E+04  0.14594970046E+04  0.00000000000E+00 0. -1.
        -24    2    1    2    0    0 -0.11889209368E+04  0.62320076551E+03 -0.21250298840E+03  0.13616742091E+04  0.84183987100E+02 0.  0.
        254    2    1    2    0    0  0.11889209368E+04 -0.62320076551E+03  0.30604774488E+03  0.16508645566E+04  0.91092061886E+03 0.  0.
         23    2    4    4    0    0  0.11614993787E+04 -0.20595486020E+03  0.13757337431E+03  0.11915170687E+04  0.96375726125E+02 0.  0.
         23    2    4    4    0    0  0.27421558126E+02 -0.41724590530E+03  0.16847437056E+03  0.45934748785E+03  0.88149950202E+02 0.  0.
          1    1    3    3  502    0 -0.58861405659E+03  0.31981830831E+03 -0.64640860886E+02  0.67299977626E+03  0.00000000000E+00 0. -1.
         -2    1    3    3    0  502 -0.60030688021E+03  0.30338245720E+03 -0.14786212751E+03  0.68867443289E+03  0.00000000000E+00 0.  1.
         11    1    5    5    0    0  0.50629646992E+03 -0.92680508383E+02  0.12051579614E+02  0.51485049544E+03  0.00000000000E+00 0.  1.
        -11    1    5    5    0    0  0.65520290876E+03 -0.11327435182E+03  0.12552179470E+03  0.67666657326E+03  0.00000000000E+00 0. -1.
          4    1    6    6  503    0  0.25457287194E+02 -0.41607848588E+03  0.17525010528E+03  0.45219683688E+03  0.00000000000E+00 0. -1.
         -4    1    6    6    0  503  0.19642709318E+01 -0.11674194211E+01 -0.67757347170E+01  0.71506509741E+01  0.00000000000E+00 0.  1.
<mgrwt>
<rscale>  0 0.30110860E+04</rscale>
<asrwt>0</asrwt>
<pdfrwt beam="1">  1        1 0.22453800E+00 0.30110860E+04</pdfrwt>
<pdfrwt beam="2">  1       -2 0.23892950E+00 0.30110860E+04</pdfrwt>
<totfact> 0.39203543E-01</totfact>
</mgrwt>
</event>
<event>
12    4  0.4207946E-008  0.3973090E+04  0.7818608E-02  0.8009997E-01
         -4   -1    0    0    0  501 -0.00000000000E+00  0.00000000000E+00  0.12360508210E+04  0.12360508210E+04  0.00000000000E+00 0.  1.
          3   -1    0    0  501    0  0.00000000000E+00 -0.00000000000E+00 -0.31927166847E+04  0.31927166847E+04  0.00000000000E+00 0. -1.
        -24    2    1    2    0    0  0.17558825970E+03  0.16369483219E+04 -0.19499201214E+04  0.25535101223E+04  0.88286009705E+02 0.  0.
        254    2    1    2    0    0 -0.17558825970E+03 -0.16369483219E+04 -0.67457423394E+01  0.18752573833E+04  0.89783835027E+03 0.  0.
         23    2    4    4    0    0 -0.10718334416E+03 -0.78849242391E+03  0.43461907402E+03  0.91175210316E+03  0.95862329807E+02 0.  0.
         23    2    4    4    0    0 -0.68404915539E+02 -0.84845589797E+03 -0.44136481636E+03  0.96350528017E+03  0.94778059309E+02 0.  0.
          1    1    3    3  502    0  0.16269434854E+03  0.13865343493E+04 -0.16956607399E+04  0.21964089550E+04  0.00000000000E+00 0. -1.
         -2    1    3    3    0  502  0.12893911162E+02  0.25041397262E+03 -0.25425938149E+03  0.35710116733E+03  0.00000000000E+00 0.  1.
         11    1    5    5    0    0 -0.26136961571E+01 -0.85375090708E+02  0.81362380773E+02  0.11796429344E+03  0.00000000000E+00 0. -1.
        -11    1    5    5    0    0 -0.10456964800E+03 -0.70311733320E+03  0.35325669325E+03  0.79378780972E+03  0.00000000000E+00 0.  1.
          2    1    6    6  503    0 -0.11526794808E+02 -0.28033403344E+03 -0.97700672454E+02  0.29709503312E+03  0.00000000000E+00 0. -1.
         -2    1    6    6    0  503 -0.56878120730E+02 -0.56812186453E+03 -0.34366414390E+03  0.66641024705E+03  0.00000000000E+00 0.  1.
<mgrwt>
<rscale>  0 0.39730895E+04</rscale>
<asrwt>0</asrwt>
<pdfrwt beam="1">  1        3 0.49118718E+00 0.39730895E+04</pdfrwt>
<pdfrwt beam="2">  1       -4 0.19016167E+00 0.39730895E+04</pdfrwt>
<totfact> 0.10382449E-03</totfact>
</mgrwt>
</event>
<event>
12    4  0.4207946E-008  0.3202812E+04  0.7818608E-02  0.8188075E-01
          1   -1    0    0  501    0  0.00000000000E+00  0.00000000000E+00  0.36509581862E+04  0.36509581862E+04  0.00000000000E+00 0. -1.
         -2   -1    0    0    0  501 -0.00000000000E+00 -0.00000000000E+00 -0.70241865085E+03  0.70241865085E+03  0.00000000000E+00 0.  1.
        -24    2    1    2    0    0 -0.48270973001E+03 -0.96388197717E+03  0.27172861748E+04  0.29242595057E+04  0.74648187473E+02 0.  0.
        254    2    1    2    0    0  0.48270973001E+03  0.96388197717E+03  0.23125336059E+03  0.14291173313E+04  0.90929702550E+03 0.  0.
         23    2    4    4    0    0  0.45116266962E+03  0.10834368604E+04  0.32205862940E+02  0.11776046034E+04  0.91280882097E+02 0.  0.
         23    2    4    4    0    0  0.31547060399E+02 -0.11955488318E+03  0.19904749765E+03  0.25151272798E+03  0.91379203863E+02 0.  0.
          1    1    3    3  502    0 -0.40489570408E+03 -0.84728862574E+03  0.23128325932E+04  0.24962037478E+04  0.00000000000E+00 0. -1.
         -2    1    3    3    0  502 -0.77814025932E+02 -0.11659335143E+03  0.40445358160E+03  0.42805575793E+03  0.00000000000E+00 0.  1.
         11    1    5    5    0    0  0.48145032002E+02  0.99966284987E+02  0.29289101337E+02  0.11475649741E+03  0.00000000000E+00 0.  1.
        -11    1    5    5    0    0  0.40301763761E+03  0.98347057537E+03  0.29167616034E+01  0.10628481060E+04  0.00000000000E+00 0. -1.
          3    1    6    6  503    0  0.61898422935E+02 -0.10007271577E+03  0.15378228724E+03  0.19363614092E+03  0.00000000000E+00 0. -1.
         -3    1    6    6    0  503 -0.30351362536E+02 -0.19482167416E+02  0.45265210419E+02  0.57876587056E+02  0.00000000000E+00 0.  1.
<mgrwt>
<rscale>  0 0.32028120E+04</rscale>
<asrwt>0</asrwt>
<pdfrwt beam="1">  1        1 0.56168586E+00 0.32028120E+04</pdfrwt>
<pdfrwt beam="2">  1       -2 0.10806441E+00 0.32028120E+04</pdfrwt>
<totfact> 0.95447906E-02</totfact>
</mgrwt>
</event>
<event>
12    4  0.4207946E-008  0.1544548E+04  0.7818608E-02  0.8855358E-01
         -2   -1    0    0    0  501 -0.00000000000E+00  0.00000000000E+00  0.72007439976E+03  0.72007439976E+03  0.00000000000E+00 0.  1.
          1   -1    0    0  501    0  0.00000000000E+00 -0.00000000000E+00 -0.82825730386E+03  0.82825730386E+03  0.00000000000E+00 0. -1.
        -24    2    1    2    0    0 -0.10582000289E+03 -0.14914676626E+03 -0.51026905867E+03  0.54793427674E+03  0.80092624463E+02 0.  0.
        254    2    1    2    0    0  0.10582000289E+03  0.14914676626E+03  0.40208615458E+03  0.10003974269E+04  0.89759629295E+03 0.  0.
         23    2    4    4    0    0  0.79749438285E+02 -0.12609501188E+03 -0.24007920929E+03  0.29560284970E+03  0.86504873224E+02 0.  0.
         23    2    4    4    0    0  0.26070564603E+02  0.27524177813E+03  0.64216536387E+03  0.70479457718E+03  0.89001857832E+02 0.  0.
          3    1    3    3  502    0 -0.39470431128E+02 -0.90013486567E+02 -0.36164781196E+03  0.37476590372E+03  0.00000000000E+00 0. -1.
         -4    1    3    3    0  502 -0.66349571760E+02 -0.59133279690E+02 -0.14862124671E+03  0.17316837302E+03  0.00000000000E+00 0.  1.
         11    1    5    5    0    0  0.41852372963E+02 -0.12221768655E+03 -0.21206992583E+03  0.24831922493E+03  0.00000000000E+00 0.  1.
        -11    1    5    5    0    0  0.37897065322E+02 -0.38773253321E+01 -0.28009283455E+02  0.47283624770E+02  0.00000000000E+00 0. -1.
          4    1    6    6  503    0 -0.78205543669E+01  0.91595658694E+01  0.91341503997E+02  0.92132128326E+02  0.00000000000E+00 0. -1.
         -4    1    6    6    0  503  0.33891118970E+02  0.26608221227E+03  0.55082385987E+03  0.61266244885E+03  0.00000000000E+00 0.  1.
<mgrwt>
<rscale>  0 0.15445477E+04</rscale>
<asrwt>0</asrwt>
<pdfrwt beam="1">  1        1 0.12742420E+00 0.15445477E+04</pdfrwt>
<pdfrwt beam="2">  1       -2 0.11078068E+00 0.15445477E+04</pdfrwt>
<totfact> 0.11397840E+01</totfact>
</mgrwt>
</event>
<event>
12    4  0.4207946E-008  0.1322275E+04  0.7818608E-02  0.9012085E-01
         -2   -1    0    0    0  501 -0.00000000000E+00  0.00000000000E+00  0.39565550028E+03  0.39565550028E+03  0.00000000000E+00 0.  1.
          1   -1    0    0  501    0  0.00000000000E+00 -0.00000000000E+00 -0.11047554284E+04  0.11047554284E+04  0.00000000000E+00 0. -1.
        -24    2    1    2    0    0 -0.21627636892E+03 -0.13110941023E+03 -0.46334449112E+03  0.53378734295E+03  0.79219093900E+02 0.  0.
        254    2    1    2    0    0  0.21627636892E+03  0.13110941023E+03 -0.24575543704E+03  0.96662358576E+03  0.90000015362E+03 0.  0.
         23    2    4    4    0    0  0.32370802850E+03 -0.20243923140E+03  0.15749702851E+03  0.42447535630E+03  0.98007571107E+02 0.  0.
         23    2    4    4    0    0 -0.10743165958E+03  0.33354864162E+03 -0.40325246555E+03  0.54214822946E+03  0.92281601251E+02 0.  0.
          1    1    3    3  502    0 -0.20678102677E+03 -0.13335515936E+03 -0.46264365252E+03  0.52400490530E+03  0.00000000000E+00 0. -1.
         -2    1    3    3    0  502 -0.94953421512E+01  0.22457491354E+01 -0.70083860650E+00  0.97824376563E+01  0.00000000000E+00 0.  1.
         11    1    5    5    0    0  0.33032518722E+03 -0.20091125115E+03  0.15097178923E+03  0.41505727472E+03  0.00000000000E+00 0. -1.
        -11    1    5    5    0    0 -0.66171587184E+01 -0.15279802414E+01  0.65252392743E+01  0.94180815833E+01  0.00000000000E+00 0.  1.
          3    1    6    6  503    0 -0.50552143573E+02  0.49557536968E+02 -0.10288494246E+03  0.12488706928E+03  0.00000000000E+00 0. -1.
         -3    1    6    6    0  503 -0.56879516004E+02  0.28399110466E+03 -0.30036752309E+03  0.41726116018E+03  0.00000000000E+00 0.  1.
<mgrwt>
<rscale>  0 0.13222746E+04</rscale>
<asrwt>0</asrwt>
<pdfrwt beam="1">  1        1 0.16996237E+00 0.13222746E+04</pdfrwt>
<pdfrwt beam="2">  1       -2 0.60870077E-01 0.13222746E+04</pdfrwt>
<totfact> 0.27169969E+01</totfact>
</mgrwt>
</event>
<event>
12    4  0.4207946E-008  0.2411770E+04  0.7818608E-02  0.8435110E-01
         -2   -1    0    0    0  501 -0.00000000000E+00  0.00000000000E+00  0.69067048094E+03  0.69067048094E+03  0.00000000000E+00 0.  1.
          1   -1    0    0  501    0  0.00000000000E+00 -0.00000000000E+00 -0.21054301877E+04  0.21054301877E+04  0.00000000000E+00 0. -1.
        -24    2    1    2    0    0  0.79219454137E+03 -0.29069463588E+03 -0.12874727115E+04  0.15415177780E+04  0.81335813077E+02 0.  0.
        254    2    1    2    0    0 -0.79219454137E+03  0.29069463588E+03 -0.12728699528E+03  0.12545828906E+04  0.91961986033E+03 0.  0.
         23    2    4    4    0    0 -0.31076863856E+03  0.20765521427E+03  0.38242857077E+03  0.54250349849E+03  0.91436313382E+02 0.  0.
         23    2    4    4    0    0 -0.48142590281E+03  0.83039421612E+02 -0.50971556605E+03  0.71207939211E+03  0.92631835582E+02 0.  0.
          3    1    3    3  502    0  0.55910556897E+03 -0.23547256346E+03 -0.96395547264E+03  0.11389716935E+04  0.00000000000E+00 0. -1.
         -4    1    3    3    0  502  0.23308897240E+03 -0.55222072429E+02 -0.32351723884E+03  0.40254608452E+03  0.00000000000E+00 0.  1.
         11    1    5    5    0    0 -0.22224162732E+03  0.18473809332E+03  0.32314455004E+03  0.43352266868E+03  0.00000000000E+00 0. -1.
        -11    1    5    5    0    0 -0.88527011241E+02  0.22917120948E+02  0.59284020725E+02  0.10898082981E+03  0.00000000000E+00 0.  1.
          3    1    6    6  503    0 -0.38114626274E+03  0.62938672838E+02 -0.34360840394E+03  0.51701110761E+03  0.00000000000E+00 0. -1.
         -3    1    6    6    0  503 -0.10027964007E+03  0.20100748773E+02 -0.16610716211E+03  0.19506828450E+03  0.00000000000E+00 0.  1.
<mgrwt>
<rscale>  0 0.24117699E+04</rscale>
<asrwt>0</asrwt>
<pdfrwt beam="1">  1        1 0.32391233E+00 0.24117699E+04</pdfrwt>
<pdfrwt beam="2">  1       -2 0.10625700E+00 0.24117699E+04</pdfrwt>
<totfact> 0.14198462E+00</totfact>
</mgrwt>
</event>
<event>
12    4  0.4207946E-008  0.1761750E+04  0.7818608E-02  0.8726909E-01
         -2   -1    0    0    0  501 -0.00000000000E+00  0.00000000000E+00  0.69913682647E+03  0.69913682647E+03  0.00000000000E+00 0.  1.
          1   -1    0    0  501    0  0.00000000000E+00 -0.00000000000E+00 -0.11098549332E+04  0.11098549332E+04  0.00000000000E+00 0. -1.
        -24    2    1    2    0    0 -0.40576284546E+03  0.48179147639E+03 -0.99451149468E+02  0.64243470763E+03  0.77880093455E+02 0.  0.
        254    2    1    2    0    0  0.40576284546E+03 -0.48179147639E+03 -0.31126695728E+03  0.11665570521E+04  0.93123666356E+03 0.  0.
         23    2    4    4    0    0  0.28500810059E+03  0.21962849141E+03 -0.24537253238E+03  0.44575580771E+03  0.94996151590E+02 0.  0.
         23    2    4    4    0    0  0.12075474487E+03 -0.70141996781E+03 -0.65894424900E+02  0.72080124436E+03  0.92955252611E+02 0.  0.
          1    1    3    3  502    0 -0.63472388292E+02  0.11437796274E+03 -0.39933820091E+02  0.13676904776E+03  0.00000000000E+00 0. -1.
         -2    1    3    3    0  502 -0.34229045716E+03  0.36741351365E+03 -0.59517329377E+02  0.50566565987E+03  0.00000000000E+00 0.  1.
         11    1    5    5    0    0  0.95712298128E+02  0.10694906712E+03 -0.52070904356E+02  0.15267719558E+03  0.00000000000E+00 0. -1.
        -11    1    5    5    0    0  0.18929580246E+03  0.11267942430E+03 -0.19330162803E+03  0.29307861213E+03  0.00000000000E+00 0.  1.
          2    1    6    6  503    0 -0.60485932057E+01 -0.54935998468E+02  0.14428474196E+02  0.57120314031E+02  0.00000000000E+00 0.  1.
         -2    1    6    6    0  503  0.12680333807E+03 -0.64648396934E+03 -0.80322899096E+02  0.66368093033E+03  0.00000000000E+00 0. -1.
<mgrwt>
<rscale>  0 0.17617496E+04</rscale>
<asrwt>0</asrwt>
<pdfrwt beam="1">  1        1 0.17074691E+00 0.17617496E+04</pdfrwt>
<pdfrwt beam="2">  1       -2 0.10755951E+00 0.17617496E+04</pdfrwt>
<totfact> 0.71775128E+00</totfact>
</mgrwt>
</event>
<event>
12    4  0.4207946E-008  0.2924551E+04  0.7818608E-02  0.8265610E-01
         -2   -1    0    0    0  501 -0.00000000000E+00  0.00000000000E+00  0.74678960674E+03  0.74678960674E+03  0.00000000000E+00 0.  1.
          1   -1    0    0  501    0  0.00000000000E+00 -0.00000000000E+00 -0.28632553016E+04  0.28632553016E+04  0.00000000000E+00 0. -1.
        -24    2    1    2    0    0  0.75401290497E+03 -0.57060836367E+03 -0.20929624576E+04  0.22980550199E+04  0.80222563709E+02 0.  0.
        254    2    1    2    0    0 -0.75401290497E+03  0.57060836367E+03 -0.23503237240E+02  0.13119898885E+04  0.90919508344E+03 0.  0.
         23    2    4    4    0    0 -0.60195840652E+03 -0.83573276150E+02 -0.11994093801E+03  0.62613087953E+03  0.91190098292E+02 0.  0.
         23    2    4    4    0    0 -0.15205449845E+03  0.65418163982E+03  0.96437700769E+02  0.68585900895E+03  0.10014070924E+03 0.  0.
          3    1    3    3  502    0  0.29576204672E+03 -0.20159908334E+03 -0.70922408143E+03  0.79442820718E+03  0.00000000000E+00 0. -1.
         -4    1    3    3    0  502  0.45825085825E+03 -0.36900928033E+03 -0.13837383762E+04  0.15036268127E+04  0.00000000000E+00 0.  1.
         11    1    5    5    0    0 -0.31842317782E+03 -0.11873660431E+02 -0.29506953292E+02  0.32000775659E+03  0.00000000000E+00 0.  1.
        -11    1    5    5    0    0 -0.28353522870E+03 -0.71699615719E+02 -0.90433984717E+02  0.30612312294E+03  0.00000000000E+00 0. -1.
          1    1    6    6  503    0 -0.14975593589E+03  0.49922373516E+03  0.10063050110E+03  0.53082735030E+03  0.00000000000E+00 0. -1.
         -1    1    6    6    0  503 -0.22985625664E+01  0.15495790466E+03 -0.41928003316E+01  0.15503165864E+03  0.00000000000E+00 0.  1.
<mgrwt>
<rscale>  0 0.29245508E+04</rscale>
<asrwt>0</asrwt>
<pdfrwt beam="1">  1        1 0.44050082E+00 0.29245508E+04</pdfrwt>
<pdfrwt beam="2">  1       -2 0.11489071E+00 0.29245508E+04</pdfrwt>
<totfact> 0.33428237E-01</totfact>
</mgrwt>
</event>
<event>
12    4  0.4207946E-008  0.1193561E+04  0.7818608E-02  0.9118511E-01
         -2   -1    0    0    0  501 -0.00000000000E+00  0.00000000000E+00  0.19369312962E+04  0.19369312962E+04  0.00000000000E+00 0.  1.
          1   -1    0    0  501    0  0.00000000000E+00 -0.00000000000E+00 -0.18387170673E+03  0.18387170673E+03  0.00000000000E+00 0. -1.
        -24    2    1    2    0    0 -0.22491761153E+03 -0.12866546235E+02  0.19177763370E+03  0.30642183961E+03  0.79763419037E+02 0.  0.
        254    2    1    2    0    0  0.22491761153E+03  0.12866546235E+02  0.15612819558E+04  0.18143811633E+04  0.89645088009E+03 0.  0.
         23    2    4    4    0    0 -0.31042465461E+03  0.15021834620E+03  0.72169546386E+03  0.80504909056E+03  0.91272547526E+02 0.  0.
         23    2    4    4    0    0  0.53534226614E+03 -0.13735179997E+03  0.83958649194E+03  0.10093320728E+04  0.91590921145E+02 0.  0.
          1    1    3    3  502    0 -0.58250997451E+02  0.31018057204E+02  0.43245100892E+02  0.78901440595E+02  0.00000000000E+00 0. -1.
         -2    1    3    3    0  502 -0.16666661408E+03 -0.43884603439E+02  0.14853253281E+03  0.22752039902E+03  0.00000000000E+00 0.  1.
         11    1    5    5    0    0 -0.14460973499E+03  0.88358259279E+02  0.44942676929E+03  0.48031612339E+03  0.00000000000E+00 0. -1.
        -11    1    5    5    0    0 -0.16581491962E+03  0.61860086922E+02  0.27226869457E+03  0.32473296717E+03  0.00000000000E+00 0.  1.
          1    1    6    6  503    0  0.54505874370E+01 -0.80295890390E+01  0.21701514346E+01  0.99444839380E+01  0.00000000000E+00 0. -1.
         -1    1    6    6    0  503  0.52989167870E+03 -0.12932221093E+03  0.83741634050E+03  0.99938758884E+03  0.00000000000E+00 0.  1.
<mgrwt>
<rscale>  0 0.11935608E+04</rscale>
<asrwt>0</asrwt>
<pdfrwt beam="1">  1        1 0.28287956E-01 0.11935608E+04</pdfrwt>
<pdfrwt beam="2">  1       -2 0.29798942E+00 0.11935608E+04</pdfrwt>
<totfact> 0.47238572E+00</totfact>
</mgrwt>
</event>
<event>
12    4  0.4207946E-008  0.1896436E+04  0.7818608E-02  0.8656632E-01
         -2   -1    0    0    0  501 -0.00000000000E+00  0.00000000000E+00  0.74675737407E+03  0.74675737407E+03  0.00000000000E+00 0.  1.
          1   -1    0    0  501    0  0.00000000000E+00 -0.00000000000E+00 -0.12040291642E+04  0.12040291642E+04  0.00000000000E+00 0. -1.
        -24    2    1    2    0    0 -0.47575371461E+03  0.54349236498E+03 -0.30324157490E+03  0.78760212997E+03  0.81462350927E+02 0.  0.
        254    2    1    2    0    0  0.47575371461E+03 -0.54349236498E+03 -0.15403021526E+03  0.11631844083E+04  0.89863625166E+03 0.  0.
         23    2    4    4    0    0  0.49318310188E+03 -0.26076673669E+03 -0.46517586466E+03  0.73223328208E+03  0.92456105219E+02 0.  0.
         23    2    4    4    0    0 -0.17429387263E+02 -0.28272562829E+03  0.31114564940E+03  0.43095112624E+03  0.93111189654E+02 0.  0.
          1    1    3    3  502    0 -0.40559873919E+03  0.43658224751E+03 -0.27661807879E+03  0.65698703000E+03  0.00000000000E+00 0. -1.
         -2    1    3    3    0  502 -0.70154975421E+02  0.10691011747E+03 -0.26623496112E+02  0.13061509997E+03  0.00000000000E+00 0.  1.
         11    1    5    5    0    0  0.20933796788E+03 -0.75450034413E+02 -0.22747638190E+03  0.31821470238E+03  0.00000000000E+00 0.  1.
        -11    1    5    5    0    0  0.28384513400E+03 -0.18531670228E+03 -0.23769948275E+03  0.41401857970E+03  0.00000000000E+00 0. -1.
          1    1    6    6  503    0 -0.36298480764E+02 -0.14823892376E+03  0.21862580571E+03  0.26662633243E+03  0.00000000000E+00 0. -1.
         -1    1    6    6    0  503  0.18869093501E+02 -0.13448670453E+03  0.92519843684E+02  0.16432479381E+03  0.00000000000E+00 0.  1.
<mgrwt>
<rscale>  0 0.18964363E+04</rscale>
<asrwt>0</asrwt>
<pdfrwt beam="1">  1        1 0.18523526E+00 0.18964363E+04</pdfrwt>
<pdfrwt beam="2">  1       -2 0.11488575E+00 0.18964363E+04</pdfrwt>
<totfact> 0.51501764E+00</totfact>
</mgrwt>
</event>
<event>
12    4  0.4207946E-008  0.1623854E+04  0.7818608E-02  0.8806026E-01
          1   -1    0    0  501    0  0.00000000000E+00  0.00000000000E+00  0.29127350638E+04  0.29127350638E+04  0.00000000000E+00 0. -1.
         -2   -1    0    0    0  501 -0.00000000000E+00 -0.00000000000E+00 -0.22632520552E+03  0.22632520552E+03  0.00000000000E+00 0.  1.
        -24    2    1    2    0    0 -0.23541492244E+03 -0.48590764146E+03  0.11813843985E+04  0.13014261660E+04  0.80712741811E+02 0.  0.
        254    2    1    2    0    0  0.23541492244E+03  0.48590764146E+03  0.15050254597E+04  0.18376341033E+04  0.90568815906E+03 0.  0.
         23    2    4    4    0    0  0.65405151579E+02 -0.25590902537E+03  0.50720149042E+03  0.57930223700E+03  0.92576815621E+02 0.  0.
         23    2    4    4    0    0  0.17000977086E+03  0.74181666683E+03  0.99782396932E+03  0.12583318663E+04  0.92472280497E+02 0.  0.
          3    1    3    3  502    0 -0.13735141551E+03 -0.36660246466E+03  0.85042069493E+03  0.93620411065E+03  0.00000000000E+00 0. -1.
         -4    1    3    3    0  502 -0.98063506929E+02 -0.11930517680E+03  0.33096370360E+03  0.36522205533E+03  0.00000000000E+00 0.  1.
         11    1    5    5    0    0  0.29739477387E+02 -0.23481214634E+03  0.45265273522E+03  0.51079905960E+03  0.00000000000E+00 0.  1.
        -11    1    5    5    0    0  0.35665674192E+02 -0.21096879028E+02  0.54548755206E+02  0.68503177406E+02  0.00000000000E+00 0. -1.
          3    1    6    6  503    0  0.95636778029E+01  0.91220710588E+01  0.37787264623E+02  0.40031905790E+02  0.00000000000E+00 0. -1.
         -3    1    6    6    0  503  0.16044609306E+03  0.73269459577E+03  0.96003670470E+03  0.12182999605E+04  0.00000000000E+00 0.  1.
<mgrwt>
<rscale>  0 0.16238539E+04</rscale>
<asrwt>0</asrwt>
<pdfrwt beam="1">  1        1 0.44811306E+00 0.16238539E+04</pdfrwt>
<pdfrwt beam="2">  1       -2 0.34819264E-01 0.16238539E+04</pdfrwt>
<totfact> 0.45195466E+00</totfact>
</mgrwt>
</event>
<event>
12    4  0.4207946E-008  0.1496588E+04  0.7818608E-02  0.8886725E-01
          1   -1    0    0  501    0  0.00000000000E+00  0.00000000000E+00  0.11240421574E+04  0.11240421574E+04  0.00000000000E+00 0. -1.
         -2   -1    0    0    0  501 -0.00000000000E+00 -0.00000000000E+00 -0.49815188139E+03  0.49815188139E+03  0.00000000000E+00 0.  1.
        -24    2    1    2    0    0  0.10825701584E+03  0.40610997261E+03 -0.31638976824E+02  0.42929532876E+03  0.81538721534E+02 0.  0.
        254    2    1    2    0    0 -0.10825701584E+03 -0.40610997261E+03  0.65752925284E+03  0.11928987100E+04  0.90222930718E+03 0.  0.
         23    2    4    4    0    0 -0.69299728043E+02 -0.58474243170E+03  0.10507079756E+03  0.60489741031E+03  0.90193352087E+02 0.  0.
         23    2    4    4    0    0 -0.38957287802E+02  0.17863245909E+03  0.55245845528E+03  0.58800129973E+03  0.84308706326E+02 0.  0.
          1    1    3    3  502    0  0.35251145024E+02  0.35828187867E+02 -0.10128097409E+02  0.51272610900E+02  0.00000000000E+00 0. -1.
         -2    1    3    3    0  502  0.73005870821E+02  0.37028178474E+03 -0.21510879415E+02  0.37802271786E+03  0.00000000000E+00 0.  1.
         11    1    5    5    0    0 -0.55745717489E+02 -0.55377623517E+03  0.78882545856E+02  0.56213713602E+03  0.00000000000E+00 0.  1.
        -11    1    5    5    0    0 -0.13554010554E+02 -0.30966196529E+02  0.26188251700E+02  0.42760274282E+02  0.00000000000E+00 0. -1.
          2    1    6    6  503    0 -0.18873837810E+02  0.14829745837E+02  0.22344113707E+02  0.32793330612E+02  0.00000000000E+00 0. -1.
         -2    1    6    6    0  503 -0.20083449992E+02  0.16380271325E+03  0.53011434157E+03  0.55520796912E+03  0.00000000000E+00 0.  1.
<mgrwt>
<rscale>  0 0.14965877E+04</rscale>
<asrwt>0</asrwt>
<pdfrwt beam="1">  1        1 0.17292956E+00 0.14965877E+04</pdfrwt>
<pdfrwt beam="2">  1       -2 0.76638751E-01 0.14965877E+04</pdfrwt>
<totfact> 0.15705891E+01</totfact>
</mgrwt>
</event>
<event>
12    4  0.4207946E-008  0.1949782E+04  0.7818608E-02  0.8630466E-01
          1   -1    0    0  501    0  0.00000000000E+00  0.00000000000E+00  0.16623281845E+04  0.16623281845E+04  0.00000000000E+00 0. -1.
         -2   -1    0    0    0  501 -0.00000000000E+00 -0.00000000000E+00 -0.57173596511E+03  0.57173596511E+03  0.00000000000E+00 0.  1.
        -24    2    1    2    0    0 -0.99860934717E+02 -0.37622363887E+03  0.11855325424E+04  0.12503685835E+04  0.80110877899E+02 0.  0.
        254    2    1    2    0    0  0.99860934717E+02  0.37622363887E+03 -0.94940322978E+02  0.98369556615E+03  0.89840239826E+03 0.  0.
         23    2    4    4    0    0 -0.22041665629E+03  0.54441157350E+03 -0.13088737538E+03  0.60880184278E+03  0.92415988918E+02 0.  0.
         23    2    4    4    0    0  0.32027759101E+03 -0.16818793463E+03  0.35947052402E+02  0.37489372337E+03  0.91587098384E+02 0.  0.
          3    1    3    3  502    0 -0.10999575268E+03 -0.34648171981E+03  0.11232369830E+04  0.11805972928E+04  0.00000000000E+00 0. -1.
         -4    1    3    3    0  502  0.10134817960E+02 -0.29741919064E+02  0.62295559411E+02  0.69771290708E+02  0.00000000000E+00 0.  1.
         11    1    5    5    0    0 -0.77700088466E+02  0.10479756392E+03 -0.49256223835E+02  0.13944894671E+03  0.00000000000E+00 0. -1.
        -11    1    5    5    0    0 -0.14271656782E+03  0.43961400957E+03 -0.81631151546E+02  0.46935289607E+03  0.00000000000E+00 0.  1.
          4    1    6    6  503    0  0.23110585370E+03 -0.72151224905E+02  0.22193349957E+02  0.24312190286E+03  0.00000000000E+00 0. -1.
         -4    1    6    6    0  503  0.89171737308E+02 -0.96036709723E+02  0.13753702445E+02  0.13177182051E+03  0.00000000000E+00 0.  1.
<mgrwt>
<rscale>  0 0.19497824E+04</rscale>
<asrwt>0</asrwt>
<pdfrwt beam="1">  1        1 0.25574280E+00 0.19497824E+04</pdfrwt>
<pdfrwt beam="2">  1       -2 0.87959380E-01 0.19497824E+04</pdfrwt>
<totfact> 0.46080820E+00</totfact>
</mgrwt>
</event>
<event>
12    4  0.4207946E-008  0.3518884E+04  0.7818608E-02  0.8109329E-01
          1   -1    0    0  501    0  0.00000000000E+00  0.00000000000E+00  0.15454208710E+04  0.15454208710E+04  0.00000000000E+00 0. -1.
         -2   -1    0    0    0  501 -0.00000000000E+00 -0.00000000000E+00 -0.20031026782E+04  0.20031026782E+04  0.00000000000E+00 0.  1.
        -24    2    1    2    0    0  0.69392104088E+03 -0.35975212673E+03  0.12430411827E+04  0.14705164313E+04  0.79493326725E+02 0.  0.
        254    2    1    2    0    0 -0.69392104088E+03  0.35975212673E+03 -0.17007229900E+04  0.20780071179E+04  0.90261115100E+03 0.  0.
         23    2    4    4    0    0 -0.88011016224E+02  0.46709919106E+02  0.87811803770E+02  0.16178441974E+03  0.92387932484E+02 0.  0.
         23    2    4    4    0    0 -0.60591002465E+03  0.31304220762E+03 -0.17885347938E+04  0.19162226982E+04  0.89052450451E+02 0.  0.
          1    1    3    3  502    0  0.63817668182E+03 -0.30816956797E+03  0.11436941998E+04  0.13454643743E+04  0.00000000000E+00 0. -1.
         -2    1    3    3    0  502  0.55744359059E+02 -0.51582558755E+02  0.99346982932E+02  0.12505205697E+03  0.00000000000E+00 0.  1.
         11    1    5    5    0    0 -0.14984216123E+02 -0.19380433406E+02  0.51106168630E+02  0.56674230510E+02  0.00000000000E+00 0.  1.
        -11    1    5    5    0    0 -0.73026800102E+02  0.66090352513E+02  0.36705635139E+02  0.10511018923E+03  0.00000000000E+00 0. -1.
          3    1    6    6  503    0 -0.21859928670E+03  0.81245744826E+02 -0.69953505639E+03  0.73738444133E+03  0.00000000000E+00 0. -1.
         -3    1    6    6    0  503 -0.38731073796E+03  0.23179646279E+03 -0.10889997374E+04  0.11788382569E+04  0.00000000000E+00 0.  1.
<mgrwt>
<rscale>  0 0.35188843E+04</rscale>
<asrwt>0</asrwt>
<pdfrwt beam="1">  1        1 0.23775706E+00 0.35188843E+04</pdfrwt>
<pdfrwt beam="2">  1       -2 0.30816964E+00 0.35188843E+04</pdfrwt>
<totfact> 0.12327336E-01</totfact>
</mgrwt>
</event>
<event>
12    4  0.4207946E-008  0.1259649E+04  0.7818608E-02  0.9062190E-01
         -2   -1    0    0    0  501 -0.00000000000E+00  0.00000000000E+00  0.23829729177E+04  0.23829729177E+04  0.00000000000E+00 0.  1.
          1   -1    0    0  501    0  0.00000000000E+00 -0.00000000000E+00 -0.16646397404E+03  0.16646397404E+03  0.00000000000E+00 0. -1.
        -24    2    1    2    0    0 -0.14646133481E+03 -0.22258025559E+03  0.29177483028E+03  0.40230543455E+03  0.75658564018E+02 0.  0.
        254    2    1    2    0    0  0.14646133481E+03  0.22258025559E+03  0.19247341134E+04  0.21471314572E+04  0.91355306058E+03 0.  0.
         23    2    4    4    0    0  0.29588373702E+03  0.41178573620E+03  0.17773948542E+04  0.18506692496E+04  0.93431929138E+02 0.  0.
         23    2    4    4    0    0 -0.14942240221E+03 -0.18920548060E+03  0.14733925921E+03  0.29646220760E+03  0.89750849930E+02 0.  0.
          1    1    3    3  502    0 -0.13379291702E+03 -0.19696535600E+03  0.28767915821E+03  0.37343700162E+03  0.00000000000E+00 0. -1.
         -2    1    3    3    0  502 -0.12668417789E+02 -0.25614899595E+02  0.40956720772E+01  0.28868432938E+02  0.00000000000E+00 0.  1.
         11    1    5    5    0    0  0.92128958146E+02  0.12755030914E+03  0.40703419040E+03  0.43638705119E+03  0.00000000000E+00 0.  1.
        -11    1    5    5    0    0  0.20375477887E+03  0.28423542706E+03  0.13703606638E+04  0.14142821984E+04  0.00000000000E+00 0. -1.
          4    1    6    6  503    0 -0.15514534238E+03 -0.18849714042E+03  0.15321519034E+03  0.28822932495E+03  0.00000000000E+00 0. -1.
         -4    1    6    6    0  503  0.57229401787E+01 -0.70834017893E+00 -0.58759311326E+01  0.82328826527E+01  0.00000000000E+00 0.  1.
<mgrwt>
<rscale>  0 0.12596494E+04</rscale>
<asrwt>0</asrwt>
<pdfrwt beam="1">  1        1 0.25609844E-01 0.12596494E+04</pdfrwt>
<pdfrwt beam="2">  1       -2 0.36661119E+00 0.12596494E+04</pdfrwt>
<totfact> 0.20109543E+00</totfact>
</mgrwt>
</event>
<event>
12    4  0.4207946E-008  0.2544645E+04  0.7818608E-02  0.8387251E-01
         -2   -1    0    0    0  501 -0.00000000000E+00  0.00000000000E+00  0.27029937315E+04  0.27029937315E+04  0.00000000000E+00 0.  1.
          1   -1    0    0  501    0  0.00000000000E+00 -0.00000000000E+00 -0.59889323621E+03  0.59889323621E+03  0.00000000000E+00 0. -1.
        -24    2    1    2    0    0  0.39839371799E+03  0.67247582197E+03 -0.96781710410E+02  0.79153494518E+03  0.78864341217E+02 0.  0.
        254    2    1    2    0    0 -0.39839371799E+03 -0.67247582197E+03  0.22008822057E+04  0.25103520226E+04  0.92034966614E+03 0.  0.
         23    2    4    4    0    0  0.45291806571E+02 -0.34952400577E+03  0.17710700934E+04  0.18079472576E+04  0.88122824365E+02 0.  0.
         23    2    4    4    0    0 -0.44368552456E+03 -0.32295181619E+03  0.42981211238E+03  0.70240476499E+03  0.86482840214E+02 0.  0.
          1    1    3    3  502    0  0.33589119906E+03  0.50217904845E+03 -0.71343755632E+02  0.60835567375E+03  0.00000000000E+00 0. -1.
         -2    1    3    3    0  502  0.62502518931E+02  0.17029677351E+03 -0.25437954778E+02  0.18317927144E+03  0.00000000000E+00 0.  1.
         11    1    5    5    0    0 -0.19084171335E+02 -0.30811086993E+02  0.12897675837E+03  0.13397213470E+03  0.00000000000E+00 0. -1.
        -11    1    5    5    0    0  0.64375977906E+02 -0.31871291878E+03  0.16420933350E+04  0.16739751229E+04  0.00000000000E+00 0.  1.
          4    1    6    6  503    0 -0.29946987657E+03 -0.16602415236E+03  0.26649127608E+03  0.43389379618E+03  0.00000000000E+00 0. -1.
         -4    1    6    6    0  503 -0.14421564799E+03 -0.15692766384E+03  0.16332083630E+03  0.26851096881E+03  0.00000000000E+00 0.  1.
<mgrwt>
<rscale>  0 0.25446451E+04</rscale>
<asrwt>0</asrwt>
<pdfrwt beam="1">  1        1 0.92137422E-01 0.25446451E+04</pdfrwt>
<pdfrwt beam="2">  1       -2 0.41584518E+00 0.25446451E+04</pdfrwt>
<totfact> 0.15555397E-01</totfact>
</mgrwt>
</event>
<event>
12    4  0.4207946E-008  0.1441967E+04  0.7818608E-02  0.8923988E-01
          1   -1    0    0  501    0  0.00000000000E+00  0.00000000000E+00  0.17003572093E+04  0.17003572093E+04  0.00000000000E+00 0. -1.
         -2   -1    0    0    0  501 -0.00000000000E+00 -0.00000000000E+00 -0.30571075005E+03  0.30571075005E+03  0.00000000000E+00 0.  1.
        -24    2    1    2    0    0  0.40842034071E+03  0.17234031055E+03  0.35508541152E+03  0.57343187777E+03  0.78931056135E+02 0.  0.
        254    2    1    2    0    0 -0.40842034071E+03 -0.17234031055E+03  0.10395610477E+04  0.14326360816E+04  0.88048317018E+03 0.  0.
         23    2    4    4    0    0  0.11725117117E+03 -0.27308727158E+03  0.65089240194E+02  0.31744107453E+03  0.90596531778E+02 0.  0.
         23    2    4    4    0    0 -0.52567151188E+03  0.10074696103E+03  0.97447180754E+03  0.11151950071E+04  0.87086804549E+02 0.  0.
          3    1    3    3  502    0  0.72424092503E+02 -0.45024656476E+00  0.55317002168E+02  0.91134091458E+02  0.00000000000E+00 0. -1.
         -4    1    3    3    0  502  0.33599624821E+03  0.17279055711E+03  0.29976840936E+03  0.48229778632E+03  0.00000000000E+00 0.  1.
         11    1    5    5    0    0  0.11348005547E+02 -0.62470616755E+02  0.50713142036E+02  0.81259940701E+02  0.00000000000E+00 0.  1.
        -11    1    5    5    0    0  0.10590316562E+03 -0.21061665483E+03  0.14376098158E+02  0.23618113383E+03  0.00000000000E+00 0. -1.
          4    1    6    6  503    0 -0.41467683111E+03  0.44611060518E+02  0.77569719684E+03  0.88071173614E+03  0.00000000000E+00 0. -1.
         -4    1    6    6    0  503 -0.11099468077E+03  0.56135900515E+02  0.19877461069E+03  0.23448327092E+03  0.00000000000E+00 0.  1.
<mgrwt>
<rscale>  0 0.14419674E+04</rscale>
<asrwt>0</asrwt>
<pdfrwt beam="1">  1        1 0.26159341E+00 0.14419674E+04</pdfrwt>
<pdfrwt beam="2">  1       -2 0.47032424E-01 0.14419674E+04</pdfrwt>
<totfact> 0.17412252E+01</totfact>
</mgrwt>
</event>
<event>
12    4  0.4207946E-008  0.1271089E+04  0.7818608E-02  0.9052811E-01
          3   -1    0    0  501    0  0.00000000000E+00  0.00000000000E+00  0.29866781502E+03  0.29866781502E+03  0.00000000000E+00 0. -1.
         -4   -1    0    0    0  501 -0.00000000000E+00 -0.00000000000E+00 -0.13523944682E+04  0.13523944682E+04  0.00000000000E+00 0.  1.
        -24    2    1    2    0    0 -0.22261513116E+03  0.19442583966E+03 -0.32835910641E+03  0.44897894084E+03  0.80021764552E+02 0.  0.
        254    2    1    2    0    0  0.22261513116E+03 -0.19442583966E+03 -0.72536754673E+03  0.12020833423E+04  0.91185929854E+03 0.  0.
         23    2    4    4    0    0  0.13327436545E+03  0.18143910295E+03 -0.76548125822E+03  0.80312696818E+03  0.91483144653E+02 0.  0.
         23    2    4    4    0    0  0.89340765711E+02 -0.37586494262E+03  0.40113711492E+02  0.39895637416E+03  0.91109006853E+02 0.  0.
          3    1    3    3  502    0 -0.10644835283E+03  0.72378159746E+02 -0.89947154421E+02  0.15703611182E+03  0.00000000000E+00 0. -1.
         -4    1    3    3    0  502 -0.11616677833E+03  0.12204767992E+03 -0.23841195199E+03  0.29194282902E+03  0.00000000000E+00 0.  1.
         11    1    5    5    0    0  0.48746232821E+02  0.82930130762E+02 -0.47967081726E+03  0.48922151908E+03  0.00000000000E+00 0.  1.
        -11    1    5    5    0    0  0.84528132629E+02  0.98508972190E+02 -0.28581044097E+03  0.31390544910E+03  0.00000000000E+00 0. -1.
          1    1    6    6  503    0  0.29222649958E+01 -0.19131494395E+03  0.38111393779E+00  0.19133764046E+03  0.00000000000E+00 0. -1.
         -1    1    6    6    0  503  0.86418500715E+02 -0.18454999867E+03  0.39732597554E+02  0.20761873370E+03  0.00000000000E+00 0.  1.
<mgrwt>
<rscale>  0 0.12710888E+04</rscale>
<asrwt>0</asrwt>
<pdfrwt beam="1">  1        3 0.45948895E-01 0.12710888E+04</pdfrwt>
<pdfrwt beam="2">  1       -4 0.20806069E+00 0.12710888E+04</pdfrwt>
<totfact> 0.12338625E+00</totfact>
</mgrwt>
</event>
<event>
12    4  0.4207946E-008  0.2016865E+04  0.7818608E-02  0.8598776E-01
         -2   -1    0    0    0  501 -0.00000000000E+00  0.00000000000E+00  0.31240721324E+03  0.31240721324E+03  0.00000000000E+00 0.  1.
          1   -1    0    0  501    0  0.00000000000E+00 -0.00000000000E+00 -0.32551616002E+04  0.32551616002E+04  0.00000000000E+00 0. -1.
        -24    2    1    2    0    0 -0.62765179873E+03 -0.42380342362E+03 -0.15194780135E+04  0.17000719074E+04  0.88740829256E+02 0.  0.
        254    2    1    2    0    0  0.62765179873E+03  0.42380342362E+03 -0.14232763735E+04  0.18674969060E+04  0.94248232673E+03 0.  0.
         23    2    4    4    0    0  0.62919545297E+03 -0.81967362367E+02 -0.50843657309E+03  0.81809831613E+03  0.90396567782E+02 0.  0.
         23    2    4    4    0    0 -0.15436542472E+01  0.50577078599E+03 -0.91483980037E+03  0.10493985898E+04  0.92190396282E+02 0.  0.
          3    1    3    3  502    0 -0.43569840351E+03 -0.26269198729E+03 -0.10884946246E+04  0.12015243347E+04  0.00000000000E+00 0. -1.
         -4    1    3    3    0  502 -0.19195339522E+03 -0.16111143633E+03 -0.43098338886E+03  0.49854757278E+03  0.00000000000E+00 0.  1.
         11    1    5    5    0    0  0.19429853416E+03  0.30681458687E+01 -0.19520059575E+03  0.27543530362E+03  0.00000000000E+00 0. -1.
        -11    1    5    5    0    0  0.43489691881E+03 -0.85035508236E+02 -0.31323597734E+03  0.54266301252E+03  0.00000000000E+00 0.  1.
          1    1    6    6  503    0 -0.33075165580E+02  0.73279206357E+02 -0.14942669042E+03  0.16968248133E+03  0.00000000000E+00 0. -1.
         -1    1    6    6    0  503  0.31531511333E+02  0.43249157963E+03 -0.76541310995E+03  0.87971610850E+03  0.00000000000E+00 0.  1.
<mgrwt>
<rscale>  0 0.20168649E+04</rscale>
<asrwt>0</asrwt>
<pdfrwt beam="1">  1        1 0.50079409E+00 0.20168649E+04</pdfrwt>
<pdfrwt beam="2">  1       -2 0.48062648E-01 0.20168649E+04</pdfrwt>
<totfact> 0.12930369E+00</totfact>
</mgrwt>
</event>
<event>
12    4  0.4207946E-008  0.1862150E+04  0.7818608E-02  0.8673929E-01
         -2   -1    0    0    0  501 -0.00000000000E+00  0.00000000000E+00  0.61098649623E+03  0.61098649623E+03  0.00000000000E+00 0.  1.
          1   -1    0    0  501    0  0.00000000000E+00 -0.00000000000E+00 -0.14188542928E+04  0.14188542928E+04  0.00000000000E+00 0. -1.
        -24    2    1    2    0    0  0.19899275410E+03 -0.25160646631E+03 -0.84071604187E+03  0.90346181300E+03  0.80844631268E+02 0.  0.
        254    2    1    2    0    0 -0.19899275410E+03  0.25160646631E+03  0.32848245268E+02  0.11263789761E+04  0.10792342936E+04 0.  0.
         23    2    4    4    0    0  0.20803350130E+03 -0.83631691887E+02  0.40751063936E+03  0.47386331896E+03  0.90605332713E+02 0.  0.
         23    2    4    4    0    0 -0.40702625541E+03  0.33523815820E+03 -0.37466239409E+03  0.65251565711E+03  0.85730845844E+02 0.  0.
          3    1    3    3  502    0  0.15241972704E+03 -0.23166534990E+03 -0.74893454859E+03  0.79862604866E+03  0.00000000000E+00 0. -1.
         -4    1    3    3    0  502  0.46573027064E+02 -0.19941116411E+02 -0.91781493286E+02  0.10483576433E+03  0.00000000000E+00 0.  1.
         11    1    5    5    0    0  0.15901475345E+01  0.12838373637E+02  0.13453824017E+02  0.18664345355E+02  0.00000000000E+00 0.  1.
        -11    1    5    5    0    0  0.20644335377E+03 -0.96470065524E+02  0.39405681534E+03  0.45519897361E+03  0.00000000000E+00 0. -1.
          4    1    6    6  503    0 -0.33120494441E+03  0.22489489310E+03 -0.27926145430E+03  0.48812025977E+03  0.00000000000E+00 0. -1.
         -4    1    6    6    0  503 -0.75821311000E+02  0.11034326509E+03 -0.95400939786E+02  0.16439539734E+03  0.00000000000E+00 0.  1.
<mgrwt>
<rscale>  0 0.18621502E+04</rscale>
<asrwt>0</asrwt>
<pdfrwt beam="1">  1        1 0.21828528E+00 0.18621502E+04</pdfrwt>
<pdfrwt beam="2">  1       -2 0.93997923E-01 0.18621502E+04</pdfrwt>
<totfact> 0.58642981E+00</totfact>
</mgrwt>
</event>
<event>
12    4  0.4207946E-008  0.1751532E+04  0.7818608E-02  0.8732507E-01
         -2   -1    0    0    0  501 -0.00000000000E+00  0.00000000000E+00  0.42421036330E+03  0.42421036330E+03  0.00000000000E+00 0.  1.
          1   -1    0    0  501    0  0.00000000000E+00 -0.00000000000E+00 -0.18079854727E+04  0.18079854727E+04  0.00000000000E+00 0. -1.
        -24    2    1    2    0    0 -0.46804922509E+03 -0.20874385195E+03 -0.48796076705E+01  0.51890229017E+03  0.81189305567E+02 0.  0.
        254    2    1    2    0    0  0.46804922509E+03  0.20874385195E+03 -0.13788955017E+04  0.17132935458E+04  0.87828121727E+03 0.  0.
         23    2    4    4    0    0  0.35746592161E+03 -0.20580876965E+03 -0.22472056220E+03  0.47849092405E+03  0.91187162179E+02 0.  0.
         23    2    4    4    0    0  0.11058330348E+03  0.41455262160E+03 -0.11541749395E+04  0.12348026217E+04  0.92386041199E+02 0.  0.
          1    1    3    3  502    0 -0.83262447369E+02 -0.26673967357E+02 -0.30102082521E+02  0.92467675696E+02  0.00000000000E+00 0. -1.
         -2    1    3    3    0  502 -0.38478677772E+03 -0.18206988459E+03  0.25222474850E+02  0.42643461447E+03  0.00000000000E+00 0.  1.
         11    1    5    5    0    0  0.33849970098E+03 -0.21220724223E+03 -0.20030272241E+03  0.44691737695E+03  0.00000000000E+00 0.  1.
        -11    1    5    5    0    0  0.18966220631E+02  0.63984725773E+01 -0.24417839793E+02  0.31573547100E+02  0.00000000000E+00 0. -1.
          3    1    6    6  503    0 -0.66467366176E+01  0.64416636949E+02 -0.11502935260E+03  0.13200543240E+03  0.00000000000E+00 0. -1.
         -3    1    6    6    0  503  0.11723004010E+03  0.35013598465E+03 -0.10391455869E+04  0.11027971893E+04  0.00000000000E+00 0.  1.
<mgrwt>
<rscale>  0 0.17515321E+04</rscale>
<asrwt>0</asrwt>
<pdfrwt beam="1">  1        1 0.27815160E+00 0.17515321E+04</pdfrwt>
<pdfrwt beam="2">  1       -2 0.65263134E-01 0.17515321E+04</pdfrwt>
<totfact> 0.72430645E+00</totfact>
</mgrwt>
</event>
<event>
12    4  0.4207946E-008  0.2041464E+04  0.7818608E-02  0.8587476E-01
         -2   -1    0    0    0  501 -0.00000000000E+00  0.00000000000E+00  0.42083342033E+03  0.42083342033E+03  0.00000000000E+00 0.  1.
          1   -1    0    0  501    0  0.00000000000E+00 -0.00000000000E+00 -0.24757876257E+04  0.24757876257E+04  0.00000000000E+00 0. -1.
        -24    2    1    2    0    0  0.66806421421E+03  0.18464281981E+03 -0.14520871015E+04  0.16109995637E+04  0.79748846816E+02 0.  0.
        254    2    1    2    0    0 -0.66806421421E+03 -0.18464281981E+03 -0.60286710389E+03  0.12856214824E+04  0.89942819936E+03 0.  0.
         23    2    4    4    0    0 -0.44711425250E+03  0.31638989572E+03 -0.43663406273E+03  0.70630910602E+03  0.90606443557E+02 0.  0.
         23    2    4    4    0    0 -0.22094996171E+03 -0.50103271553E+03 -0.16623304117E+03  0.57931237637E+03  0.90092939947E+02 0.  0.
          1    1    3    3  502    0  0.54457086491E+03  0.12001759201E+03 -0.11890007532E+04  0.13132724167E+04  0.00000000000E+00 0. -1.
         -2    1    3    3    0  502  0.12349334930E+03  0.64625227796E+02 -0.26308634825E+03  0.29772714694E+03  0.00000000000E+00 0.  1.
         11    1    5    5    0    0 -0.41921571042E+03  0.30156523197E+03 -0.37893569812E+03  0.64052764523E+03  0.00000000000E+00 0. -1.
        -11    1    5    5    0    0 -0.27898542085E+02  0.14824663748E+02 -0.57698364608E+02  0.65781460793E+02  0.00000000000E+00 0.  1.
          3    1    6    6  503    0 -0.22360537576E+03 -0.50033878829E+03 -0.15758303285E+03  0.57023738861E+03  0.00000000000E+00 0. -1.
         -3    1    6    6    0  503  0.26554140491E+01 -0.69392724042E+00 -0.86500083188E+01  0.90749877522E+01  0.00000000000E+00 0.  1.
<mgrwt>
<rscale>  0 0.20414644E+04</rscale>
<asrwt>0</asrwt>
<pdfrwt beam="1">  1        1 0.38089040E+00 0.20414644E+04</pdfrwt>
<pdfrwt beam="2">  1       -2 0.64743603E-01 0.20414644E+04</pdfrwt>
<totfact> 0.25186349E+00</totfact>
</mgrwt>
</event>
<event>
12    4  0.4207946E-008  0.1462245E+04  0.7818608E-02  0.8909955E-01
         -4   -1    0    0    0  501 -0.00000000000E+00  0.00000000000E+00  0.62092125610E+03  0.62092125610E+03  0.00000000000E+00 0.  1.
          3   -1    0    0  501    0  0.00000000000E+00 -0.00000000000E+00 -0.86088182623E+03  0.86088182623E+03  0.00000000000E+00 0. -1.
        -24    2    1    2    0    0 -0.12433862930E+03 -0.21496733160E+03 -0.45286315926E+03  0.52277582228E+03  0.80860812209E+02 0.  0.
        254    2    1    2    0    0  0.12433862930E+03  0.21496733160E+03  0.21290258914E+03  0.95902726006E+03  0.90151801129E+03 0.  0.
         23    2    4    4    0    0  0.16652632522E+03 -0.25692494557E+03  0.33331401542E+03  0.46180544154E+03  0.91785556142E+02 0.  0.
         23    2    4    4    0    0 -0.42187695924E+02  0.47189227717E+03 -0.12041142628E+03  0.49722181851E+03  0.90931305337E+02 0.  0.
          1    1    3    3  502    0 -0.69970856006E+02 -0.17921673869E+03 -0.29692591946E+03  0.35380723815E+03  0.00000000000E+00 0. -1.
         -2    1    3    3    0  502 -0.54367773290E+02 -0.35750592901E+02 -0.15593723980E+03  0.16896858413E+03  0.00000000000E+00 0.  1.
         11    1    5    5    0    0  0.76414886555E+02 -0.16428424047E+03  0.24726070869E+03  0.30653940141E+03  0.00000000000E+00 0. -1.
        -11    1    5    5    0    0  0.90111438665E+02 -0.92640705097E+02  0.86053306725E+02  0.15526604013E+03  0.00000000000E+00 0.  1.
          1    1    6    6  503    0 -0.46954973919E+02  0.47141202230E+03 -0.12564803398E+03  0.49012395655E+03  0.00000000000E+00 0. -1.
         -1    1    6    6    0  503  0.47672779951E+01  0.48025486827E+00  0.52366077001E+01  0.70978619616E+01  0.00000000000E+00 0.  1.
<mgrwt>
<rscale>  0 0.14622446E+04</rscale>
<asrwt>0</asrwt>
<pdfrwt beam="1">  1        3 0.13244336E+00 0.14622446E+04</pdfrwt>
<pdfrwt beam="2">  1       -4 0.95526347E-01 0.14622446E+04</pdfrwt>
<totfact> 0.90688052E-01</totfact>
</mgrwt>
</event>
<event>
12    4  0.4207946E-008  0.3059316E+04  0.7818608E-02  0.8226993E-01
          3   -1    0    0  501    0  0.00000000000E+00  0.00000000000E+00  0.12061606415E+04  0.12061606415E+04  0.00000000000E+00 0. -1.
         -4   -1    0    0    0  501 -0.00000000000E+00 -0.00000000000E+00 -0.19399187154E+04  0.19399187154E+04  0.00000000000E+00 0.  1.
        -24    2    1    2    0    0  0.73561792310E+03  0.11619791794E+04 -0.22667315698E+03  0.13964016458E+04  0.85014670192E+02 0.  0.
        254    2    1    2    0    0 -0.73561792310E+03 -0.11619791794E+04 -0.50708491698E+03  0.17496777111E+04  0.95546200223E+03 0.  0.
         23    2    4    4    0    0 -0.76474435788E+03 -0.12649301169E+04 -0.57919014137E+03  0.15902290594E+04  0.92114645243E+02 0.  0.
         23    2    4    4    0    0  0.29126434784E+02  0.10295093755E+03  0.72105224388E+02  0.15944865173E+03  0.93688123100E+02 0.  0.
          3    1    3    3  502    0  0.42289010581E+03  0.63172608281E+03 -0.87150394946E+02  0.76518564847E+03  0.00000000000E+00 0. -1.
         -4    1    3    3    0  502  0.31272781729E+03  0.53025309656E+03 -0.13952276203E+03  0.63121599730E+03  0.00000000000E+00 0.  1.
         11    1    5    5    0    0 -0.68205971508E+03 -0.11761361966E+04 -0.53611246709E+03  0.14614781508E+04  0.00000000000E+00 0. -1.
        -11    1    5    5    0    0 -0.82684642802E+02 -0.88793920276E+02 -0.43077674276E+02  0.12875090856E+03  0.00000000000E+00 0.  1.
          2    1    6    6  503    0  0.17355329843E+02  0.11916546626E+03  0.70029992754E+02  0.13930475839E+03  0.00000000000E+00 0. -1.
         -2    1    6    6    0  503  0.11771104940E+02 -0.16214528713E+02  0.20752316338E+01  0.20143893349E+02  0.00000000000E+00 0.  1.
<mgrwt>
<rscale>  0 0.30593160E+04</rscale>
<asrwt>0</asrwt>
<pdfrwt beam="1">  1        3 0.18556318E+00 0.30593160E+04</pdfrwt>
<pdfrwt beam="2">  1       -4 0.29844903E+00 0.30593160E+04</pdfrwt>
<totfact> 0.11115044E-02</totfact>
</mgrwt>
</event>
<event>
12    4  0.4780841E-008  0.1755633E+04  0.7818608E-02  0.8730256E-01
         -2   -1    0    0    0  501 -0.00000000000E+00  0.00000000000E+00  0.52485931319E+03  0.52485931319E+03  0.00000000000E+00 0.  1.
          1   -1    0    0  501    0  0.00000000000E+00 -0.00000000000E+00 -0.14681304643E+04  0.14681304643E+04  0.00000000000E+00 0. -1.
        -24    2    1    2    0    0 -0.28712238299E+03 -0.53236403442E+03 -0.59680794499E+03  0.85357766041E+03  0.81020807183E+02 0.  0.
        254    2    1    2    0    0  0.28712238299E+03  0.53236403442E+03 -0.34646320612E+03  0.11394121171E+04  0.90131708703E+03 0.  0.
         23    2    4    4    0    0  0.39313422537E+03  0.73245683876E+03 -0.32025229694E+03  0.89545788477E+03  0.90751032437E+02 0.  0.
         23    2    4    4    0    0 -0.10601184238E+03 -0.20009280435E+03 -0.26210909179E+02  0.24395423230E+03  0.86896574294E+02 0.  0.
          1    1    3    3  502    0 -0.24669121857E+03 -0.43218233922E+03 -0.44724949354E+03  0.66908164010E+03  0.00000000000E+00 0. -1.
         -2    1    3    3    0  502 -0.40431164421E+02 -0.10018169520E+03 -0.14955845146E+03  0.18449602031E+03  0.00000000000E+00 0.  1.
         11    1    5    5    0    0  0.25756722722E+03  0.43307856509E+03 -0.15236040275E+03  0.52641391737E+03  0.00000000000E+00 0.  1.
        -11    1    5    5    0    0  0.13556699814E+03  0.29937827368E+03 -0.16789189419E+03  0.36904396740E+03  0.00000000000E+00 0. -1.
          4    1    6    6  503    0 -0.29894798153E+02 -0.76521803247E+02  0.31199366411E+02  0.87878813108E+02  0.00000000000E+00 0. -1.
         -4    1    6    6    0  503 -0.76117044225E+02 -0.12357100110E+03 -0.57410275590E+02  0.15607541920E+03  0.00000000000E+00 0.  1.
<mgrwt>
<rscale>  0 0.17556332E+04</rscale>
<asrwt>0</asrwt>
<pdfrwt beam="1">  1        1 0.22586622E+00 0.17556332E+04</pdfrwt>
<pdfrwt beam="2">  1       -2 0.80747588E-01 0.17556332E+04</pdfrwt>
<totfact> 0.77450070E+00</totfact>
</mgrwt>
</event>
<event>
12    4  0.4207946E-008  0.2111853E+04  0.7818608E-02  0.8556040E-01
         -2   -1    0    0    0  501 -0.00000000000E+00  0.00000000000E+00  0.16503191618E+04  0.16503191618E+04  0.00000000000E+00 0.  1.
          1   -1    0    0  501    0  0.00000000000E+00 -0.00000000000E+00 -0.67561498091E+03  0.67561498091E+03  0.00000000000E+00 0. -1.
        -24    2    1    2    0    0  0.45218000976E+03 -0.64728491706E+03  0.77953117219E+03  0.11140938158E+04  0.10045723880E+03 0.  0.
        254    2    1    2    0    0 -0.45218000976E+03  0.64728491706E+03  0.19517300870E+03  0.12118403270E+04  0.89834289091E+03 0.  0.
         23    2    4    4    0    0  0.21269129144E+03  0.13151994403E+03 -0.14074806554E+03  0.30129742672E+03  0.91842475261E+02 0.  0.
         23    2    4    4    0    0 -0.66487130121E+03  0.51576497303E+03  0.33592107425E+03  0.91054290024E+03  0.90432574223E+02 0.  0.
          1    1    3    3  502    0  0.44964557045E+02 -0.10395480958E+03  0.76313611828E+02  0.13657298845E+03  0.00000000000E+00 0. -1.
         -2    1    3    3    0  502  0.40721545272E+03 -0.54333010748E+03  0.70321756036E+03  0.97752082731E+03  0.00000000000E+00 0.  1.
         11    1    5    5    0    0  0.74302342491E+01 -0.11261723652E+02 -0.18710120519E+02  0.23067366786E+02  0.00000000000E+00 0.  1.
        -11    1    5    5    0    0  0.20526105720E+03  0.14278166768E+03 -0.12203794502E+03  0.27823005994E+03  0.00000000000E+00 0. -1.
          2    1    6    6  503    0 -0.35694722102E+03  0.29634973440E+03  0.23039279356E+03  0.51799162445E+03  0.00000000000E+00 0. -1.
         -2    1    6    6    0  503 -0.30792408018E+03  0.21941523863E+03  0.10552828069E+03  0.39255127579E+03  0.00000000000E+00 0.  1.
<mgrwt>
<rscale>  0 0.21118526E+04</rscale>
<asrwt>0</asrwt>
<pdfrwt beam="1">  1        1 0.10394077E+00 0.21118526E+04</pdfrwt>
<pdfrwt beam="2">  1       -2 0.25389525E+00 0.21118526E+04</pdfrwt>
<totfact> 0.14068368E+00</totfact>
</mgrwt>
</event>
<event>
12    4  0.4207946E-008  0.1941143E+04  0.7818608E-02  0.8634644E-01
          1   -1    0    0  501    0  0.00000000000E+00  0.00000000000E+00  0.28102517582E+04  0.28102517582E+04  0.00000000000E+00 0. -1.
         -2   -1    0    0    0  501 -0.00000000000E+00 -0.00000000000E+00 -0.33520437119E+03  0.33520437119E+03  0.00000000000E+00 0.  1.
        -24    2    1    2    0    0  0.49005749407E+03  0.10484787270E+02  0.19122283341E+04  0.19756953957E+04  0.80553190865E+02 0.  0.
        254    2    1    2    0    0 -0.49005749407E+03 -0.10484787270E+02  0.56281905298E+03  0.11697607338E+04  0.90072671195E+03 0.  0.
         23    2    4    4    0    0 -0.10880472011E+03  0.15513300976E+03  0.69352569823E+03  0.72432169758E+03  0.88086943662E+02 0.  0.
         23    2    4    4    0    0 -0.38125277396E+03 -0.16561779703E+03 -0.13070664525E+03  0.44543903619E+03  0.92459588509E+02 0.  0.
          1    1    3    3  502    0  0.26999161161E+03  0.11507097055E+02  0.89369006556E+03  0.93365401349E+03  0.00000000000E+00 0. -1.
         -2    1    3    3    0  502  0.22006588245E+03 -0.10223097854E+01  0.10185382685E+04  0.10420413822E+04  0.00000000000E+00 0.  1.
         11    1    5    5    0    0 -0.10699408209E+03  0.14490524680E+03  0.51680058863E+03  0.54729161565E+03  0.00000000000E+00 0. -1.
        -11    1    5    5    0    0 -0.18106380189E+01  0.10227762966E+02  0.17672510960E+03  0.17703008193E+03  0.00000000000E+00 0.  1.
          3    1    6    6  503    0 -0.27118209928E+03 -0.10494335399E+03 -0.13295265146E+03  0.31973308563E+03  0.00000000000E+00 0. -1.
         -3    1    6    6    0  503 -0.11007067468E+03 -0.60674443046E+02  0.22460062109E+01  0.12570595056E+03  0.00000000000E+00 0.  1.
<mgrwt>
<rscale>  0 0.19411426E+04</rscale>
<asrwt>0</asrwt>
<pdfrwt beam="1">  1        1 0.43234641E+00 0.19411426E+04</pdfrwt>
<pdfrwt beam="2">  1       -2 0.51569905E-01 0.19411426E+04</pdfrwt>
<totfact> 0.23875510E+00</totfact>
</mgrwt>
</event>
<event>
12    4  0.4207946E-008  0.1573430E+04  0.7818608E-02  0.8837040E-01
          1   -1    0    0  501    0  0.00000000000E+00  0.00000000000E+00  0.11811959468E+04  0.11811959468E+04  0.00000000000E+00 0. -1.
         -2   -1    0    0    0  501 -0.00000000000E+00 -0.00000000000E+00 -0.52397758306E+03  0.52397758306E+03  0.00000000000E+00 0.  1.
        -24    2    1    2    0    0  0.31967018985E+03 -0.40017384727E+03  0.79780176326E+02  0.52404490634E+03  0.77006811473E+02 0.  0.
        254    2    1    2    0    0 -0.31967018985E+03  0.40017384727E+03  0.57743818745E+03  0.11811286236E+04  0.89403681510E+03 0.  0.
         23    2    4    4    0    0  0.27848924581E+03  0.20670170811E+02  0.62259230201E+02  0.30040047088E+03  0.91546246076E+02 0.  0.
         23    2    4    4    0    0 -0.59815943566E+03  0.37950367646E+03  0.51517895725E+03  0.88072815268E+03  0.91950910890E+02 0.  0.
          1    1    3    3  502    0  0.62364826254E+02 -0.68387964533E+02  0.44506834916E+02  0.10269928725E+03  0.00000000000E+00 0. -1.
         -2    1    3    3    0  502  0.25730536360E+03 -0.33178588274E+03  0.35273341410E+02  0.42134561910E+03  0.00000000000E+00 0.  1.
         11    1    5    5    0    0  0.33596534804E+01  0.17121274621E+02  0.10675019110E+02  0.20454372373E+02  0.00000000000E+00 0.  1.
        -11    1    5    5    0    0  0.27512959233E+03  0.35488961899E+01  0.51584211091E+02  0.27994609851E+03  0.00000000000E+00 0. -1.
          3    1    6    6  503    0 -0.54188489040E+03  0.31350237989E+03  0.47071788066E+03  0.78326132281E+03  0.00000000000E+00 0. -1.
         -3    1    6    6    0  503 -0.56274545255E+02  0.66001296565E+02  0.44461076594E+02  0.97466829864E+02  0.00000000000E+00 0.  1.
<mgrwt>
<rscale>  0 0.15734296E+04</rscale>
<asrwt>0</asrwt>
<pdfrwt beam="1">  1        1 0.18172245E+00 0.15734296E+04</pdfrwt>
<pdfrwt beam="2">  1       -2 0.80611936E-01 0.15734296E+04</pdfrwt>
<totfact> 0.12640906E+01</totfact>
</mgrwt>
</event>
<event>
12    4  0.4207946E-008  0.1392723E+04  0.7818608E-02  0.8959103E-01
         -2   -1    0    0    0  501 -0.00000000000E+00  0.00000000000E+00  0.34252713684E+03  0.34252713684E+03  0.00000000000E+00 0.  1.
          1   -1    0    0  501    0  0.00000000000E+00 -0.00000000000E+00 -0.14157116767E+04  0.14157116767E+04  0.00000000000E+00 0. -1.
        -24    2    1    2    0    0  0.25230979085E+03  0.31164660743E+03 -0.35761153080E+03  0.54315935949E+03  0.79700968366E+02 0.  0.
        254    2    1    2    0    0 -0.25230979085E+03 -0.31164660743E+03 -0.71557300906E+03  0.12150794541E+04  0.89643154222E+03 0.  0.
         23    2    4    4    0    0 -0.56230627176E+03 -0.89925161333E+02 -0.52192365408E+03  0.77785862137E+03  0.91568860630E+02 0.  0.
         23    2    4    4    0    0  0.30999648091E+03 -0.22172144610E+03 -0.19364935498E+03  0.43722083269E+03  0.91672056896E+02 0.  0.
          1    1    3    3  502    0  0.27350547365E+02  0.42513448948E+02 -0.14757542115E+02  0.52661473887E+02  0.00000000000E+00 0. -1.
         -2    1    3    3    0  502  0.22495924349E+03  0.26913315848E+03 -0.34285398869E+03  0.49049788561E+03  0.00000000000E+00 0.  1.
         11    1    5    5    0    0 -0.33940799130E+03 -0.90396513737E+02 -0.28260919064E+03  0.45081844337E+03  0.00000000000E+00 0.  1.
        -11    1    5    5    0    0 -0.22289828047E+03  0.47135240337E+00 -0.23931446344E+03  0.32704017799E+03  0.00000000000E+00 0. -1.
          3    1    6    6  503    0  0.19489850270E+02 -0.13994761993E+02  0.10123590686E+02  0.26042171859E+02  0.00000000000E+00 0. -1.
         -3    1    6    6    0  503  0.29050663064E+03 -0.20772668411E+03 -0.20377294566E+03  0.41117866083E+03  0.00000000000E+00 0.  1.
<mgrwt>
<rscale>  0 0.13927235E+04</rscale>
<asrwt>0</asrwt>
<pdfrwt beam="1">  1        1 0.21780179E+00 0.13927235E+04</pdfrwt>
<pdfrwt beam="2">  1       -2 0.52696483E-01 0.13927235E+04</pdfrwt>
<totfact> 0.21779635E+01</totfact>
</mgrwt>
</event>
<event>
12    4  0.4207946E-008  0.2166744E+04  0.7818608E-02  0.8532399E-01
         -2   -1    0    0    0  501 -0.00000000000E+00  0.00000000000E+00  0.91745315693E+03  0.91745315693E+03  0.00000000000E+00 0.  1.
          1   -1    0    0  501    0  0.00000000000E+00 -0.00000000000E+00 -0.12792964202E+04  0.12792964202E+04  0.00000000000E+00 0. -1.
        -24    2    1    2    0    0  0.16194660991E+03 -0.19112030918E+03 -0.10233161618E+04  0.10565274280E+04  0.79501961871E+02 0.  0.
        254    2    1    2    0    0 -0.16194660991E+03  0.19112030918E+03  0.66147289855E+03  0.11402221492E+04  0.89431900175E+03 0.  0.
         23    2    4    4    0    0 -0.10113467309E+03  0.29886968615E+03  0.83932613150E+03  0.90166008762E+03  0.94716667900E+02 0.  0.
         23    2    4    4    0    0 -0.60811936824E+02 -0.10774937698E+03 -0.17785323295E+03  0.23856206155E+03  0.99860226518E+02 0.  0.
          3    1    3    3  502    0  0.62540637548E+02 -0.13329007760E+03 -0.60916035445E+03  0.62670081663E+03  0.00000000000E+00 0. -1.
         -4    1    3    3    0  502  0.99405972366E+02 -0.57830231574E+02 -0.41415580739E+03  0.42982661135E+03  0.00000000000E+00 0.  1.
         11    1    5    5    0    0 -0.16587884358E+02  0.12577643297E+03  0.23078627098E+03  0.26335749822E+03  0.00000000000E+00 0.  1.
        -11    1    5    5    0    0 -0.84546788732E+02  0.17309325319E+03  0.60853986052E+03  0.63830258939E+03  0.00000000000E+00 0. -1.
          3    1    6    6  503    0 -0.25346439244E+02 -0.10655153498E+03 -0.83401863963E+02  0.13766460148E+03  0.00000000000E+00 0. -1.
         -3    1    6    6    0  503 -0.35465497580E+02 -0.11978419959E+01 -0.94451368986E+02  0.10089746006E+03  0.00000000000E+00 0.  1.
<mgrwt>
<rscale>  0 0.21667437E+04</rscale>
<asrwt>0</asrwt>
<pdfrwt beam="1">  1        1 0.19681483E+00 0.21667437E+04</pdfrwt>
<pdfrwt beam="2">  1       -2 0.14114664E+00 0.21667437E+04</pdfrwt>
<totfact> 0.26406150E+00</totfact>
</mgrwt>
</event>
<event>
12    4  0.4207946E-008  0.1910645E+04  0.7818608E-02  0.8649576E-01
          1   -1    0    0  501    0  0.00000000000E+00  0.00000000000E+00  0.60494856331E+03  0.60494856331E+03  0.00000000000E+00 0. -1.
         -2   -1    0    0    0  501 -0.00000000000E+00 -0.00000000000E+00 -0.15086265869E+04  0.15086265869E+04  0.00000000000E+00 0.  1.
        -24    2    1    2    0    0  0.66238979708E+03 -0.99901744117E+02  0.79204442916E-01  0.67448965787E+03  0.78712708912E+02 0.  0.
        254    2    1    2    0    0 -0.66238979708E+03  0.99901744117E+02 -0.90375722803E+03  0.14390854923E+04  0.89746828651E+03 0.  0.
         23    2    4    4    0    0 -0.56992455647E+03  0.35289929527E+03 -0.23934215854E+03  0.71655786454E+03  0.82574764380E+02 0.  0.
         23    2    4    4    0    0 -0.92465240611E+02 -0.25299755116E+03 -0.66441506948E+03  0.72252762779E+03  0.89672775999E+02 0.  0.
          1    1    3    3  502    0  0.26281896892E+03 -0.40536839124E+02 -0.38481634595E+02  0.26869663554E+03  0.00000000000E+00 0. -1.
         -2    1    3    3    0  502  0.39957082816E+03 -0.59364904992E+02  0.38560839038E+02  0.40579302233E+03  0.00000000000E+00 0.  1.
         11    1    5    5    0    0 -0.38156080949E+03  0.27156650726E+03 -0.14145677032E+03  0.48923106716E+03  0.00000000000E+00 0. -1.
        -11    1    5    5    0    0 -0.18836374698E+03  0.81332788015E+02 -0.97885388222E+02  0.22732679738E+03  0.00000000000E+00 0.  1.
          1    1    6    6  503    0 -0.93300137210E+02 -0.16545355507E+03 -0.52049325973E+03  0.55406951542E+03  0.00000000000E+00 0. -1.
         -1    1    6    6    0  503  0.83489659943E+00 -0.87543996084E+02 -0.14392180975E+03  0.16845811237E+03  0.00000000000E+00 0.  1.
<mgrwt>
<rscale>  0 0.19106454E+04</rscale>
<asrwt>0</asrwt>
<pdfrwt beam="1">  1        1 0.93069010E-01 0.19106454E+04</pdfrwt>
<pdfrwt beam="2">  1       -2 0.23209640E+00 0.19106454E+04</pdfrwt>
<totfact> 0.22967548E+00</totfact>
</mgrwt>
</event>
<event>
12    4  0.4207946E-008  0.2020530E+04  0.7818608E-02  0.8597082E-01
          1   -1    0    0  501    0  0.00000000000E+00  0.00000000000E+00  0.29306269364E+04  0.29306269364E+04  0.00000000000E+00 0. -1.
         -2   -1    0    0    0  501 -0.00000000000E+00 -0.00000000000E+00 -0.34826532855E+03  0.34826532855E+03  0.00000000000E+00 0.  1.
        -24    2    1    2    0    0  0.82696641919E+03  0.23423006947E+02  0.10852347620E+04  0.13670133810E+04  0.81049365021E+02 0.  0.
        254    2    1    2    0    0 -0.82696641919E+03 -0.23423006947E+02  0.14971268459E+04  0.19118788840E+04  0.85409014658E+03 0.  0.
         23    2    4    4    0    0 -0.30510959607E+03 -0.56037554892E+02  0.67656301127E+00  0.32435225733E+03  0.94719881391E+02 0.  0.
         23    2    4    4    0    0 -0.52185682313E+03  0.32614547945E+02  0.14964502829E+04  0.15875266267E+04  0.86481723378E+02 0.  0.
          1    1    3    3  502    0  0.71503336923E+03  0.40615206362E+02  0.90415124498E+03  0.11534347783E+04  0.00000000000E+00 0. -1.
         -2    1    3    3    0  502  0.11193304997E+03 -0.17192199415E+02  0.18108351697E+03  0.21357860266E+03  0.00000000000E+00 0.  1.
         11    1    5    5    0    0 -0.11031160895E+03 -0.52200782795E+02  0.34000938132E+02  0.12668716031E+03  0.00000000000E+00 0.  1.
        -11    1    5    5    0    0 -0.19479798711E+03 -0.38367720971E+01 -0.33324375121E+02  0.19766509702E+03  0.00000000000E+00 0. -1.
          1    1    6    6  503    0 -0.30791846410E+03 -0.23349868600E+02  0.86249077614E+03  0.91610552658E+03  0.00000000000E+00 0. -1.
         -1    1    6    6    0  503 -0.21393835903E+03  0.55964416546E+02  0.63395950678E+03  0.67142110007E+03  0.00000000000E+00 0.  1.
<mgrwt>
<rscale>  0 0.20205304E+04</rscale>
<asrwt>0</asrwt>
<pdfrwt beam="1">  1        1 0.45086567E+00 0.20205304E+04</pdfrwt>
<pdfrwt beam="2">  1       -2 0.53579283E-01 0.20205304E+04</pdfrwt>
<totfact> 0.17957701E+00</totfact>
</mgrwt>
</event>
<event>
12    4  0.4207946E-008  0.1340468E+04  0.7818608E-02  0.8998075E-01
         -2   -1    0    0    0  501 -0.00000000000E+00  0.00000000000E+00  0.10479699397E+04  0.10479699397E+04  0.00000000000E+00 0.  1.
          1   -1    0    0  501    0  0.00000000000E+00 -0.00000000000E+00 -0.42865143773E+03  0.42865143773E+03  0.00000000000E+00 0. -1.
        -24    2    1    2    0    0 -0.27779035566E+03 -0.16620170086E+03  0.34398545041E+03  0.47880209169E+03  0.78326022811E+02 0.  0.
        254    2    1    2    0    0  0.27779035566E+03  0.16620170086E+03  0.27533305151E+03  0.99781928570E+03  0.90279817821E+03 0.  0.
         23    2    4    4    0    0 -0.87933321450E+02 -0.87767104420E+02 -0.25614920957E+03  0.29868548441E+03  0.90361869151E+02 0.  0.
         23    2    4    4    0    0  0.36572367711E+03  0.25396880528E+03  0.53148226108E+03  0.69913380128E+03  0.89781491388E+02 0.  0.
          1    1    3    3  502    0 -0.36270947682E+02 -0.76159201519E+01  0.76768128758E+02  0.85246287183E+02  0.00000000000E+00 0. -1.
         -2    1    3    3    0  502 -0.24151940798E+03 -0.15858578070E+03  0.26721732165E+03  0.39355580451E+03  0.00000000000E+00 0.  1.
         11    1    5    5    0    0 -0.93152333184E+02 -0.34532513984E+02 -0.15169152297E+03  0.18132889963E+03  0.00000000000E+00 0. -1.
        -11    1    5    5    0    0  0.52190117342E+01 -0.53234590437E+02 -0.10445768661E+03  0.11735658479E+03  0.00000000000E+00 0.  1.
          4    1    6    6  503    0  0.33107677882E+03  0.19693279293E+03  0.47599746670E+03  0.61234626373E+03  0.00000000000E+00 0. -1.
         -4    1    6    6    0  503  0.34646898292E+02  0.57036012349E+02  0.55484794380E+02  0.86787537546E+02  0.00000000000E+00 0.  1.
<mgrwt>
<rscale>  0 0.13404683E+04</rscale>
<asrwt>0</asrwt>
<pdfrwt beam="1">  1        1 0.65946375E-01 0.13404683E+04</pdfrwt>
<pdfrwt beam="2">  1       -2 0.16122614E+00 0.13404683E+04</pdfrwt>
<totfact> 0.11536722E+01</totfact>
</mgrwt>
</event>
<event>
12    4  0.4207946E-008  0.1398577E+04  0.7818608E-02  0.8954849E-01
         -2   -1    0    0    0  501 -0.00000000000E+00  0.00000000000E+00  0.33631340664E+03  0.33631340664E+03  0.00000000000E+00 0.  1.
          1   -1    0    0  501    0  0.00000000000E+00 -0.00000000000E+00 -0.14540148325E+04  0.14540148325E+04  0.00000000000E+00 0. -1.
        -24    2    1    2    0    0  0.77095947380E+02  0.71181050979E+01 -0.80371351024E+03  0.81182476106E+03  0.84318346836E+02 0.  0.
        254    2    1    2    0    0 -0.77095947380E+02 -0.71181050979E+01 -0.31398791562E+03  0.97850347808E+03  0.92351837715E+03 0.  0.
         23    2    4    4    0    0  0.28712763409E+03  0.11982326319E+03 -0.45314778037E+03  0.55721028030E+03  0.91326299355E+02 0.  0.
         23    2    4    4    0    0 -0.36422358147E+03 -0.12694136829E+03  0.13915986475E+03  0.42129319778E+03  0.96693134491E+02 0.  0.
          3    1    3    3  502    0  0.74583899564E+02  0.53758220269E+01 -0.80503053563E+03  0.80849602400E+03  0.00000000000E+00 0. -1.
         -4    1    3    3    0  502  0.25120478162E+01  0.17422830711E+01  0.13170253899E+01  0.33287370591E+01  0.00000000000E+00 0.  1.
         11    1    5    5    0    0  0.12186658852E+03  0.58530263675E+01 -0.14586722145E+03  0.19016563729E+03  0.00000000000E+00 0. -1.
        -11    1    5    5    0    0  0.16526104557E+03  0.11397023683E+03 -0.30728055892E+03  0.36704464300E+03  0.00000000000E+00 0.  1.
          4    1    6    6  503    0 -0.28836261556E+03 -0.63133657118E+02  0.79948995509E+02  0.30582789048E+03  0.00000000000E+00 0. -1.
         -4    1    6    6    0  503 -0.75860965914E+02 -0.63807711173E+02  0.59210869240E+02  0.11546530730E+03  0.00000000000E+00 0.  1.
<mgrwt>
<rscale>  0 0.13985774E+04</rscale>
<asrwt>0</asrwt>
<pdfrwt beam="1">  1        1 0.22369459E+00 0.13985774E+04</pdfrwt>
<pdfrwt beam="2">  1       -2 0.51740524E-01 0.13985774E+04</pdfrwt>
<totfact> 0.21255090E+01</totfact>
</mgrwt>
</event>
<event>
12    4  0.4738964E-008  0.2333791E+04  0.7818608E-02  0.8464716E-01
          1   -1    0    0  501    0  0.00000000000E+00  0.00000000000E+00  0.13471224377E+04  0.13471224377E+04  0.00000000000E+00 0. -1.
         -2   -1    0    0    0  501 -0.00000000000E+00 -0.00000000000E+00 -0.10107808890E+04  0.10107808890E+04  0.00000000000E+00 0.  1.
        -24    2    1    2    0    0  0.29480599314E+03 -0.50810889155E+03  0.94628885946E+03  0.11165851547E+04  0.78832625803E+02 0.  0.
        254    2    1    2    0    0 -0.29480599314E+03  0.50810889155E+03 -0.60994731074E+03  0.12413181720E+04  0.90760666749E+03 0.  0.
         23    2    4    4    0    0 -0.36597973760E+01 -0.20498809733E+03 -0.36375181451E+03  0.42748279240E+03  0.91611358853E+02 0.  0.
         23    2    4    4    0    0 -0.29114619576E+03  0.71309698888E+03 -0.24619549623E+03  0.81383537956E+03  0.91882423752E+02 0.  0.
          3    1    3    3  502    0  0.25965639624E+03 -0.47804784261E+03  0.84138657726E+03  0.10019393975E+04  0.00000000000E+00 0. -1.
         -4    1    3    3    0  502  0.35149596904E+02 -0.30061048943E+02  0.10490228220E+03  0.11464575717E+03  0.00000000000E+00 0.  1.
         11    1    5    5    0    0 -0.98595069809E+01 -0.20642932849E+03 -0.36633895972E+03  0.42061206705E+03  0.00000000000E+00 0. -1.
        -11    1    5    5    0    0  0.61997096049E+01  0.14412311534E+01  0.25871452137E+01  0.68707253459E+01  0.00000000000E+00 0.  1.
          2    1    6    6  503    0 -0.20253531190E+03  0.58779666675E+03 -0.18542150418E+03  0.64877315621E+03  0.00000000000E+00 0.  1.
         -2    1    6    6    0  503 -0.88610883869E+02  0.12530032213E+03 -0.60773992047E+02  0.16506222334E+03  0.00000000000E+00 0. -1.
<mgrwt>
<rscale>  0 0.23337914E+04</rscale>
<asrwt>0</asrwt>
<pdfrwt beam="1">  1        1 0.20724961E+00 0.23337914E+04</pdfrwt>
<pdfrwt beam="2">  1       -2 0.15550475E+00 0.23337914E+04</pdfrwt>
<totfact> 0.18023614E+00</totfact>
</mgrwt>
</event>
<event>
12    4  0.4207946E-008  0.2363413E+04  0.7818608E-02  0.8453330E-01
         -2   -1    0    0    0  501 -0.00000000000E+00  0.00000000000E+00  0.13007927703E+04  0.13007927703E+04  0.00000000000E+00 0.  1.
          1   -1    0    0  501    0  0.00000000000E+00 -0.00000000000E+00 -0.10735221304E+04  0.10735221304E+04  0.00000000000E+00 0. -1.
        -24    2    1    2    0    0 -0.35683685442E+03  0.40808043449E+03 -0.75730666285E+03  0.93520446517E+03  0.85040157544E+02 0.  0.
        254    2    1    2    0    0  0.35683685442E+03 -0.40808043449E+03  0.98457730280E+03  0.14391104355E+04  0.89876815627E+03 0.  0.
         23    2    4    4    0    0  0.60550927504E+03 -0.15423397882E+03  0.39394529602E+03  0.74396050623E+03  0.88626949535E+02 0.  0.
         23    2    4    4    0    0 -0.24867242062E+03 -0.25384645567E+03  0.59063200678E+03  0.69514992929E+03  0.90062538968E+02 0.  0.
          1    1    3    3  502    0 -0.30394829819E+03  0.33721307471E+03 -0.68075543313E+03  0.81824518664E+03  0.00000000000E+00 0. -1.
         -4    1    3    3    0  502 -0.52888556227E+02  0.70867359785E+02 -0.76551229719E+02  0.11695927853E+03  0.00000000000E+00 0.  1.
         11    1    5    5    0    0  0.39823717075E+03 -0.13680683090E+03  0.23531670354E+03  0.48237216349E+03  0.00000000000E+00 0.  1.
        -11    1    5    5    0    0  0.20727210429E+03 -0.17427147924E+02  0.15862859248E+03  0.26158834274E+03  0.00000000000E+00 0. -1.
          1    1    6    6  503    0 -0.70028227547E+02 -0.12683240036E+03  0.27564735110E+03  0.31140307096E+03  0.00000000000E+00 0. -1.
         -1    1    6    6    0  503 -0.17864419307E+03 -0.12701405531E+03  0.31498465568E+03  0.38374685833E+03  0.00000000000E+00 0.  1.
<mgrwt>
<rscale>  0 0.23634126E+04</rscale>
<asrwt>0</asrwt>
<pdfrwt beam="1">  1        1 0.16515725E+00 0.23634126E+04</pdfrwt>
<pdfrwt beam="2">  1       -2 0.20012197E+00 0.23634126E+04</pdfrwt>
<totfact> 0.13896946E+00</totfact>
</mgrwt>
</event>
<event>
12    4  0.4207946E-008  0.3612239E+04  0.7818608E-02  0.8087694E-01
         -2   -1    0    0    0  501 -0.00000000000E+00  0.00000000000E+00  0.15145902816E+04  0.15145902816E+04  0.00000000000E+00 0.  1.
          1   -1    0    0  501    0  0.00000000000E+00 -0.00000000000E+00 -0.21537622871E+04  0.21537622871E+04  0.00000000000E+00 0. -1.
        -24    2    1    2    0    0  0.48520491244E+03 -0.13071185846E+04  0.67967380709E+03  0.15532291807E+04  0.81127077005E+02 0.  0.
        254    2    1    2    0    0 -0.48520491244E+03  0.13071185846E+04 -0.13188458126E+04  0.21151233880E+04  0.88904998058E+03 0.  0.
         23    2    4    4    0    0 -0.36038844074E+03  0.24770832481E+03 -0.41560548079E+02  0.44853355556E+03  0.90641209785E+02 0.  0.
         23    2    4    4    0    0 -0.12481647171E+03  0.10594102597E+04 -0.12772852645E+04  0.16665898324E+04  0.90192974397E+02 0.  0.
          3    1    3    3  502    0  0.39044319984E+03 -0.10807968018E+04  0.59193396492E+03  0.12926536419E+04  0.00000000000E+00 0. -1.
         -4    1    3    3    0  502  0.94761712608E+02 -0.22632178272E+03  0.87739842161E+02  0.26057553879E+03  0.00000000000E+00 0.  1.
         11    1    5    5    0    0 -0.18795687308E+03  0.14887086101E+03  0.19640047444E+02  0.24057441855E+03  0.00000000000E+00 0.  1.
        -11    1    5    5    0    0 -0.17243156766E+03  0.98837463794E+02 -0.61200595523E+02  0.20795913702E+03  0.00000000000E+00 0. -1.
          3    1    6    6  503    0 -0.10933468185E+03  0.10341355240E+04 -0.12288128980E+04  0.16097737397E+04  0.00000000000E+00 0. -1.
         -3    1    6    6    0  503 -0.15481789856E+02  0.25274735770E+02 -0.48472366478E+02  0.56816092768E+02  0.00000000000E+00 0.  1.
<mgrwt>
<rscale>  0 0.36122389E+04</rscale>
<asrwt>0</asrwt>
<pdfrwt beam="1">  1        1 0.33134804E+00 0.36122389E+04</pdfrwt>
<pdfrwt beam="2">  1       -2 0.23301389E+00 0.36122389E+04</pdfrwt>
<totfact> 0.13631903E-01</totfact>
</mgrwt>
</event>
<event>
12    4  0.4207946E-008  0.2384499E+04  0.7818608E-02  0.8445330E-01
         -2   -1    0    0    0  501 -0.00000000000E+00  0.00000000000E+00  0.41721207435E+03  0.41721207435E+03  0.00000000000E+00 0.  1.
          1   -1    0    0  501    0  0.00000000000E+00 -0.00000000000E+00 -0.34070407616E+04  0.34070407616E+04  0.00000000000E+00 0. -1.
        -24    2    1    2    0    0 -0.98886215599E+02  0.20403318004E+03  0.31512609168E+03  0.39702124999E+03  0.83146840545E+02 0.  0.
        254    2    1    2    0    0  0.98886215599E+02 -0.20403318004E+03 -0.33049547790E+04  0.34272315860E+04  0.87851137200E+03 0.  0.
         23    2    4    4    0    0 -0.25606210946E+03  0.44052823493E+02 -0.38201828475E+03  0.47094512470E+03  0.91339396950E+02 0.  0.
         23    2    4    4    0    0  0.35494832506E+03 -0.24808600353E+03 -0.29229364942E+04  0.29562864613E+04  0.92395418201E+02 0.  0.
          3    1    3    3  502    0 -0.17996273872E+02  0.97376563475E+02  0.83656580449E+02  0.12963211192E+03  0.00000000000E+00 0. -1.
         -4    1    3    3    0  502 -0.80889941727E+02  0.10665661657E+03  0.23146951124E+03  0.26738913808E+03  0.00000000000E+00 0.  1.
         11    1    5    5    0    0 -0.73667705452E+02  0.44571161420E+02 -0.17502497925E+03  0.19505707528E+03  0.00000000000E+00 0. -1.
        -11    1    5    5    0    0 -0.18239440401E+03 -0.51833792771E+00 -0.20699330550E+03  0.27588804942E+03  0.00000000000E+00 0.  1.
          3    1    6    6  503    0  0.26773760474E+03 -0.21532904207E+03 -0.20757629345E+04  0.21040061268E+04  0.00000000000E+00 0. -1.
         -3    1    6    6    0  503  0.87210720325E+02 -0.32756961461E+02 -0.84717355973E+03  0.85228033450E+03  0.00000000000E+00 0.  1.
<mgrwt>
<rscale>  0 0.23844987E+04</rscale>
<asrwt>0</asrwt>
<pdfrwt beam="1">  1        1 0.52416007E+00 0.23844987E+04</pdfrwt>
<pdfrwt beam="2">  1       -2 0.64186478E-01 0.23844987E+04</pdfrwt>
<totfact> 0.52346355E-01</totfact>
</mgrwt>
</event>
<event>
12    4  0.4207946E-008  0.1709556E+04  0.7818608E-02  0.8755933E-01
         -2   -1    0    0    0  501 -0.00000000000E+00  0.00000000000E+00  0.67207288107E+03  0.67207288107E+03  0.00000000000E+00 0.  1.
          1   -1    0    0  501    0  0.00000000000E+00 -0.00000000000E+00 -0.10871523980E+04  0.10871523980E+04  0.00000000000E+00 0. -1.
        -24    2    1    2    0    0 -0.78393055934E+01 -0.38196865744E+03  0.34534734989E+03  0.52272036742E+03  0.89500170182E+02 0.  0.
        254    2    1    2    0    0  0.78393055934E+01  0.38196865744E+03 -0.76042686679E+03  0.12365049116E+04  0.89706959972E+03 0.  0.
         23    2    4    4    0    0  0.12870541039E+03 -0.12927116393E+03 -0.66399549888E+03  0.69466941154E+03  0.91648525958E+02 0.  0.
         23    2    4    4    0    0 -0.12086610480E+03  0.51123982137E+03 -0.96431367914E+02  0.54183550008E+03  0.91169787647E+02 0.  0.
          3    1    3    3  502    0 -0.27083868497E+02 -0.28623792150E+03  0.21098242540E+03  0.35662202325E+03  0.00000000000E+00 0. -1.
         -4    1    3    3    0  502  0.19244562904E+02 -0.95730735944E+02  0.13436492448E+03  0.16609834417E+03  0.00000000000E+00 0.  1.
         11    1    5    5    0    0 -0.82996466741E+01  0.25270646322E+01 -0.84357120341E+01  0.12100885426E+02  0.00000000000E+00 0.  1.
        -11    1    5    5    0    0  0.13700505706E+03 -0.13179822856E+03 -0.65555978685E+03  0.68256852612E+03  0.00000000000E+00 0. -1.
          4    1    6    6  503    0  0.96257870498E+01  0.39137846982E+02  0.78288781032E+01  0.41057498402E+02  0.00000000000E+00 0.  1.
         -4    1    6    6    0  503 -0.13049189185E+03  0.47210197439E+03 -0.10426024602E+03  0.50077800167E+03  0.00000000000E+00 0. -1.
<mgrwt>
<rscale>  0 0.17095563E+04</rscale>
<asrwt>0</asrwt>
<pdfrwt beam="1">  1        1 0.16725421E+00 0.17095563E+04</pdfrwt>
<pdfrwt beam="2">  1       -2 0.10339583E+00 0.17095563E+04</pdfrwt>
<totfact> 0.82454453E+00</totfact>
</mgrwt>
</event>
<event>
12    4  0.4207946E-008  0.1601937E+04  0.7818608E-02  0.8819359E-01
         -2   -1    0    0    0  501 -0.00000000000E+00  0.00000000000E+00  0.65722268531E+03  0.65722268531E+03  0.00000000000E+00 0.  1.
          1   -1    0    0  501    0  0.00000000000E+00 -0.00000000000E+00 -0.97615345579E+03  0.97615345579E+03  0.00000000000E+00 0. -1.
        -24    2    1    2    0    0  0.43469151820E+03 -0.27158597624E+03 -0.27167726469E+03  0.58541307703E+03  0.78640168631E+02 0.  0.
        254    2    1    2    0    0 -0.43469151820E+03  0.27158597624E+03 -0.47253505797E+02  0.10479630641E+04  0.91284063854E+03 0.  0.
         23    2    4    4    0    0 -0.50535468027E+03  0.51712039858E+03  0.10783814405E+03  0.73553085109E+03  0.81115399815E+02 0.  0.
         23    2    4    4    0    0  0.70663162074E+02 -0.24553442234E+03 -0.15509164985E+03  0.31243221298E+03  0.90994685725E+02 0.  0.
          3    1    3    3  502    0  0.29862864658E+03 -0.14920641070E+03 -0.15239631607E+03  0.36696901600E+03  0.00000000000E+00 0. -1.
         -4    1    3    3    0  502  0.13606287162E+03 -0.12237956555E+03 -0.11928094862E+03  0.21844406103E+03  0.00000000000E+00 0.  1.
         11    1    5    5    0    0 -0.30966046283E+03  0.34770801911E+03  0.10188721664E+03  0.47662508716E+03  0.00000000000E+00 0.  1.
        -11    1    5    5    0    0 -0.19569421744E+03  0.16941237947E+03  0.59509274066E+01  0.25890576393E+03  0.00000000000E+00 0. -1.
          1    1    6    6  503    0  0.33499812087E+02 -0.43001202848E+02  0.22354049704E+00  0.54510465294E+02  0.00000000000E+00 0. -1.
         -1    1    6    6    0  503  0.37163349987E+02 -0.20253321949E+03 -0.15531519034E+03  0.25792174769E+03  0.00000000000E+00 0.  1.
<mgrwt>
<rscale>  0 0.16019366E+04</rscale>
<asrwt>0</asrwt>
<pdfrwt beam="1">  1        1 0.15017745E+00 0.16019366E+04</pdfrwt>
<pdfrwt beam="2">  1       -2 0.10111118E+00 0.16019366E+04</pdfrwt>
<totfact> 0.10690194E+01</totfact>
</mgrwt>
</event>
<event>
12    4  0.4207946E-008  0.1429375E+04  0.7818608E-02  0.8932826E-01
         -2   -1    0    0    0  501 -0.00000000000E+00  0.00000000000E+00  0.85167926603E+03  0.85167926603E+03  0.00000000000E+00 0.  1.
          1   -1    0    0  501    0  0.00000000000E+00 -0.00000000000E+00 -0.59973048118E+03  0.59973048118E+03  0.00000000000E+00 0. -1.
        -24    2    1    2    0    0  0.33322380652E+03  0.17971373096E+03 -0.76181346361E+02  0.39489100795E+03  0.82463205726E+02 0.  0.
        254    2    1    2    0    0 -0.33322380652E+03 -0.17971373096E+03  0.32813013121E+03  0.10565187393E+04  0.93017596888E+03 0.  0.
         23    2    4    4    0    0 -0.11295243739E+03  0.37165643550E+03  0.17787093955E+03  0.43710722776E+03  0.92400748175E+02 0.  0.
         23    2    4    4    0    0 -0.22027136912E+03 -0.55137016646E+03  0.15025919166E+03  0.61941151150E+03  0.92543283848E+02 0.  0.
          3    1    3    3  502    0  0.22241843942E+03  0.15897275000E+03 -0.38828750182E+02  0.27613396980E+03  0.00000000000E+00 0. -1.
         -4    1    3    3    0  502  0.11080536710E+03  0.20740980966E+02 -0.37352596179E+02  0.11875703815E+03  0.00000000000E+00 0.  1.
         11    1    5    5    0    0 -0.94182624315E+02  0.29099265501E+03  0.17880020636E+03  0.35428322820E+03  0.00000000000E+00 0. -1.
        -11    1    5    5    0    0 -0.18769813079E+02  0.80663780491E+02 -0.92926680764E+00  0.82823999559E+02  0.00000000000E+00 0.  1.
          3    1    6    6  503    0 -0.15425392853E+03 -0.42688218515E+03  0.76279835684E+02  0.46026219462E+03  0.00000000000E+00 0. -1.
         -3    1    6    6    0  503 -0.66017440593E+02 -0.12448798131E+03  0.73979355976E+02  0.15914931688E+03  0.00000000000E+00 0.  1.
<mgrwt>
<rscale>  0 0.14293747E+04</rscale>
<asrwt>0</asrwt>
<pdfrwt beam="1">  1        1 0.92266228E-01 0.14293747E+04</pdfrwt>
<pdfrwt beam="2">  1       -2 0.13102758E+00 0.14293747E+04</pdfrwt>
<totfact> 0.12414671E+01</totfact>
</mgrwt>
</event>
<event>
12    4  0.4207946E-008  0.1638212E+04  0.7818608E-02  0.8797411E-01
          1   -1    0    0  501    0  0.00000000000E+00  0.00000000000E+00  0.21097898546E+04  0.21097898546E+04  0.00000000000E+00 0. -1.
         -2   -1    0    0    0  501 -0.00000000000E+00 -0.00000000000E+00 -0.31801030667E+03  0.31801030667E+03  0.00000000000E+00 0.  1.
        -24    2    1    2    0    0  0.50580309185E+03 -0.20747419082E+02  0.98522462570E+03  0.11104259415E+04  0.78172791010E+02 0.  0.
        254    2    1    2    0    0 -0.50580309185E+03  0.20747419082E+02  0.80655492224E+03  0.13173742198E+04  0.91031685108E+03 0.  0.
         23    2    4    4    0    0 -0.17080353075E+02 -0.10368739874E+03 -0.16685250622E+03  0.21737082788E+03  0.91474055686E+02 0.  0.
         23    2    4    4    0    0 -0.48872273877E+03  0.12443481782E+03  0.97340742845E+03  0.11000033919E+04  0.90285664670E+02 0.  0.
          3    1    3    3  502    0  0.48238904932E+03 -0.13591590072E+02  0.96391260757E+03  0.10779663451E+04  0.00000000000E+00 0. -1.
         -4    1    3    3    0  502  0.23414042525E+02 -0.71558290099E+01  0.21312018132E+02  0.32459596317E+02  0.00000000000E+00 0.  1.
         11    1    5    5    0    0 -0.13211950122E+02  0.13206366997E+01 -0.79855592463E+02  0.80951932373E+02  0.00000000000E+00 0.  1.
        -11    1    5    5    0    0 -0.38684029525E+01 -0.10500803544E+03 -0.86996913752E+02  0.13641889551E+03  0.00000000000E+00 0. -1.
          4    1    6    6  503    0 -0.32899281105E+03  0.11804827262E+03  0.61114827098E+03  0.70404110215E+03  0.00000000000E+00 0. -1.
         -4    1    6    6    0  503 -0.15972992772E+03  0.63865452079E+01  0.36225915747E+03  0.39596228979E+03  0.00000000000E+00 0.  1.
<mgrwt>
<rscale>  0 0.16382123E+04</rscale>
<asrwt>0</asrwt>
<pdfrwt beam="1">  1        1 0.32458305E+00 0.16382123E+04</pdfrwt>
<pdfrwt beam="2">  1       -2 0.48924664E-01 0.16382123E+04</pdfrwt>
<totfact> 0.83425623E+00</totfact>
</mgrwt>
</event>
<event>
12    4  0.4207946E-008  0.2305668E+04  0.7818608E-02  0.8475690E-01
         -2   -1    0    0    0  501 -0.00000000000E+00  0.00000000000E+00  0.90754345693E+03  0.90754345693E+03  0.00000000000E+00 0.  1.
          1   -1    0    0  501    0  0.00000000000E+00 -0.00000000000E+00 -0.14644216004E+04  0.14644216004E+04  0.00000000000E+00 0. -1.
        -24    2    1    2    0    0 -0.28573572899E+03 -0.61353997676E+03  0.47519936330E+03  0.83089163400E+03  0.80562166483E+02 0.  0.
        254    2    1    2    0    0  0.28573572899E+03  0.61353997676E+03 -0.10320775067E+04  0.15410734233E+04  0.92284728215E+03 0.  0.
         23    2    4    4    0    0  0.54482074660E+03  0.10137783062E+03 -0.54303073992E+03  0.78145624894E+03  0.93189989010E+02 0.  0.
         23    2    4    4    0    0 -0.25908501760E+03  0.51216214614E+03 -0.48904676682E+03  0.75961717435E+03  0.91740945887E+02 0.  0.
          1    1    3    3  502    0 -0.10784745475E+03 -0.21945294417E+03  0.12577720064E+03  0.27497376675E+03  0.00000000000E+00 0. -1.
         -2    1    3    3    0  502 -0.17788827424E+03 -0.39408703259E+03  0.34942216267E+03  0.55591786725E+03  0.00000000000E+00 0.  1.
         11    1    5    5    0    0  0.16389056682E+03  0.71829815522E+02 -0.15248634520E+03  0.23509939550E+03  0.00000000000E+00 0. -1.
        -11    1    5    5    0    0  0.38093017977E+03  0.29548015097E+02 -0.39054439472E+03  0.54635685345E+03  0.00000000000E+00 0.  1.
          2    1    6    6  503    0 -0.44465330325E+02  0.37950541418E+02 -0.71265370737E+02  0.92174629162E+02  0.00000000000E+00 0. -1.
         -2    1    6    6    0  503 -0.21461968728E+03  0.47421160472E+03 -0.41778139608E+03  0.66744254519E+03  0.00000000000E+00 0.  1.
<mgrwt>
<rscale>  0 0.23056680E+04</rscale>
<asrwt>0</asrwt>
<pdfrwt beam="1">  1        1 0.22529563E+00 0.23056680E+04</pdfrwt>
<pdfrwt beam="2">  1       -2 0.13962207E+00 0.23056680E+04</pdfrwt>
<totfact> 0.19867065E+00</totfact>
</mgrwt>
</event>
<event>
12    4  0.4207946E-008  0.1604914E+04  0.7818608E-02  0.8817535E-01
         -2   -1    0    0    0  501 -0.00000000000E+00  0.00000000000E+00  0.51743343395E+03  0.51743343395E+03  0.00000000000E+00 0.  1.
          1   -1    0    0  501    0  0.00000000000E+00 -0.00000000000E+00 -0.12444827131E+04  0.12444827131E+04  0.00000000000E+00 0. -1.
        -24    2    1    2    0    0 -0.19267248318E+03  0.74972521971E+02 -0.79648626925E+03  0.82784958517E+03  0.90559338207E+02 0.  0.
        254    2    1    2    0    0  0.19267248318E+03 -0.74972521971E+02  0.69436990058E+02  0.93406656193E+03  0.90824846914E+03 0.  0.
         23    2    4    4    0    0 -0.50334855733E+02 -0.44644639162E+03  0.13019431852E+03  0.47649453897E+03  0.90821290476E+02 0.  0.
         23    2    4    4    0    0  0.24300733891E+03  0.37147386965E+03 -0.60757328466E+02  0.45757202296E+03  0.92926318325E+02 0.  0.
          1    1    3    3  502    0 -0.18039402676E+03  0.73511087325E+02 -0.59692324788E+03  0.62790385308E+03  0.00000000000E+00 0. -1.
         -2    1    3    3    0  502 -0.12278456418E+02  0.14614346460E+01 -0.19956302137E+03  0.19994573209E+03  0.00000000000E+00 0.  1.
         11    1    5    5    0    0 -0.26681343959E+02 -0.34826109219E+03  0.62284142189E+02  0.35479148358E+03  0.00000000000E+00 0.  1.
        -11    1    5    5    0    0 -0.23653511774E+02 -0.98185299425E+02  0.67910176335E+02  0.12170305539E+03  0.00000000000E+00 0. -1.
          1    1    6    6  503    0  0.58240854256E+02  0.37830723214E+02 -0.27648086425E+02  0.74750099708E+02  0.00000000000E+00 0. -1.
         -1    1    6    6    0  503  0.18476648466E+03  0.33364314643E+03 -0.33109242041E+02  0.38282192325E+03  0.00000000000E+00 0.  1.
<mgrwt>
<rscale>  0 0.16049137E+04</rscale>
<asrwt>0</asrwt>
<pdfrwt beam="1">  1        1 0.19145888E+00 0.16049137E+04</pdfrwt>
<pdfrwt beam="2">  1       -2 0.79605145E-01 0.16049137E+04</pdfrwt>
<totfact> 0.11662802E+01</totfact>
</mgrwt>
</event>
<event>
12    4  0.4207946E-008  0.1371955E+04  0.7818608E-02  0.8974373E-01
          1   -1    0    0  501    0  0.00000000000E+00  0.00000000000E+00  0.15810938732E+04  0.15810938732E+04  0.00000000000E+00 0. -1.
         -2   -1    0    0    0  501 -0.00000000000E+00 -0.00000000000E+00 -0.29762003212E+03  0.29762003212E+03  0.00000000000E+00 0.  1.
        -24    2    1    2    0    0 -0.35059422794E+02  0.31364617547E+03  0.66262383332E+02  0.33218668162E+03  0.79713245366E+02 0.  0.
        254    2    1    2    0    0  0.35059422794E+02 -0.31364617547E+03  0.12172114578E+04  0.15465272237E+04  0.90029974691E+03 0.  0.
         23    2    4    4    0    0  0.17741590286E+03 -0.31059484625E+03  0.56181676721E+02  0.37323946437E+03  0.90585627243E+02 0.  0.
         23    2    4    4    0    0 -0.14235648006E+03 -0.30513292239E+01  0.11610297811E+04  0.11732877594E+04  0.91319963543E+02 0.  0.
          1    1    3    3  502    0 -0.29571867229E+02  0.57708541571E+02  0.36645639925E+02  0.74482709585E+02  0.00000000000E+00 0. -1.
         -2    1    3    3    0  502 -0.54875555654E+01  0.25593763390E+03  0.29616743406E+02  0.25770397203E+03  0.00000000000E+00 0.  1.
         11    1    5    5    0    0  0.92857555488E+02 -0.20008343656E+03  0.74646579490E+02  0.23286910278E+03  0.00000000000E+00 0.  1.
        -11    1    5    5    0    0  0.84558347370E+02 -0.11051140968E+03 -0.18464902768E+02  0.14037036160E+03  0.00000000000E+00 0. -1.
          1    1    6    6  503    0 -0.37552291663E+02  0.33316410853E+02  0.21537091833E+03  0.22114427486E+03  0.00000000000E+00 0. -1.
         -1    1    6    6    0  503 -0.10480418840E+03 -0.36367740077E+02  0.94565886273E+03  0.95214348450E+03  0.00000000000E+00 0.  1.
<mgrwt>
<rscale>  0 0.13719551E+04</rscale>
<asrwt>0</asrwt>
<pdfrwt beam="1">  1        1 0.24324521E+00 0.13719551E+04</pdfrwt>
<pdfrwt beam="2">  1       -2 0.45787698E-01 0.13719551E+04</pdfrwt>
<totfact> 0.22301121E+01</totfact>
</mgrwt>
</event>
<event>
12    4  0.4207946E-008  0.2298302E+04  0.7818608E-02  0.8478591E-01
         -2   -1    0    0    0  501 -0.00000000000E+00  0.00000000000E+00  0.14029198590E+04  0.14029198590E+04  0.00000000000E+00 0.  1.
          1   -1    0    0  501    0  0.00000000000E+00 -0.00000000000E+00 -0.94128567024E+03  0.94128567024E+03  0.00000000000E+00 0. -1.
        -24    2    1    2    0    0 -0.34137627260E+03 -0.38251161409E+03  0.10369617920E+04  0.11595276374E+04  0.79760200444E+02 0.  0.
        254    2    1    2    0    0  0.34137627260E+03  0.38251161409E+03 -0.57532760322E+03  0.11846778918E+04  0.89978161898E+03 0.  0.
         23    2    4    4    0    0  0.42231484757E+03  0.15020795058E+03  0.93357849876E+02  0.46692617125E+03  0.91608418667E+02 0.  0.
         23    2    4    4    0    0 -0.80938574972E+02  0.23230366351E+03 -0.66868545310E+03  0.71775172053E+03  0.86667480319E+02 0.  0.
          3    1    3    3  502    0 -0.25676888811E+02 -0.46672181788E+01  0.62711543638E+02  0.67925129738E+02  0.00000000000E+00 0. -1.
         -4    1    3    3    0  502 -0.31569938379E+03 -0.37784439591E+03  0.97425024831E+03  0.10916025077E+04  0.00000000000E+00 0.  1.
         11    1    5    5    0    0  0.27351089200E+03  0.11984941940E+03  0.22856211994E+02  0.29949039684E+03  0.00000000000E+00 0. -1.
        -11    1    5    5    0    0  0.14880395557E+03  0.30358531183E+02  0.70501637882E+02  0.16743577442E+03  0.00000000000E+00 0.  1.
          4    1    6    6  503    0 -0.74853013930E+02  0.13167204314E+03 -0.48650601339E+03  0.50953763522E+03  0.00000000000E+00 0. -1.
         -4    1    6    6    0  503 -0.60855610420E+01  0.10063162037E+03 -0.18217943971E+03  0.20821408531E+03  0.00000000000E+00 0.  1.
<mgrwt>
<rscale>  0 0.22983023E+04</rscale>
<asrwt>0</asrwt>
<pdfrwt beam="1">  1        1 0.14481318E+00 0.22983023E+04</pdfrwt>
<pdfrwt beam="2">  1       -2 0.21583382E+00 0.22983023E+04</pdfrwt>
<totfact> 0.14022555E+00</totfact>
</mgrwt>
</event>
<event>
12    4  0.4207946E-008  0.1786887E+04  0.7818608E-02  0.8713304E-01
         -2   -1    0    0    0  501 -0.00000000000E+00  0.00000000000E+00  0.18392584339E+04  0.18392584339E+04  0.00000000000E+00 0.  1.
          1   -1    0    0  501    0  0.00000000000E+00 -0.00000000000E+00 -0.43400168333E+03  0.43400168333E+03  0.00000000000E+00 0. -1.
        -24    2    1    2    0    0  0.31097975492E+02  0.59027613665E+03  0.91575231466E+03  0.10928362646E+04  0.79346064144E+02 0.  0.
        254    2    1    2    0    0 -0.31097975492E+02 -0.59027613665E+03  0.48950443593E+03  0.11804238526E+04  0.89687952227E+03 0.  0.
         23    2    4    4    0    0 -0.21486904091E+03 -0.74347244108E+03  0.22212345351E+03  0.81065167806E+03  0.94325707807E+02 0.  0.
         23    2    4    4    0    0  0.18377106542E+03  0.15319630443E+03  0.26738098241E+03  0.36977217456E+03  0.89431309660E+02 0.  0.
          3    1    3    3  502    0 -0.12051405709E+02  0.10447076145E+03  0.21135119784E+03  0.23606928052E+03  0.00000000000E+00 0. -1.
         -4    1    3    3    0  502  0.43149381201E+02  0.48580537520E+03  0.70440111682E+03  0.85676698410E+03  0.00000000000E+00 0.  1.
         11    1    5    5    0    0 -0.23723556583E+02 -0.17258529764E+03  0.81902559060E+02  0.19250070462E+03  0.00000000000E+00 0. -1.
        -11    1    5    5    0    0 -0.19114548433E+03 -0.57088714344E+03  0.14022089445E+03  0.61815097344E+03  0.00000000000E+00 0.  1.
          3    1    6    6  503    0  0.12898685661E+03  0.80740683198E+02  0.10897160274E+03  0.18716697707E+03  0.00000000000E+00 0. -1.
         -3    1    6    6    0  503  0.54784208805E+02  0.72455621234E+02  0.15840937967E+03  0.18260519749E+03  0.00000000000E+00 0.  1.
<mgrwt>
<rscale>  0 0.17868870E+04</rscale>
<asrwt>0</asrwt>
<pdfrwt beam="1">  1        1 0.66769491E-01 0.17868870E+04</pdfrwt>
<pdfrwt beam="2">  1       -2 0.28296283E+00 0.17868870E+04</pdfrwt>
<totfact> 0.17969872E+00</totfact>
</mgrwt>
</event>
<event>
12    4  0.4207946E-008  0.2239048E+04  0.7818608E-02  0.8502349E-01
         -2   -1    0    0    0  501 -0.00000000000E+00  0.00000000000E+00  0.15038851556E+04  0.15038851556E+04  0.00000000000E+00 0.  1.
          1   -1    0    0  501    0  0.00000000000E+00 -0.00000000000E+00 -0.83339775703E+03  0.83339775703E+03  0.00000000000E+00 0. -1.
        -24    2    1    2    0    0  0.26630519052E+03 -0.89530372441E+03  0.40341358977E+03  0.10205153411E+04  0.78878536343E+02 0.  0.
        254    2    1    2    0    0 -0.26630519052E+03  0.89530372441E+03  0.26707380879E+03  0.13167675716E+04  0.88885387141E+03 0.  0.
         23    2    4    4    0    0  0.25147511108E+03  0.34923819971E+03  0.33907219251E+03  0.55572872025E+03  0.93045188722E+02 0.  0.
         23    2    4    4    0    0 -0.51778030160E+03  0.54606552470E+03 -0.71998383726E+02  0.76103885131E+03  0.87820088495E+02 0.  0.
          1    1    3    3  502    0  0.12554314458E+03 -0.47405061273E+03  0.17189388188E+03  0.51964658299E+03  0.00000000000E+00 0. -1.
         -2    1    3    3    0  502  0.14076204594E+03 -0.42125311168E+03  0.23151970789E+03  0.50086875808E+03  0.00000000000E+00 0.  1.
         11    1    5    5    0    0  0.65675006356E+02  0.14724596153E+03  0.16520587799E+03  0.23084098806E+03  0.00000000000E+00 0.  1.
        -11    1    5    5    0    0  0.18580010472E+03  0.20199223818E+03  0.17386631453E+03  0.32488773219E+03  0.00000000000E+00 0. -1.
          1    1    6    6  503    0 -0.41139098283E+03  0.44114028836E+03 -0.92376903920E+02  0.61023010999E+03  0.00000000000E+00 0. -1.
         -1    1    6    6    0  503 -0.10638931878E+03  0.10492523635E+03  0.20378520194E+02  0.15080874132E+03  0.00000000000E+00 0.  1.
<mgrwt>
<rscale>  0 0.22390485E+04</rscale>
<asrwt>0</asrwt>
<pdfrwt beam="1">  1        1 0.12821504E+00 0.22390485E+04</pdfrwt>
<pdfrwt beam="2">  1       -2 0.23136695E+00 0.22390485E+04</pdfrwt>
<totfact> 0.13809650E+00</totfact>
</mgrwt>
</event>
<event>
12    4  0.4207946E-008  0.2357964E+04  0.7818608E-02  0.8455411E-01
          1   -1    0    0  501    0  0.00000000000E+00  0.00000000000E+00  0.19049620942E+04  0.19049620942E+04  0.00000000000E+00 0. -1.
         -2   -1    0    0    0  501 -0.00000000000E+00 -0.00000000000E+00 -0.72967233515E+03  0.72967233515E+03  0.00000000000E+00 0.  1.
        -24    2    1    2    0    0 -0.98633962386E+03 -0.15389422315E+03  0.36086370367E+03  0.10641766149E+04  0.75498143339E+02 0.  0.
        254    2    1    2    0    0  0.98633962386E+03  0.15389422315E+03  0.81442605537E+03  0.15704578144E+04  0.89805270537E+03 0.  0.
         23    2    4    4    0    0  0.14998054525E+03  0.82881915077E+02  0.69043310879E+03  0.71705935929E+03  0.90070368275E+02 0.  0.
         23    2    4    4    0    0  0.83635907861E+03  0.71012308074E+02  0.12399294659E+03  0.85339845510E+03  0.91517299457E+02 0.  0.
          1    1    3    3  502    0 -0.61942191613E+03 -0.10612060108E+03  0.26435198252E+03  0.68178226936E+03  0.00000000000E+00 0. -1.
         -2    1    3    3    0  502 -0.36691770773E+03 -0.47773622070E+02  0.96511721153E+02  0.38239434558E+03  0.00000000000E+00 0.  1.
         11    1    5    5    0    0  0.11490875020E+03  0.34230716798E+02  0.57053884944E+03  0.58300115057E+03  0.00000000000E+00 0. -1.
        -11    1    5    5    0    0  0.35071795045E+02  0.48651198279E+02  0.11989425935E+03  0.13405820872E+03  0.00000000000E+00 0.  1.
          1    1    6    6  503    0  0.13317808210E+03 -0.22180017390E+02  0.20266201087E+02  0.13652499269E+03  0.00000000000E+00 0.  1.
         -1    1    6    6    0  503  0.70318099651E+03  0.93192325464E+02  0.10372674550E+03  0.71687346241E+03  0.00000000000E+00 0. -1.
<mgrwt>
<rscale>  0 0.23579636E+04</rscale>
<asrwt>0</asrwt>
<pdfrwt beam="1">  1        1 0.29307109E+00 0.23579636E+04</pdfrwt>
<pdfrwt beam="2">  1       -2 0.11225728E+00 0.23579636E+04</pdfrwt>
<totfact> 0.17082781E+00</totfact>
</mgrwt>
</event>
<event>
12    4  0.4207946E-008  0.1339036E+04  0.7818608E-02  0.8999169E-01
         -2   -1    0    0    0  501 -0.00000000000E+00  0.00000000000E+00  0.92901922850E+03  0.92901922850E+03  0.00000000000E+00 0.  1.
          1   -1    0    0  501    0  0.00000000000E+00 -0.00000000000E+00 -0.48250275961E+03  0.48250275961E+03  0.00000000000E+00 0. -1.
        -24    2    1    2    0    0 -0.84139659155E+02 -0.30620256793E+03 -0.54675805679E+02  0.33124610324E+03  0.76779179075E+02 0.  0.
        254    2    1    2    0    0  0.84139659155E+02  0.30620256793E+03  0.50119227458E+03  0.10802758849E+04  0.90275289890E+03 0.  0.
         23    2    4    4    0    0 -0.17211565696E+03  0.48427239853E+03  0.54185867725E+03  0.75219710966E+03  0.89700113258E+02 0.  0.
         23    2    4    4    0    0  0.25625531611E+03 -0.17806983060E+03 -0.40666402674E+02  0.32807877521E+03  0.92770010395E+02 0.  0.
          1    1    3    3  502    0  0.10246069084E+02 -0.16730627771E+02 -0.13928840300E+02  0.24060515983E+02  0.00000000000E+00 0. -1.
         -4    1    3    3    0  502 -0.94385728239E+02 -0.28947194016E+03 -0.40746965379E+02  0.30718558726E+03  0.00000000000E+00 0.  1.
         11    1    5    5    0    0 -0.30689782391E+01 -0.26901206781E+01 -0.31319122332E+00  0.40930997346E+01  0.00000000000E+00 0. -1.
        -11    1    5    5    0    0 -0.16904667872E+03  0.48696251921E+03  0.54217186847E+03  0.74810400992E+03  0.00000000000E+00 0.  1.
          3    1    6    6  503    0  0.27335826894E+02 -0.13672943023E+02  0.24070982266E+02  0.38905128070E+02  0.00000000000E+00 0. -1.
         -3    1    6    6    0  503  0.22891948922E+03 -0.16439688758E+03 -0.64737384940E+02  0.28917364714E+03  0.00000000000E+00 0.  1.
<mgrwt>
<rscale>  0 0.13390360E+04</rscale>
<asrwt>0</asrwt>
<pdfrwt beam="1">  1        1 0.74231194E-01 0.13390360E+04</pdfrwt>
<pdfrwt beam="2">  1       -2 0.14292603E+00 0.13390360E+04</pdfrwt>
<totfact> 0.13559155E+01</totfact>
</mgrwt>
</event>
<event>
12    4  0.4207946E-008  0.2514615E+04  0.7818608E-02  0.8397797E-01
          1   -1    0    0  501    0  0.00000000000E+00  0.00000000000E+00  0.20580839870E+04  0.20580839870E+04  0.00000000000E+00 0. -1.
         -2   -1    0    0    0  501 -0.00000000000E+00 -0.00000000000E+00 -0.76810379953E+03  0.76810379953E+03  0.00000000000E+00 0.  1.
        -24    2    1    2    0    0  0.66892242980E+02  0.30774998173E+03 -0.61530136431E+03  0.69496696844E+03  0.72101975511E+02 0.  0.
        254    2    1    2    0    0 -0.66892242980E+02 -0.30774998173E+03  0.19052815518E+04  0.21312208181E+04  0.90156517263E+03 0.  0.
         23    2    4    4    0    0  0.22555714019E+03 -0.51205435081E+03  0.13621254386E+04  0.14753698167E+04  0.90855399921E+02 0.  0.
         23    2    4    4    0    0 -0.29244938317E+03  0.20430436908E+03  0.54315611320E+03  0.65585100147E+03  0.88628753116E+02 0.  0.
          1    1    3    3  502    0 -0.49666454936E+01  0.14027157142E+03 -0.28662150738E+03  0.31914365075E+03  0.00000000000E+00 0. -1.
         -2    1    3    3    0  502  0.71858888474E+02  0.16747841031E+03 -0.32867985693E+03  0.37582331769E+03  0.00000000000E+00 0.  1.
         11    1    5    5    0    0  0.17218929564E+03 -0.34518879236E+03  0.83270731224E+03  0.91771778002E+03  0.00000000000E+00 0. -1.
        -11    1    5    5    0    0  0.53367844557E+02 -0.16686555845E+03  0.52941812638E+03  0.55765203664E+03  0.00000000000E+00 0.  1.
          3    1    6    6  503    0 -0.28272527878E+03  0.20279159441E+03  0.54423736049E+03  0.64595070909E+03  0.00000000000E+00 0. -1.
         -3    1    6    6    0  503 -0.97241043940E+01  0.15127746718E+01 -0.10812472896E+01  0.99002923782E+01  0.00000000000E+00 0.  1.
<mgrwt>
<rscale>  0 0.25146150E+04</rscale>
<asrwt>0</asrwt>
<pdfrwt beam="1">  1        1 0.31662830E+00 0.25146150E+04</pdfrwt>
<pdfrwt beam="2">  1       -2 0.11816982E+00 0.25146150E+04</pdfrwt>
<totfact> 0.11704764E+00</totfact>
</mgrwt>
</event>
<event>
12    4  0.4207946E-008  0.2683225E+04  0.7818608E-02  0.8340468E-01
          1   -1    0    0  501    0  0.00000000000E+00  0.00000000000E+00  0.21783239496E+04  0.21783239496E+04  0.00000000000E+00 0. -1.
         -2   -1    0    0    0  501 -0.00000000000E+00 -0.00000000000E+00 -0.82628866415E+03  0.82628866415E+03  0.00000000000E+00 0.  1.
        -24    2    1    2    0    0  0.98872184455E+03  0.67350719729E+03  0.64544315678E+03  0.13616588563E+04  0.79593602428E+02 0.  0.
        254    2    1    2    0    0 -0.98872184455E+03 -0.67350719729E+03  0.70659212869E+03  0.16429537575E+04  0.87683623456E+03 0.  0.
         23    2    4    4    0    0 -0.99191760122E+03 -0.30538119600E+03  0.29456016832E+03  0.10827349110E+04  0.91602359805E+02 0.  0.
         23    2    4    4    0    0  0.31957566702E+01 -0.36812600130E+03  0.41203196037E+03  0.56021884647E+03  0.92454604396E+02 0.  0.
          3    1    3    3  502    0  0.53058098803E+02  0.19562023547E+02  0.19812009155E+02  0.59919532045E+02  0.00000000000E+00 0. -1.
         -4    1    3    3    0  502  0.93566374575E+03  0.65394517375E+03  0.62563114762E+03  0.13017393242E+04  0.00000000000E+00 0.  1.
         11    1    5    5    0    0 -0.38232354427E+03 -0.11034718836E+03  0.67473230742E+02  0.40360925577E+03  0.00000000000E+00 0. -1.
        -11    1    5    5    0    0 -0.60959405696E+03 -0.19503400764E+03  0.22708693757E+03  0.67912565526E+03  0.00000000000E+00 0.  1.
          2    1    6    6  503    0 -0.21380020039E+02 -0.16905911466E+02  0.24709919651E+02  0.36789879430E+02  0.00000000000E+00 0.  1.
         -2    1    6    6    0  503  0.24575776709E+02 -0.35122008983E+03  0.38732204072E+03  0.52342896704E+03  0.00000000000E+00 0. -1.
<mgrwt>
<rscale>  0 0.26832252E+04</rscale>
<asrwt>0</asrwt>
<pdfrwt beam="1">  1        1 0.33512676E+00 0.26832252E+04</pdfrwt>
<pdfrwt beam="2">  1       -2 0.12712133E+00 0.26832252E+04</pdfrwt>
<totfact> 0.79622738E-01</totfact>
</mgrwt>
</event>
<event>
12    4  0.4207946E-008  0.1240496E+04  0.7818608E-02  0.9078130E-01
         -2   -1    0    0    0  501 -0.00000000000E+00  0.00000000000E+00  0.31543820199E+03  0.31543820199E+03  0.00000000000E+00 0.  1.
          1   -1    0    0  501    0  0.00000000000E+00 -0.00000000000E+00 -0.12195982141E+04  0.12195982141E+04  0.00000000000E+00 0. -1.
        -24    2    1    2    0    0  0.23011152060E+03 -0.71602971151E+02 -0.24613830562E+02  0.25476709891E+03  0.78880521290E+02 0.  0.
        254    2    1    2    0    0 -0.23011152060E+03  0.71602971151E+02 -0.87954618156E+03  0.12802693172E+04  0.89855981529E+03 0.  0.
         23    2    4    4    0    0 -0.46191190739E+03 -0.11281125087E+03 -0.18408674086E+03  0.51812736776E+03  0.92081771003E+02 0.  0.
         23    2    4    4    0    0  0.23180038679E+03  0.18441422202E+03 -0.69545944070E+03  0.76214194942E+03  0.97244500198E+02 0.  0.
          3    1    3    3  502    0  0.40943806301E+02 -0.44489779628E+02 -0.19742052754E+02  0.63604122608E+02  0.00000000000E+00 0. -1.
         -4    1    3    3    0  502  0.18916771430E+03 -0.27113191523E+02 -0.48717778071E+01  0.19116297630E+03  0.00000000000E+00 0.  1.
         11    1    5    5    0    0 -0.28323646172E+03 -0.94935036335E+02 -0.15391168373E+03  0.33604220087E+03  0.00000000000E+00 0. -1.
        -11    1    5    5    0    0 -0.17867544567E+03 -0.17876214534E+02 -0.30175057127E+02  0.18208516690E+03  0.00000000000E+00 0.  1.
          2    1    6    6  503    0  0.17158026412E+03  0.10917049518E+03 -0.36402477425E+03  0.41697964017E+03  0.00000000000E+00 0. -1.
         -2    1    6    6    0  503  0.60220122671E+02  0.75243726839E+02 -0.33143466645E+03  0.34516230925E+03  0.00000000000E+00 0.  1.
<mgrwt>
<rscale>  0 0.12404965E+04</rscale>
<asrwt>0</asrwt>
<pdfrwt beam="1">  1        1 0.18763049E+00 0.12404965E+04</pdfrwt>
<pdfrwt beam="2">  1       -2 0.48528955E-01 0.12404965E+04</pdfrwt>
<totfact> 0.35983743E+01</totfact>
</mgrwt>
</event>
<event>
12    4  0.4207946E-008  0.3052272E+04  0.7818608E-02  0.8228960E-01
          1   -1    0    0  501    0  0.00000000000E+00  0.00000000000E+00  0.18427809938E+04  0.18427809938E+04  0.00000000000E+00 0. -1.
         -2   -1    0    0    0  501 -0.00000000000E+00 -0.00000000000E+00 -0.12639001368E+04  0.12639001368E+04  0.00000000000E+00 0.  1.
        -24    2    1    2    0    0  0.12999369317E+04 -0.48125528824E+03  0.38475667486E+03  0.14407460973E+04  0.79176633591E+02 0.  0.
        254    2    1    2    0    0 -0.12999369317E+04  0.48125528824E+03  0.19412418221E+03  0.16659350333E+04  0.90344488386E+03 0.  0.
         23    2    4    4    0    0 -0.55719952382E+03  0.61344335051E+03  0.32661705634E+03  0.89542913127E+03  0.91271978224E+02 0.  0.
         23    2    4    4    0    0 -0.74273740786E+03 -0.13218806227E+03 -0.13249287413E+03  0.77050590201E+03  0.83620825681E+02 0.  0.
          1    1    3    3  502    0  0.10588129914E+04 -0.37314102821E+03  0.33774577492E+03  0.11723443974E+04  0.00000000000E+00 0. -1.
         -2    1    3    3    0  502  0.24112394028E+03 -0.10811426004E+03  0.47010899942E+02  0.26840169991E+03  0.00000000000E+00 0.  1.
         11    1    5    5    0    0 -0.27102610710E+03  0.26945528331E+03  0.10641223126E+03  0.39671761166E+03  0.00000000000E+00 0. -1.
        -11    1    5    5    0    0 -0.28617341672E+03  0.34398806720E+03  0.22020482508E+03  0.49871151961E+03  0.00000000000E+00 0.  1.
          3    1    6    6  503    0 -0.51019701350E+03 -0.12550405561E+03 -0.73656283021E+02  0.53054453969E+03  0.00000000000E+00 0. -1.
         -3    1    6    6    0  503 -0.23254039436E+03 -0.66840066604E+01 -0.58836591110E+02  0.23996136232E+03  0.00000000000E+00 0.  1.
<mgrwt>
<rscale>  0 0.30522720E+04</rscale>
<asrwt>0</asrwt>
<pdfrwt beam="1">  1        1 0.28350477E+00 0.30522720E+04</pdfrwt>
<pdfrwt beam="2">  1       -2 0.19444617E+00 0.30522720E+04</pdfrwt>
<totfact> 0.41070054E-01</totfact>
</mgrwt>
</event>
<event>
12    4  0.4207946E-008  0.2449139E+04  0.7818608E-02  0.8421332E-01
          1   -1    0    0  501    0  0.00000000000E+00  0.00000000000E+00  0.18206493389E+04  0.18206493389E+04  0.00000000000E+00 0. -1.
         -2   -1    0    0    0  501 -0.00000000000E+00 -0.00000000000E+00 -0.82364608296E+03  0.82364608296E+03  0.00000000000E+00 0.  1.
        -24    2    1    2    0    0  0.27225723485E+03 -0.53652359005E+03 -0.50977677865E+03  0.79272654239E+03  0.81002730512E+02 0.  0.
        254    2    1    2    0    0 -0.27225723485E+03  0.53652359005E+03  0.15067800346E+04  0.18515688795E+04  0.89215451474E+03 0.  0.
         23    2    4    4    0    0 -0.85737805780E+02 -0.20978000646E+03  0.14436762256E+03  0.28428494227E+03  0.92829389256E+02 0.  0.
         23    2    4    4    0    0 -0.18651942907E+03  0.74630359651E+03  0.13624124121E+04  0.15672839372E+04  0.91939130681E+02 0.  0.
          3    1    3    3  502    0  0.10988512883E+03 -0.19170539387E+03 -0.13933754933E+03  0.26122911826E+03  0.00000000000E+00 0. -1.
         -4    1    3    3    0  502  0.16237210602E+03 -0.34481819619E+03 -0.37043922933E+03  0.53149742413E+03  0.00000000000E+00 0.  1.
         11    1    5    5    0    0 -0.91100887116E+02 -0.21509705686E+03  0.12824790254E+03  0.26648384568E+03  0.00000000000E+00 0.  1.
        -11    1    5    5    0    0  0.53630813354E+01  0.53170504022E+01  0.16119720015E+02  0.17801096589E+02  0.00000000000E+00 0. -1.
          4    1    6    6  503    0  0.38938968078E+01  0.33221276364E+02  0.34566700494E+02  0.48100648839E+02  0.00000000000E+00 0.  1.
         -4    1    6    6    0  503 -0.19041332588E+03  0.71308232015E+03  0.13278457116E+04  0.15191832884E+04  0.00000000000E+00 0. -1.
<mgrwt>
<rscale>  0 0.24491392E+04</rscale>
<asrwt>0</asrwt>
<pdfrwt beam="1">  1        1 0.28009990E+00 0.24491392E+04</pdfrwt>
<pdfrwt beam="2">  1       -2 0.12671478E+00 0.24491392E+04</pdfrwt>
<totfact> 0.14326581E+00</totfact>
</mgrwt>
</event>
<event>
12    4  0.4207946E-008  0.1216968E+04  0.7818608E-02  0.9098133E-01
         -2   -1    0    0    0  501 -0.00000000000E+00  0.00000000000E+00  0.94001820755E+03  0.94001820755E+03  0.00000000000E+00 0.  1.
          1   -1    0    0  501    0  0.00000000000E+00 -0.00000000000E+00 -0.39387808063E+03  0.39387808063E+03  0.00000000000E+00 0. -1.
        -24    2    1    2    0    0 -0.13131797617E+03  0.19644837876E+03  0.23481338487E+00  0.24967660499E+03  0.80634828458E+02 0.  0.
        254    2    1    2    0    0  0.13131797617E+03 -0.19644837876E+03  0.54590531354E+03  0.10842196832E+04  0.90646750282E+03 0.  0.
         23    2    4    4    0    0 -0.13903520190E+03 -0.27318687992E+03 -0.13117948345E+03  0.34623635773E+03  0.93325772468E+02 0.  0.
         23    2    4    4    0    0  0.27035317808E+03  0.76738501159E+02  0.67708479698E+03  0.73798332546E+03  0.84828815226E+02 0.  0.
          3    1    3    3  502    0 -0.10183822619E+03  0.97573044634E+02 -0.25535864489E+02  0.14333040057E+03  0.00000000000E+00 0. -1.
         -4    1    3    3    0  502 -0.29479749988E+02  0.98875334124E+02  0.25770677874E+02  0.10634620442E+03  0.00000000000E+00 0.  1.
         11    1    5    5    0    0 -0.60425796266E+02 -0.20832829639E+03 -0.10512701886E+03  0.24104697887E+03  0.00000000000E+00 0.  1.
        -11    1    5    5    0    0 -0.78609405639E+02 -0.64858583531E+02 -0.26052464587E+02  0.10518937885E+03  0.00000000000E+00 0. -1.
          2    1    6    6  503    0  0.78165906678E+02 -0.28523542032E+01  0.11912579110E+03  0.14250964528E+03  0.00000000000E+00 0. -1.
         -2    1    6    6    0  503  0.19218727140E+03  0.79590855362E+02  0.55795900588E+03  0.59547368018E+03  0.00000000000E+00 0.  1.
<mgrwt>
<rscale>  0 0.12169677E+04</rscale>
<asrwt>0</asrwt>
<pdfrwt beam="1">  1        1 0.60596628E-01 0.12169677E+04</pdfrwt>
<pdfrwt beam="2">  1       -2 0.14461819E+00 0.12169677E+04</pdfrwt>
<totfact> 0.17435288E+01</totfact>
</mgrwt>
</event>
<event>
12    4  0.4207946E-008  0.1936875E+04  0.7818608E-02  0.8636716E-01
          1   -1    0    0  501    0  0.00000000000E+00  0.00000000000E+00  0.14035319509E+04  0.14035319509E+04  0.00000000000E+00 0. -1.
         -2   -1    0    0    0  501 -0.00000000000E+00 -0.00000000000E+00 -0.66822191568E+03  0.66822191568E+03  0.00000000000E+00 0.  1.
        -24    2    1    2    0    0  0.61840032758E+03 -0.18215076515E+03  0.73103134861E+03  0.97739736877E+03  0.72807399632E+02 0.  0.
        254    2    1    2    0    0 -0.61840032758E+03  0.18215076515E+03  0.42786866396E+01  0.10943564978E+04  0.88430762228E+03 0.  0.
         23    2    4    4    0    0 -0.45243832290E+03 -0.93076582009E+02 -0.36584875324E+03  0.59638878540E+03  0.92035791710E+02 0.  0.
         23    2    4    4    0    0 -0.16596200467E+03  0.27522734716E+03  0.37012743988E+03  0.49796771245E+03  0.87658663399E+02 0.  0.
          3    1    3    3  502    0  0.56031248796E+03 -0.16837151763E+03  0.69148597400E+03  0.90578800188E+03  0.00000000000E+00 0. -1.
         -4    1    3    3    0  502  0.58087839615E+02 -0.13779247519E+02  0.39545374609E+02  0.71609366889E+02  0.00000000000E+00 0.  1.
         11    1    5    5    0    0 -0.66170463246E+02 -0.44883377828E+02 -0.43750637924E+02  0.91143656555E+02  0.00000000000E+00 0.  1.
        -11    1    5    5    0    0 -0.38626785966E+03 -0.48193204182E+02 -0.32209811531E+03  0.50524512884E+03  0.00000000000E+00 0. -1.
          2    1    6    6  503    0 -0.90763213100E+02  0.15883117526E+03  0.14423280369E+03  0.23295579999E+03  0.00000000000E+00 0. -1.
         -2    1    6    6    0  503 -0.75198791574E+02  0.11639617189E+03  0.22589463619E+03  0.26501191246E+03  0.00000000000E+00 0.  1.
<mgrwt>
<rscale>  0 0.19368746E+04</rscale>
<asrwt>0</asrwt>
<pdfrwt beam="1">  1        1 0.21592799E+00 0.19368746E+04</pdfrwt>
<pdfrwt beam="2">  1       -2 0.10280337E+00 0.19368746E+04</pdfrwt>
<totfact> 0.48350452E+00</totfact>
</mgrwt>
</event>
<event>
12    4  0.4207946E-008  0.1188644E+04  0.7818608E-02  0.9122855E-01
         -2   -1    0    0    0  501 -0.00000000000E+00  0.00000000000E+00  0.20759326364E+03  0.20759326364E+03  0.00000000000E+00 0.  1.
          1   -1    0    0  501    0  0.00000000000E+00 -0.00000000000E+00 -0.17014930788E+04  0.17014930788E+04  0.00000000000E+00 0. -1.
        -24    2    1    2    0    0 -0.83980826565E+02 -0.23797974810E+03 -0.39313643444E+03  0.47403332935E+03  0.80400258151E+02 0.  0.
        254    2    1    2    0    0  0.83980826565E+02  0.23797974810E+03 -0.11007633807E+04  0.14350530131E+04  0.88544338627E+03 0.  0.
         23    2    4    4    0    0  0.20209999392E+03  0.34055138514E+03 -0.99461773944E+02  0.41769367161E+03  0.88066482599E+02 0.  0.
         23    2    4    4    0    0 -0.11811916736E+03 -0.10257163704E+03 -0.10013016068E+04  0.10173593415E+04  0.89118143723E+02 0.  0.
          1    1    3    3  502    0 -0.97824219914E+02 -0.17647195575E+03 -0.29588593410E+03  0.35813463274E+03  0.00000000000E+00 0. -1.
         -2    1    3    3    0  502  0.13843393348E+02 -0.61507792358E+02 -0.97250500341E+02  0.11589869661E+03  0.00000000000E+00 0.  1.
         11    1    5    5    0    0  0.10285612237E+02  0.56431028092E+02  0.91622919533E+01  0.58087884661E+02  0.00000000000E+00 0. -1.
        -11    1    5    5    0    0  0.19181438168E+03  0.28412035705E+03 -0.10862406590E+03  0.35960578695E+03  0.00000000000E+00 0.  1.
          3    1    6    6  503    0  0.10050230211E+02  0.48883836784E+01 -0.36688484187E+02  0.38352943749E+02  0.00000000000E+00 0. -1.
         -3    1    6    6    0  503 -0.12816939757E+03 -0.10746002072E+03 -0.96461312258E+03  0.97900639772E+03  0.00000000000E+00 0.  1.
<mgrwt>
<rscale>  0 0.11886438E+04</rscale>
<asrwt>0</asrwt>
<pdfrwt beam="1">  1        1 0.26176817E+00 0.11886438E+04</pdfrwt>
<pdfrwt beam="2">  1       -2 0.31937425E-01 0.11886438E+04</pdfrwt>
<totfact> 0.37704744E+01</totfact>
</mgrwt>
</event>
<event>
12    4  0.4207946E-008  0.2465966E+04  0.7818608E-02  0.8415212E-01
          1   -1    0    0  501    0  0.00000000000E+00  0.00000000000E+00  0.11272060265E+04  0.11272060265E+04  0.00000000000E+00 0. -1.
         -2   -1    0    0    0  501 -0.00000000000E+00 -0.00000000000E+00 -0.13486863014E+04  0.13486863014E+04  0.00000000000E+00 0.  1.
        -24    2    1    2    0    0  0.33559408922E+03 -0.86892494745E+03  0.42501517544E+03  0.10267761195E+04  0.77313279977E+02 0.  0.
        254    2    1    2    0    0 -0.33559408922E+03  0.86892494745E+03 -0.64649545029E+03  0.14491162084E+04  0.90240094259E+03 0.  0.
         23    2    4    4    0    0 -0.19522554112E+02  0.81971596285E+03 -0.13082221367E+03  0.83527764917E+03  0.90878543872E+02 0.  0.
         23    2    4    4    0    0 -0.31607153511E+03  0.49208984598E+02 -0.51567323661E+03  0.61383855923E+03  0.92499461491E+02 0.  0.
          3    1    3    3  502    0  0.33765074935E+03 -0.83849841627E+03  0.40674456406E+03  0.99122588900E+03  0.00000000000E+00 0. -1.
         -4    1    3    3    0  502 -0.20566601366E+01 -0.30426531179E+02  0.18270611385E+02  0.35550230532E+02  0.00000000000E+00 0.  1.
         11    1    5    5    0    0  0.26764281400E+02  0.16021433251E+03 -0.64890820028E+01  0.16256404057E+03  0.00000000000E+00 0.  1.
        -11    1    5    5    0    0 -0.46286835511E+02  0.65950163034E+03 -0.12433313167E+03  0.67271360860E+03  0.00000000000E+00 0. -1.
          1    1    6    6  503    0 -0.31411774696E+03  0.41971498790E+02 -0.46566837357E+03  0.56327488831E+03  0.00000000000E+00 0. -1.
         -1    1    6    6    0  503 -0.19537881502E+01  0.72374858071E+01 -0.50004863045E+02  0.50563670922E+02  0.00000000000E+00 0.  1.
<mgrwt>
<rscale>  0 0.24659662E+04</rscale>
<asrwt>0</asrwt>
<pdfrwt beam="1">  1        1 0.17341631E+00 0.24659662E+04</pdfrwt>
<pdfrwt beam="2">  1       -2 0.20749020E+00 0.24659662E+04</pdfrwt>
<totfact> 0.11237647E+00</totfact>
</mgrwt>
</event>
<event>
12    4  0.4207946E-008  0.2206477E+04  0.7818608E-02  0.8515737E-01
         -2   -1    0    0    0  501 -0.00000000000E+00  0.00000000000E+00  0.45477264952E+03  0.45477264952E+03  0.00000000000E+00 0.  1.
          1   -1    0    0  501    0  0.00000000000E+00 -0.00000000000E+00 -0.26763599668E+04  0.26763599668E+04  0.00000000000E+00 0. -1.
        -24    2    1    2    0    0  0.27729314502E+02  0.88636874125E+03 -0.58134183504E+03  0.10634293789E+04  0.80655157815E+02 0.  0.
        254    2    1    2    0    0 -0.27729314502E+02 -0.88636874125E+03 -0.16402454822E+04  0.20677032373E+04  0.89362910396E+03 0.  0.
         23    2    4    4    0    0  0.41676091779E+03 -0.36580875504E+03 -0.63414025068E+03  0.84738479566E+03  0.91768330671E+02 0.  0.
         23    2    4    4    0    0 -0.44449023230E+03 -0.52055998622E+03 -0.10061052315E+04  0.12203184417E+04  0.91515552503E+02 0.  0.
          3    1    3    3  502    0  0.16029173046E+02  0.65840866843E+03 -0.47238710373E+03  0.81049891105E+03  0.00000000000E+00 0. -1.
         -4    1    3    3    0  502  0.11700141455E+02  0.22796007282E+03 -0.10895473131E+03  0.25293046789E+03  0.00000000000E+00 0.  1.
         11    1    5    5    0    0  0.32525660546E+03 -0.28847324770E+03 -0.54955181450E+03  0.70072524634E+03  0.00000000000E+00 0. -1.
        -11    1    5    5    0    0  0.91504312333E+02 -0.77335507339E+02 -0.84588436177E+02  0.14665954932E+03  0.00000000000E+00 0.  1.
          2    1    6    6  503    0 -0.13786732829E+03 -0.10520101673E+03 -0.22653534944E+03  0.28529444207E+03  0.00000000000E+00 0.  1.
         -2    1    6    6    0  503 -0.30662290401E+03 -0.41535896949E+03 -0.77956988208E+03  0.93502399961E+03  0.00000000000E+00 0. -1.
<mgrwt>
<rscale>  0 0.22064771E+04</rscale>
<asrwt>0</asrwt>
<pdfrwt beam="1">  1        1 0.41174769E+00 0.22064771E+04</pdfrwt>
<pdfrwt beam="2">  1       -2 0.69965023E-01 0.22064771E+04</pdfrwt>
<totfact> 0.15200805E+00</totfact>
</mgrwt>
</event>
<event>
12    4  0.4207946E-008  0.2562007E+04  0.7818608E-02  0.8381222E-01
          1   -1    0    0  501    0  0.00000000000E+00  0.00000000000E+00  0.12594301645E+04  0.12594301645E+04  0.00000000000E+00 0. -1.
         -2   -1    0    0    0  501 -0.00000000000E+00 -0.00000000000E+00 -0.13029465306E+04  0.13029465306E+04  0.00000000000E+00 0.  1.
        -24    2    1    2    0    0  0.79094092043E+03  0.21463906154E+03  0.74129140170E+03  0.11080073774E+04  0.80684198370E+02 0.  0.
        254    2    1    2    0    0 -0.79094092043E+03 -0.21463906154E+03 -0.78480776779E+03  0.14543693176E+04  0.90973040688E+03 0.  0.
         23    2    4    4    0    0 -0.25414553197E+02  0.25418751850E+03 -0.20325847770E+02  0.27165626352E+03  0.90148717968E+02 0.  0.
         23    2    4    4    0    0 -0.76552636723E+03 -0.46882658003E+03 -0.76448192002E+03  0.11827130541E+04  0.92458537348E+02 0.  0.
          1    1    3    3  502    0  0.57930346108E+03  0.15278772961E+03  0.49239001361E+03  0.77548985541E+03  0.00000000000E+00 0. -1.
         -2    1    3    3    0  502  0.21163745935E+03  0.61851331924E+02  0.24890138809E+03  0.33251752203E+03  0.00000000000E+00 0.  1.
         11    1    5    5    0    0 -0.20796213635E+02  0.22936900049E+03 -0.46863409306E+02  0.23502935990E+03  0.00000000000E+00 0. -1.
        -11    1    5    5    0    0 -0.46183395618E+01  0.24818518010E+02  0.26537561536E+02  0.36626903620E+02  0.00000000000E+00 0.  1.
          3    1    6    6  503    0 -0.47856182568E+03 -0.32893970833E+03 -0.45079169046E+03  0.73514345601E+03  0.00000000000E+00 0. -1.
         -3    1    6    6    0  503 -0.28696454155E+03 -0.13988687170E+03 -0.31369022956E+03  0.44756959805E+03  0.00000000000E+00 0.  1.
<mgrwt>
<rscale>  0 0.25620072E+04</rscale>
<asrwt>0</asrwt>
<pdfrwt beam="1">  1        1 0.19375849E+00 0.25620072E+04</pdfrwt>
<pdfrwt beam="2">  1       -2 0.20045331E+00 0.25620072E+04</pdfrwt>
<totfact> 0.99094618E-01</totfact>
</mgrwt>
</event>
<event>
12    4  0.4207946E-008  0.1389816E+04  0.7818608E-02  0.8961223E-01
          1   -1    0    0  501    0  0.00000000000E+00  0.00000000000E+00  0.67680059417E+03  0.67680059417E+03  0.00000000000E+00 0. -1.
         -2   -1    0    0    0  501 -0.00000000000E+00 -0.00000000000E+00 -0.71350024978E+03  0.71350024978E+03  0.00000000000E+00 0.  1.
        -24    2    1    2    0    0 -0.35209114146E+03 -0.96660992580E+02 -0.98254083739E+02  0.38668041740E+03  0.80971358174E+02 0.  0.
        254    2    1    2    0    0  0.35209114146E+03  0.96660992580E+02  0.61554428137E+02  0.10036204266E+04  0.93282018288E+03 0.  0.
         23    2    4    4    0    0  0.65914723355E+03  0.12565616065E+03  0.28798925263E+01  0.67684679700E+03  0.88593152230E+02 0.  0.
         23    2    4    4    0    0 -0.30705609209E+03 -0.28995168073E+02  0.58674535611E+02  0.32677362956E+03  0.90631894963E+02 0.  0.
          3    1    3    3  502    0 -0.20320475677E+03 -0.58445219625E+02 -0.97804004493E+02  0.23296703665E+03  0.00000000000E+00 0. -1.
         -4    1    3    3    0  502 -0.14888638469E+03 -0.38215772955E+02 -0.45007924564E+00  0.15371338074E+03  0.00000000000E+00 0.  1.
         11    1    5    5    0    0  0.10320310261E+03  0.44210038689E+02 -0.22037460165E+02  0.11441615952E+03  0.00000000000E+00 0. -1.
        -11    1    5    5    0    0  0.55594413093E+03  0.81446121964E+02  0.24917352691E+02  0.56243063747E+03  0.00000000000E+00 0.  1.
          1    1    6    6  503    0 -0.25252980284E+03 -0.57935909367E+02  0.39168710771E+02  0.26203446113E+03  0.00000000000E+00 0. -1.
         -1    1    6    6    0  503 -0.54526289248E+02  0.28940741294E+02  0.19505824840E+02  0.64739168426E+02  0.00000000000E+00 0.  1.
<mgrwt>
<rscale>  0 0.13898164E+04</rscale>
<asrwt>0</asrwt>
<pdfrwt beam="1">  1        1 0.10412317E+00 0.13898164E+04</pdfrwt>
<pdfrwt beam="2">  1       -2 0.10976927E+00 0.13898164E+04</pdfrwt>
<totfact> 0.16174647E+01</totfact>
</mgrwt>
</event>
<event>
12    4  0.4861975E-008  0.2206127E+04  0.7818608E-02  0.8515882E-01
         -2   -1    0    0    0  501 -0.00000000000E+00  0.00000000000E+00  0.76767408038E+03  0.76767408038E+03  0.00000000000E+00 0.  1.
          1   -1    0    0  501    0  0.00000000000E+00 -0.00000000000E+00 -0.15849815683E+04  0.15849815683E+04  0.00000000000E+00 0. -1.
        -24    2    1    2    0    0 -0.49495058738E+02 -0.54034934707E+03  0.43716637440E+03  0.70134931089E+03  0.79682113802E+02 0.  0.
        254    2    1    2    0    0  0.49495058738E+02  0.54034934707E+03 -0.12544738623E+04  0.16513063378E+04  0.92665029667E+03 0.  0.
         23    2    4    4    0    0  0.34253086768E+03  0.48959134238E+03 -0.35610028789E+03  0.70065975455E+03  0.84199755166E+02 0.  0.
         23    2    4    4    0    0 -0.29303580894E+03  0.50758004688E+02 -0.89837357444E+03  0.95064658327E+03  0.90595180095E+02 0.  0.
          3    1    3    3  502    0 -0.23575983692E+02 -0.37582159431E+02  0.45027863833E+02  0.63211978579E+02  0.00000000000E+00 0. -1.
         -4    1    3    3    0  502 -0.25919075046E+02 -0.50276718764E+03  0.39213851056E+03  0.63813733231E+03  0.00000000000E+00 0.  1.
         11    1    5    5    0    0  0.13361736670E+02  0.61392885674E+02 -0.28680683222E+02  0.69066663509E+02  0.00000000000E+00 0.  1.
        -11    1    5    5    0    0  0.32916913101E+03  0.42819845671E+03 -0.32741960467E+03  0.63159309104E+03  0.00000000000E+00 0. -1.
          2    1    6    6  503    0 -0.37509806587E+02 -0.12225269135E+02 -0.58936429548E+02  0.70922108848E+02  0.00000000000E+00 0.  1.
         -2    1    6    6    0  503 -0.25552600235E+03  0.62983273823E+02 -0.83943714490E+03  0.87972447442E+03  0.00000000000E+00 0. -1.
<mgrwt>
<rscale>  0 0.22061272E+04</rscale>
<asrwt>0</asrwt>
<pdfrwt beam="1">  1        1 0.24384331E+00 0.22061272E+04</pdfrwt>
<pdfrwt beam="2">  1       -2 0.11810371E+00 0.22061272E+04</pdfrwt>
<totfact> 0.25256200E+00</totfact>
</mgrwt>
</event>
<event>
12    4  0.4207946E-008  0.1967542E+04  0.7818608E-02  0.8621948E-01
          1   -1    0    0  501    0  0.00000000000E+00  0.00000000000E+00  0.87796882327E+03  0.87796882327E+03  0.00000000000E+00 0. -1.
         -2   -1    0    0    0  501 -0.00000000000E+00 -0.00000000000E+00 -0.11023227031E+04  0.11023227031E+04  0.00000000000E+00 0.  1.
        -24    2    1    2    0    0  0.35508948735E+03 -0.14773323871E+03 -0.76543959527E+03  0.86156567042E+03  0.92108504416E+02 0.  0.
        254    2    1    2    0    0 -0.35508948735E+03  0.14773323871E+03  0.54108571547E+03  0.11187258559E+04  0.90047772619E+03 0.  0.
         23    2    4    4    0    0 -0.30749880933E+03 -0.10133602970E+03  0.72105933838E+03  0.79515630585E+03  0.86732189011E+02 0.  0.
         23    2    4    4    0    0 -0.47590678027E+02  0.24906926842E+03 -0.17997362291E+03  0.32356955007E+03  0.89478353138E+02 0.  0.
          3    1    3    3  502    0  0.15448392057E+02  0.58762740698E+01 -0.10415235884E+02  0.19536134536E+02  0.00000000000E+00 0. -1.
         -4    1    3    3    0  502  0.33964109530E+03 -0.15360951278E+03 -0.75502435938E+03  0.84202953588E+03  0.00000000000E+00 0.  1.
         11    1    5    5    0    0 -0.91455514991E+02 -0.73500318871E+02  0.24803947925E+03  0.27439021732E+03  0.00000000000E+00 0. -1.
        -11    1    5    5    0    0 -0.21604329434E+03 -0.27835710834E+02  0.47301985914E+03  0.52076608853E+03  0.00000000000E+00 0.  1.
          2    1    6    6  503    0 -0.59245711197E+02  0.24136825077E+03 -0.18376745279E+03  0.30909410133E+03  0.00000000000E+00 0.  1.
         -2    1    6    6    0  503  0.11655033170E+02  0.77010176492E+01  0.37938298706E+01  0.14475448736E+02  0.00000000000E+00 0. -1.
<mgrwt>
<rscale>  0 0.19675416E+04</rscale>
<asrwt>0</asrwt>
<pdfrwt beam="1">  1        1 0.13507213E+00 0.19675416E+04</pdfrwt>
<pdfrwt beam="2">  1       -2 0.16958811E+00 0.19675416E+04</pdfrwt>
<totfact> 0.33182379E+00</totfact>
</mgrwt>
</event>
<event>
12    4  0.4207946E-008  0.1188272E+04  0.7818608E-02  0.9123184E-01
          1   -1    0    0  501    0  0.00000000000E+00  0.00000000000E+00  0.16471213714E+04  0.16471213714E+04  0.00000000000E+00 0. -1.
         -2   -1    0    0    0  501 -0.00000000000E+00 -0.00000000000E+00 -0.21431185843E+03  0.21431185843E+03  0.00000000000E+00 0.  1.
        -24    2    1    2    0    0 -0.44197427250E+02  0.22321088466E+03  0.47804299478E+03  0.53571894487E+03  0.81811804907E+02 0.  0.
        254    2    1    2    0    0  0.44197427250E+02 -0.22321088466E+03  0.95476651816E+03  0.13257142849E+04  0.89115809454E+03 0.  0.
         23    2    4    4    0    0 -0.16033492187E+03 -0.43551535292E+03  0.20612429250E+03  0.51596351769E+03  0.91379526324E+02 0.  0.
         23    2    4    4    0    0  0.20453234912E+03  0.21230446826E+03  0.74864222566E+03  0.80975076724E+03  0.91238445458E+02 0.  0.
          3    1    3    3  502    0 -0.67874369199E+02  0.17867071045E+03  0.38753830284E+03  0.43210657127E+03  0.00000000000E+00 0. -1.
         -4    1    3    3    0  502  0.23676941948E+02  0.44540174210E+02  0.90504691941E+02  0.10361237360E+03  0.00000000000E+00 0.  1.
         11    1    5    5    0    0 -0.11320337411E+02 -0.64863530536E+01 -0.63949595619E+01  0.14529911315E+02  0.00000000000E+00 0. -1.
        -11    1    5    5    0    0 -0.14901458446E+03 -0.42902899986E+03  0.21251925207E+03  0.50143360638E+03  0.00000000000E+00 0.  1.
          4    1    6    6  503    0  0.14367738185E+03  0.83845981284E+02  0.41386768519E+03  0.44604909985E+03  0.00000000000E+00 0. -1.
         -4    1    6    6    0  503  0.60854967271E+02  0.12845848697E+03  0.33477454046E+03  0.36370166739E+03  0.00000000000E+00 0.  1.
<mgrwt>
<rscale>  0 0.11882721E+04</rscale>
<asrwt>0</asrwt>
<pdfrwt beam="1">  1        1 0.25340328E+00 0.11882721E+04</pdfrwt>
<pdfrwt beam="2">  1       -2 0.32971056E-01 0.11882721E+04</pdfrwt>
<totfact> 0.38664515E+01</totfact>
</mgrwt>
</event>
<event>
12    4  0.4207946E-008  0.1991404E+04  0.7818608E-02  0.8610650E-01
          1   -1    0    0  501    0  0.00000000000E+00  0.00000000000E+00  0.11510031325E+04  0.11510031325E+04  0.00000000000E+00 0. -1.
         -2   -1    0    0    0  501 -0.00000000000E+00 -0.00000000000E+00 -0.86135525628E+03  0.86135525628E+03  0.00000000000E+00 0.  1.
        -24    2    1    2    0    0 -0.62132451290E+03 -0.44852003796E+03  0.30690647587E+03  0.82905350743E+03  0.76965956563E+02 0.  0.
        254    2    1    2    0    0  0.62132451290E+03  0.44852003796E+03 -0.17258599655E+02  0.11833048813E+04  0.90149775828E+03 0.  0.
         23    2    4    4    0    0 -0.13438403570E+03  0.31135107983E+03 -0.17766519614E+03  0.39350279572E+03  0.90999804160E+02 0.  0.
         23    2    4    4    0    0  0.75570854859E+03  0.13716895813E+03  0.16040659648E+03  0.78980208563E+03  0.90256992976E+02 0.  0.
          3    1    3    3  502    0 -0.16960313847E+03 -0.90238493300E+02  0.99277504627E+02  0.21625039463E+03  0.00000000000E+00 0. -1.
         -4    1    3    3    0  502 -0.45172137443E+03 -0.35828154466E+03  0.20762897125E+03  0.61280311280E+03  0.00000000000E+00 0.  1.
         11    1    5    5    0    0 -0.10459050804E+03  0.23410919890E+03 -0.87100674651E+02  0.27080033033E+03  0.00000000000E+00 0.  1.
        -11    1    5    5    0    0 -0.29793527650E+02  0.77241880930E+02 -0.90564521489E+02  0.12270246539E+03  0.00000000000E+00 0. -1.
          2    1    6    6  503    0  0.22094192694E+03 -0.76963611125E-01  0.55843562990E+02  0.22788998339E+03  0.00000000000E+00 0. -1.
         -2    1    6    6    0  503  0.53476662166E+03  0.13724592174E+03  0.10456303349E+03  0.56191210224E+03  0.00000000000E+00 0.  1.
<mgrwt>
<rscale>  0 0.19914041E+04</rscale>
<asrwt>0</asrwt>
<pdfrwt beam="1">  1        1 0.17707740E+00 0.19914041E+04</pdfrwt>
<pdfrwt beam="2">  1       -2 0.13251619E+00 0.19914041E+04</pdfrwt>
<totfact> 0.39111252E+00</totfact>
</mgrwt>
</event>
<event>
12    4  0.4207946E-008  0.1687127E+04  0.7818608E-02  0.8768741E-01
         -2   -1    0    0    0  501 -0.00000000000E+00  0.00000000000E+00  0.11468533832E+04  0.11468533832E+04  0.00000000000E+00 0.  1.
          1   -1    0    0  501    0  0.00000000000E+00 -0.00000000000E+00 -0.62047960976E+03  0.62047960976E+03  0.00000000000E+00 0. -1.
        -24    2    1    2    0    0 -0.53117401976E+03  0.28062807080E+03  0.20784796697E+03  0.64067688977E+03  0.79800666153E+02 0.  0.
        254    2    1    2    0    0  0.53117401976E+03 -0.28062807080E+03  0.31852580644E+03  0.11266561032E+04  0.89833030232E+03 0.  0.
         23    2    4    4    0    0 -0.71422699307E+02  0.16120052587E+03  0.31700265680E+03  0.37383306172E+03  0.90408307698E+02 0.  0.
         23    2    4    4    0    0  0.60259671907E+03 -0.44182859666E+03  0.15231496437E+01  0.75282304146E+03  0.91678225883E+02 0.  0.
          3    1    3    3  502    0 -0.48614845245E+02  0.49895564602E+02  0.10013243318E+02  0.70379226955E+02  0.00000000000E+00 0. -1.
         -4    1    3    3    0  502 -0.48255917452E+03  0.23073250620E+03  0.19783472365E+03  0.57029766281E+03  0.00000000000E+00 0.  1.
         11    1    5    5    0    0 -0.14811968910E+02  0.76324588755E+02  0.62873929159E+02  0.99989840682E+02  0.00000000000E+00 0. -1.
        -11    1    5    5    0    0 -0.56610730397E+02  0.84875937112E+02  0.25412872764E+03  0.27384322104E+03  0.00000000000E+00 0.  1.
          2    1    6    6  503    0  0.81565027188E+02 -0.79432607710E+02  0.29245794033E+02  0.11754875285E+03  0.00000000000E+00 0. -1.
         -2    1    6    6    0  503  0.52103169188E+03 -0.36239598895E+03 -0.27722644389E+02  0.63527428861E+03  0.00000000000E+00 0.  1.
<mgrwt>
<rscale>  0 0.16871267E+04</rscale>
<asrwt>0</asrwt>
<pdfrwt beam="1">  1        1 0.95458402E-01 0.16871267E+04</pdfrwt>
<pdfrwt beam="2">  1       -2 0.17643898E+00 0.16871267E+04</pdfrwt>
<totfact> 0.52167997E+00</totfact>
</mgrwt>
</event>
<event>
12    4  0.4207946E-008  0.1333122E+04  0.7818608E-02  0.9003704E-01
         -2   -1    0    0    0  501 -0.00000000000E+00  0.00000000000E+00  0.71591787266E+03  0.71591787266E+03  0.00000000000E+00 0.  1.
          1   -1    0    0  501    0  0.00000000000E+00 -0.00000000000E+00 -0.62060674391E+03  0.62060674391E+03  0.00000000000E+00 0. -1.
        -24    2    1    2    0    0  0.29147487817E+03  0.19280576120E+03 -0.91407498544E+02  0.37016877570E+03  0.80857439738E+02 0.  0.
        254    2    1    2    0    0 -0.29147487817E+03 -0.19280576120E+03  0.18671862729E+03  0.96635584087E+03  0.88138986791E+03 0.  0.
         23    2    4    4    0    0 -0.24948254959E+03 -0.31908644981E+03  0.47812215015E+03  0.63325017041E+03  0.91363465660E+02 0.  0.
         23    2    4    4    0    0 -0.41992328579E+02  0.12628068861E+03 -0.29140352286E+03  0.33310567046E+03  0.91286398673E+02 0.  0.
          1    1    3    3  502    0  0.29295451801E+03  0.18683021903E+03 -0.79013166269E+02  0.35632984833E+03  0.00000000000E+00 0. -1.
         -2    1    3    3    0  502 -0.14796398448E+01  0.59755421632E+01 -0.12394332275E+02  0.13838927371E+02  0.00000000000E+00 0.  1.
         11    1    5    5    0    0 -0.23027476102E+03 -0.24857103507E+03  0.42142257488E+03  0.54075041531E+03  0.00000000000E+00 0. -1.
        -11    1    5    5    0    0 -0.19207788572E+02 -0.70515414740E+02  0.56699575265E+02  0.92499755097E+02  0.00000000000E+00 0.  1.
          1    1    6    6  503    0 -0.65112576688E+02  0.10113498388E+03 -0.26097054406E+03  0.28735615093E+03  0.00000000000E+00 0. -1.
         -1    1    6    6    0  503  0.23120248110E+02  0.25145704731E+02 -0.30432978796E+02  0.45749519533E+02  0.00000000000E+00 0.  1.
<mgrwt>
<rscale>  0 0.13331218E+04</rscale>
<asrwt>0</asrwt>
<pdfrwt beam="1">  1        1 0.95477960E-01 0.13331218E+04</pdfrwt>
<pdfrwt beam="2">  1       -2 0.11014121E+00 0.13331218E+04</pdfrwt>
<totfact> 0.18317817E+01</totfact>
</mgrwt>
</event>
<event>
12    4  0.4207946E-008  0.1624225E+04  0.7818608E-02  0.8805802E-01
          1   -1    0    0  501    0  0.00000000000E+00  0.00000000000E+00  0.68412764564E+03  0.68412764564E+03  0.00000000000E+00 0. -1.
         -2   -1    0    0    0  501 -0.00000000000E+00 -0.00000000000E+00 -0.96404016322E+03  0.96404016322E+03  0.00000000000E+00 0.  1.
        -24    2    1    2    0    0 -0.57329185983E+02 -0.35656254722E+03  0.35335089802E+03  0.51157406047E+03  0.80172791971E+02 0.  0.
        254    2    1    2    0    0  0.57329185983E+02  0.35656254722E+03 -0.63326341559E+03  0.11365937484E+04  0.87200877847E+03 0.  0.
         23    2    4    4    0    0  0.36790330680E+03 -0.22829798815E+02 -0.48696548384E+03  0.61669218129E+03  0.85438990786E+02 0.  0.
         23    2    4    4    0    0 -0.31057412082E+03  0.37939234603E+03 -0.14629793176E+03  0.51990156711E+03  0.92193914628E+02 0.  0.
          1    1    3    3  502    0 -0.15346436028E+02 -0.27514413668E+03  0.23683779722E+03  0.36336201128E+03  0.00000000000E+00 0. -1.
         -2    1    3    3    0  502 -0.41982749955E+02 -0.81418410538E+02  0.11651310080E+03  0.14821204919E+03  0.00000000000E+00 0.  1.
         11    1    5    5    0    0  0.14340434821E+03 -0.19199526278E+02 -0.12739303782E+03  0.19277555597E+03  0.00000000000E+00 0.  1.
        -11    1    5    5    0    0  0.22449895859E+03 -0.36302725371E+01 -0.35957244602E+03  0.42391662532E+03  0.00000000000E+00 0. -1.
          2    1    6    6  503    0 -0.16417421197E+03  0.26727551155E+03 -0.77654620131E+02  0.32314023423E+03  0.00000000000E+00 0. -1.
         -2    1    6    6    0  503 -0.14639990885E+03  0.11211683449E+03 -0.68643311627E+02  0.19676133288E+03  0.00000000000E+00 0.  1.
<mgrwt>
<rscale>  0 0.16242248E+04</rscale>
<asrwt>0</asrwt>
<pdfrwt beam="1">  1        1 0.10525041E+00 0.16242248E+04</pdfrwt>
<pdfrwt beam="2">  1       -2 0.14831387E+00 0.16242248E+04</pdfrwt>
<totfact> 0.72978917E+00</totfact>
</mgrwt>
</event>
<event>
12    4  0.4207946E-008  0.1579449E+04  0.7818608E-02  0.8833274E-01
         -2   -1    0    0    0  501 -0.00000000000E+00  0.00000000000E+00  0.46307297788E+03  0.46307297788E+03  0.00000000000E+00 0.  1.
          1   -1    0    0  501    0  0.00000000000E+00 -0.00000000000E+00 -0.13467959391E+04  0.13467959391E+04  0.00000000000E+00 0. -1.
        -24    2    1    2    0    0 -0.39750399859E+03  0.26461253941E+03 -0.41488098142E+02  0.48616909706E+03  0.81301314530E+02 0.  0.
        254    2    1    2    0    0  0.39750399859E+03 -0.26461253941E+03 -0.84223486310E+03  0.13236998199E+04  0.90265853111E+03 0.  0.
         23    2    4    4    0    0  0.23246554695E+03 -0.11315310384E+03  0.14204943250E+03  0.30966477770E+03  0.94182683356E+02 0.  0.
         23    2    4    4    0    0  0.16503845164E+03 -0.15145943557E+03 -0.98428429560E+03  0.10140350422E+04  0.96300785026E+02 0.  0.
          3    1    3    3  502    0 -0.40053338770E+03  0.26339861873E+03 -0.44861749448E+02  0.48147523672E+03  0.00000000000E+00 0. -1.
         -4    1    3    3    0  502  0.30293891095E+01  0.12139206777E+01  0.33736513052E+01  0.46938603427E+01  0.00000000000E+00 0.  1.
         11    1    5    5    0    0  0.53667746491E+02  0.79006448797E+01  0.53809486122E+02  0.76407512717E+02  0.00000000000E+00 0. -1.
        -11    1    5    5    0    0  0.17879780046E+03 -0.12105374872E+03  0.88239946375E+02  0.23325726498E+03  0.00000000000E+00 0.  1.
          4    1    6    6  503    0  0.98588735054E+02 -0.12861647976E+03 -0.52608347948E+03  0.55047776062E+03  0.00000000000E+00 0. -1.
         -4    1    6    6    0  503  0.66449716582E+02 -0.22842955809E+02 -0.45820081612E+03  0.46355728163E+03  0.00000000000E+00 0.  1.
<mgrwt>
<rscale>  0 0.15794490E+04</rscale>
<asrwt>0</asrwt>
<pdfrwt beam="1">  1        1 0.20719938E+00 0.15794490E+04</pdfrwt>
<pdfrwt beam="2">  1       -2 0.71241996E-01 0.15794490E+04</pdfrwt>
<totfact> 0.12634296E+01</totfact>
</mgrwt>
</event>
<event>
12    4  0.4207946E-008  0.9315911E+03  0.7818608E-02  0.9386930E-01
          3   -1    0    0  501    0  0.00000000000E+00  0.00000000000E+00  0.15646407827E+04  0.15646407827E+04  0.00000000000E+00 0. -1.
         -4   -1    0    0    0  501 -0.00000000000E+00 -0.00000000000E+00 -0.13866794004E+03  0.13866794004E+03  0.00000000000E+00 0.  1.
        -24    2    1    2    0    0  0.13240781222E+02 -0.13662161259E+03  0.13818520686E+03  0.21049562362E+03  0.79827769930E+02 0.  0.
        254    2    1    2    0    0 -0.13240781222E+02  0.13662161259E+03  0.12877876358E+04  0.14928130991E+04  0.74246425548E+03 0.  0.
         23    2    4    4    0    0 -0.20744548970E+03  0.18956819869E+03  0.12290319199E+04  0.12645691977E+04  0.98214369782E+02 0.  0.
         23    2    4    4    0    0  0.19420470848E+03 -0.52946586095E+02  0.58755715912E+02  0.22824390145E+03  0.90134536241E+02 0.  0.
          1    1    3    3  502    0 -0.33521326964E+02 -0.49479155742E+02  0.56130478985E+02  0.81990834155E+02  0.00000000000E+00 0. -1.
         -2    1    3    3    0  502  0.46762108186E+02 -0.87142456850E+02  0.82054727879E+02  0.12850478946E+03  0.00000000000E+00 0.  1.
         11    1    5    5    0    0 -0.45328196299E+02  0.56653268860E+01  0.11213022432E+03  0.12107819174E+03  0.00000000000E+00 0.  1.
        -11    1    5    5    0    0 -0.16211729340E+03  0.18390287180E+03  0.11169016956E+04  0.11434910059E+04  0.00000000000E+00 0. -1.
          4    1    6    6  503    0  0.10443778644E+03 -0.37421468721E+02 -0.13782467036E+02  0.11179254874E+03  0.00000000000E+00 0. -1.
         -4    1    6    6    0  503  0.89766922044E+02 -0.15525117374E+02  0.72538182948E+02  0.11645135271E+03  0.00000000000E+00 0.  1.
<mgrwt>
<rscale>  0 0.93159114E+03</rscale>
<asrwt>0</asrwt>
<pdfrwt beam="1">  1        3 0.24071395E+00 0.93159114E+03</pdfrwt>
<pdfrwt beam="2">  1       -4 0.21333530E-01 0.93159114E+03</pdfrwt>
<totfact> 0.39624281E+00</totfact>
</mgrwt>
</event>
<event>
12    4  0.4207946E-008  0.1262963E+04  0.7818608E-02  0.9059462E-01
         -2   -1    0    0    0  501 -0.00000000000E+00  0.00000000000E+00  0.38017815176E+03  0.38017815176E+03  0.00000000000E+00 0.  1.
          1   -1    0    0  501    0  0.00000000000E+00 -0.00000000000E+00 -0.10489004338E+04  0.10489004338E+04  0.00000000000E+00 0. -1.
        -24    2    1    2    0    0  0.25432020681E+03  0.50056149696E+01 -0.30575885556E+03  0.40536970777E+03  0.78308993428E+02 0.  0.
        254    2    1    2    0    0 -0.25432020681E+03 -0.50056149696E+01 -0.36296342645E+03  0.10237088777E+04  0.92278577886E+03 0.  0.
         23    2    4    4    0    0 -0.38363589420E+03 -0.32904185593E+03 -0.22659664878E+01  0.51390404384E+03  0.92990265030E+02 0.  0.
         23    2    4    4    0    0  0.12931568739E+03  0.32403624096E+03 -0.36069745996E+03  0.50980483391E+03  0.89868117817E+02 0.  0.
          3    1    3    3  502    0  0.25275773571E+03  0.16705137494E+02 -0.29857729060E+03  0.39155323143E+03  0.00000000000E+00 0. -1.
         -4    1    3    3    0  502  0.15624710996E+01 -0.11699522524E+02 -0.71815649596E+01  0.13816476342E+02  0.00000000000E+00 0.  1.
         11    1    5    5    0    0 -0.31322912576E+03 -0.21745708061E+03  0.95710599418E+01  0.38143370633E+03  0.00000000000E+00 0.  1.
        -11    1    5    5    0    0 -0.70406768445E+02 -0.11158477532E+03 -0.11837026430E+02  0.13247033751E+03  0.00000000000E+00 0. -1.
          1    1    6    6  503    0  0.93046232681E+02  0.22240730600E+03 -0.18612124857E+03  0.30457138793E+03  0.00000000000E+00 0. -1.
         -1    1    6    6    0  503  0.36269454709E+02  0.10162893496E+03 -0.17457621139E+03  0.20523344598E+03  0.00000000000E+00 0.  1.
<mgrwt>
<rscale>  0 0.12629632E+04</rscale>
<asrwt>0</asrwt>
<pdfrwt beam="1">  1        1 0.16136929E+00 0.12629632E+04</pdfrwt>
<pdfrwt beam="2">  1       -2 0.58488949E-01 0.12629632E+04</pdfrwt>
<totfact> 0.32738838E+01</totfact>
</mgrwt>
</event>
<event>
12    4  0.4207946E-008  0.2780221E+04  0.7818608E-02  0.8309435E-01
         -2   -1    0    0    0  501 -0.00000000000E+00  0.00000000000E+00  0.13106793894E+04  0.13106793894E+04  0.00000000000E+00 0.  1.
          1   -1    0    0  501    0  0.00000000000E+00 -0.00000000000E+00 -0.14743558679E+04  0.14743558679E+04  0.00000000000E+00 0. -1.
        -24    2    1    2    0    0  0.60837526273E+03  0.10842108360E+04 -0.62532029987E+02  0.12472588847E+04  0.78172075533E+02 0.  0.
        254    2    1    2    0    0 -0.60837526273E+03 -0.10842108360E+04 -0.10114444856E+03  0.15377763726E+04  0.89938444245E+03 0.  0.
         23    2    4    4    0    0  0.17643323307E+02 -0.35221303529E+02 -0.28218684786E+03  0.29964629229E+03  0.92772066381E+02 0.  0.
         23    2    4    4    0    0 -0.62601858604E+03 -0.10489895325E+04  0.18104239930E+03  0.12381300803E+04  0.88946253445E+02 0.  0.
          1    1    3    3  502    0  0.41811476796E+03  0.75337430996E+03 -0.79176960973E+02  0.86525244943E+03  0.00000000000E+00 0. -1.
         -2    1    3    3    0  502  0.19026049476E+03  0.33083652609E+03  0.16644930986E+02  0.38200643527E+03  0.00000000000E+00 0.  1.
         11    1    5    5    0    0  0.19050728637E+02  0.29591650721E+02 -0.82287180442E+02  0.89497352581E+02  0.00000000000E+00 0. -1.
        -11    1    5    5    0    0 -0.14074053298E+01 -0.64812954250E+02 -0.19989966742E+03  0.21014893971E+03  0.00000000000E+00 0.  1.
          1    1    6    6  503    0 -0.46333647446E+03 -0.83835417100E+03  0.12307510404E+03  0.96574628440E+03  0.00000000000E+00 0. -1.
         -1    1    6    6    0  503 -0.16268211157E+03 -0.21063536152E+03  0.57967295260E+02  0.27238379590E+03  0.00000000000E+00 0.  1.
<mgrwt>
<rscale>  0 0.27802215E+04</rscale>
<asrwt>0</asrwt>
<pdfrwt beam="1">  1        1 0.22682398E+00 0.27802215E+04</pdfrwt>
<pdfrwt beam="2">  1       -2 0.20164298E+00 0.27802215E+04</pdfrwt>
<totfact> 0.67341817E-01</totfact>
</mgrwt>
</event>
<event>
12    4  0.4207946E-008  0.1846298E+04  0.7818608E-02  0.8682059E-01
          1   -1    0    0  501    0  0.00000000000E+00  0.00000000000E+00  0.22471457091E+04  0.22471457091E+04  0.00000000000E+00 0. -1.
         -2   -1    0    0    0  501 -0.00000000000E+00 -0.00000000000E+00 -0.37923851061E+03  0.37923851061E+03  0.00000000000E+00 0.  1.
        -24    2    1    2    0    0  0.25203278929E+03 -0.62939346504E+03  0.47753078261E+03  0.83338454965E+03  0.82689168242E+02 0.  0.
        254    2    1    2    0    0 -0.25203278929E+03  0.62939346504E+03  0.13903764159E+04  0.17929996701E+04  0.90666674049E+03 0.  0.
         23    2    4    4    0    0  0.17115937120E+03  0.40715522589E+03  0.11797079148E+04  0.12628307700E+04  0.89218165568E+02 0.  0.
         23    2    4    4    0    0 -0.42319216049E+03  0.22223823915E+03  0.21066850114E+03  0.53016890013E+03  0.90644391167E+02 0.  0.
          3    1    3    3  502    0  0.22627625926E+03 -0.52801763996E+03  0.43454002925E+03  0.72029758477E+03  0.00000000000E+00 0. -1.
         -4    1    3    3    0  502  0.25756530030E+02 -0.10137582509E+03  0.42990753359E+02  0.11308696488E+03  0.00000000000E+00 0.  1.
         11    1    5    5    0    0  0.43966509318E+02  0.17169140192E+03  0.37464214919E+03  0.41444870779E+03  0.00000000000E+00 0. -1.
        -11    1    5    5    0    0  0.12719286188E+03  0.23546382397E+03  0.80506576558E+03  0.84838206217E+03  0.00000000000E+00 0.  1.
          4    1    6    6  503    0 -0.16874033056E+03  0.48615031732E+02  0.10448813383E+03  0.20433915577E+03  0.00000000000E+00 0. -1.
         -4    1    6    6    0  503 -0.25445182993E+03  0.17362320742E+03  0.10618036731E+03  0.32582974436E+03  0.00000000000E+00 0.  1.
<mgrwt>
<rscale>  0 0.18462981E+04</rscale>
<asrwt>0</asrwt>
<pdfrwt beam="1">  1        1 0.34571472E+00 0.18462981E+04</pdfrwt>
<pdfrwt beam="2">  1       -2 0.58344388E-01 0.18462981E+04</pdfrwt>
<totfact> 0.45894217E+00</totfact>
</mgrwt>
</event>
<event>
12    4  0.4207946E-008  0.1538294E+04  0.7818608E-02  0.8859380E-01
          1   -1    0    0  501    0  0.00000000000E+00  0.00000000000E+00  0.15410803432E+04  0.15410803432E+04  0.00000000000E+00 0. -1.
         -2   -1    0    0    0  501 -0.00000000000E+00 -0.00000000000E+00 -0.38387831442E+03  0.38387831442E+03  0.00000000000E+00 0.  1.
        -24    2    1    2    0    0 -0.35590612368E+03 -0.19633050838E+03  0.66998879761E+02  0.41979832228E+03  0.80789504927E+02 0.  0.
        254    2    1    2    0    0  0.35590612368E+03  0.19633050838E+03  0.10902031490E+04  0.15051603353E+04  0.95485595329E+03 0.  0.
         23    2    4    4    0    0  0.12775683505E+03  0.26626772742E+03  0.11901236804E+04  0.12294208676E+04  0.88662188181E+02 0.  0.
         23    2    4    4    0    0  0.22814928864E+03 -0.69937219037E+02 -0.99920531337E+02  0.27573946772E+03  0.95419227424E+02 0.  0.
          1    1    3    3  502    0 -0.59416707005E+02 -0.69171778515E+02  0.24366921628E+02  0.94386582117E+02  0.00000000000E+00 0. -1.
         -2    1    3    3    0  502 -0.29648941668E+03 -0.12715872987E+03  0.42631958133E+02  0.32541174017E+03  0.00000000000E+00 0.  1.
         11    1    5    5    0    0  0.11528925812E+03  0.23592789446E+03  0.11374628402E+04  0.11673796714E+04  0.00000000000E+00 0.  1.
        -11    1    5    5    0    0  0.12467576932E+02  0.30339832959E+02  0.52660840158E+02  0.62041196190E+02  0.00000000000E+00 0. -1.
          2    1    6    6  503    0  0.37610512396E+02 -0.63546190750E+00  0.17450695042E+02  0.41466627690E+02  0.00000000000E+00 0. -1.
         -2    1    6    6    0  503  0.19053877624E+03 -0.69301757130E+02 -0.11737122638E+03  0.23427284003E+03  0.00000000000E+00 0.  1.
<mgrwt>
<rscale>  0 0.15382943E+04</rscale>
<asrwt>0</asrwt>
<pdfrwt beam="1">  1        1 0.23708928E+00 0.15382943E+04</pdfrwt>
<pdfrwt beam="2">  1       -2 0.59058203E-01 0.15382943E+04</pdfrwt>
<totfact> 0.13885040E+01</totfact>
</mgrwt>
</event>
<event>
12    4  0.4207946E-008  0.1360362E+04  0.7818608E-02  0.8983021E-01
          1   -1    0    0  501    0  0.00000000000E+00  0.00000000000E+00  0.30548319714E+04  0.30548319714E+04  0.00000000000E+00 0. -1.
         -2   -1    0    0    0  501 -0.00000000000E+00 -0.00000000000E+00 -0.15144739704E+03  0.15144739704E+03  0.00000000000E+00 0.  1.
        -24    2    1    2    0    0  0.10303739237E+02 -0.37172724535E+03  0.84275032098E+03  0.92452427289E+03  0.78928547919E+02 0.  0.
        254    2    1    2    0    0 -0.10303739237E+02  0.37172724535E+03  0.20606342534E+04  0.22817550955E+04  0.90659002745E+03 0.  0.
         23    2    4    4    0    0  0.10055748595E+02  0.59366801721E+03  0.81007519619E+03  0.10085681241E+04  0.91896707145E+02 0.  0.
         23    2    4    4    0    0 -0.20359487832E+02 -0.22194077187E+03  0.12505590572E+04  0.12731869714E+04  0.86225829734E+02 0.  0.
          3    1    3    3  502    0  0.40627103919E+02 -0.25108237596E+03  0.60224533161E+03  0.65375252239E+03  0.00000000000E+00 0. -1.
         -4    1    3    3    0  502 -0.30323364682E+02 -0.12064486939E+03  0.24050498937E+03  0.27077175050E+03  0.00000000000E+00 0.  1.
         11    1    5    5    0    0 -0.55356658200E+01  0.55380388642E+02  0.38594844935E+02  0.67728820289E+02  0.00000000000E+00 0. -1.
        -11    1    5    5    0    0  0.15591414415E+02  0.53828762857E+03  0.77148035125E+03  0.94083930384E+03  0.00000000000E+00 0.  1.
          1    1    6    6  503    0 -0.10077950699E+02 -0.15246785094E+03  0.61239002029E+03  0.63116523004E+03  0.00000000000E+00 0.  1.
         -1    1    6    6    0  503 -0.10281537133E+02 -0.69472920926E+02  0.63816903687E+03  0.64202174135E+03  0.00000000000E+00 0. -1.
<mgrwt>
<rscale>  0 0.13603622E+04</rscale>
<asrwt>0</asrwt>
<pdfrwt beam="1">  1        1 0.46997411E+00 0.13603622E+04</pdfrwt>
<pdfrwt beam="2">  1       -2 0.23299602E-01 0.13603622E+04</pdfrwt>
<totfact> 0.76963968E+00</totfact>
</mgrwt>
</event>
<event>
12    4  0.4207946E-008  0.1877976E+04  0.7818608E-02  0.8665897E-01
          1   -1    0    0  501    0  0.00000000000E+00  0.00000000000E+00  0.39099473725E+04  0.39099473725E+04  0.00000000000E+00 0. -1.
         -2   -1    0    0    0  501 -0.00000000000E+00 -0.00000000000E+00 -0.22550144801E+03  0.22550144801E+03  0.00000000000E+00 0.  1.
        -24    2    1    2    0    0  0.41271362367E+03  0.53056565696E+02  0.12363488160E+03  0.44161899682E+03  0.81204803309E+02 0.  0.
        254    2    1    2    0    0 -0.41271362367E+03 -0.53056565696E+02  0.35608110428E+04  0.36938298236E+04  0.88986288202E+03 0.  0.
         23    2    4    4    0    0 -0.18303204706E+03  0.28625209568E+03  0.28262457778E+04  0.28480437929E+04  0.90814409814E+02 0.  0.
         23    2    4    4    0    0 -0.22968157661E+03 -0.33930866137E+03  0.73456526504E+03  0.84578603076E+03  0.88791254702E+02 0.  0.
          1    1    3    3  502    0  0.41819984089E+02 -0.17975642912E+02  0.21941310187E+02  0.50531731615E+02  0.00000000000E+00 0. -1.
         -2    1    3    3    0  502  0.37089363958E+03  0.71032208608E+02  0.10169357142E+03  0.39108726521E+03  0.00000000000E+00 0.  1.
         11    1    5    5    0    0 -0.44340056685E+02  0.67516118378E+02  0.40437775596E+03  0.41236614360E+03  0.00000000000E+00 0.  1.
        -11    1    5    5    0    0 -0.13869199038E+03  0.21873597730E+03  0.24218680218E+04  0.24356776493E+04  0.00000000000E+00 0. -1.
          2    1    6    6  503    0 -0.11934084135E+03 -0.18026805851E+03  0.29733228589E+03  0.36762113319E+03  0.00000000000E+00 0. -1.
         -2    1    6    6    0  503 -0.11034073526E+03 -0.15904060286E+03  0.43723297914E+03  0.47816489757E+03  0.00000000000E+00 0.  1.
<mgrwt>
<rscale>  0 0.18779764E+04</rscale>
<asrwt>0</asrwt>
<pdfrwt beam="1">  1        1 0.60153031E+00 0.18779764E+04</pdfrwt>
<pdfrwt beam="2">  1       -2 0.34692533E-01 0.18779764E+04</pdfrwt>
<totfact> 0.74425202E-01</totfact>
</mgrwt>
</event>
<event>
12    4  0.4207946E-008  0.1852789E+04  0.7818608E-02  0.8678720E-01
         -2   -1    0    0    0  501 -0.00000000000E+00  0.00000000000E+00  0.36508036613E+03  0.36508036613E+03  0.00000000000E+00 0.  1.
          1   -1    0    0  501    0  0.00000000000E+00 -0.00000000000E+00 -0.23507348872E+04  0.23507348872E+04  0.00000000000E+00 0. -1.
        -24    2    1    2    0    0 -0.56262247457E+03 -0.79900158348E+02 -0.13670159941E+04  0.14826295318E+04  0.80805421502E+02 0.  0.
        254    2    1    2    0    0  0.56262247457E+03  0.79900158348E+02 -0.61863852700E+03  0.12331857216E+04  0.90283182968E+03 0.  0.
         23    2    4    4    0    0  0.45736282520E+03 -0.36442676115E+03 -0.42704733231E+03  0.72967776609E+03  0.89847649809E+02 0.  0.
         23    2    4    4    0    0  0.10525964936E+03  0.44432691949E+03 -0.19159119470E+03  0.50350795551E+03  0.91143130340E+02 0.  0.
          1    1    3    3  502    0 -0.27282891815E+03 -0.53543547381E+02 -0.76544296811E+03  0.81437427972E+03  0.00000000000E+00 0. -1.
         -4    1    3    3    0  502 -0.28979355642E+03 -0.26356610968E+02 -0.60157302599E+03  0.66825525204E+03  0.00000000000E+00 0.  1.
         11    1    5    5    0    0  0.27860028947E+03 -0.22250843984E+03 -0.31337265802E+03  0.47468995133E+03  0.00000000000E+00 0.  1.
        -11    1    5    5    0    0  0.17876253573E+03 -0.14191832130E+03 -0.11367467428E+03  0.25498781476E+03  0.00000000000E+00 0. -1.
          3    1    6    6  503    0  0.31236068660E+02  0.22113676302E+03 -0.49453605941E+02  0.22874181753E+03  0.00000000000E+00 0.  1.
         -3    1    6    6    0  503  0.74023580703E+02  0.22319015647E+03 -0.14213758876E+03  0.27476613799E+03  0.00000000000E+00 0. -1.
<mgrwt>
<rscale>  0 0.18527894E+04</rscale>
<asrwt>0</asrwt>
<pdfrwt beam="1">  1        1 0.36165152E+00 0.18527894E+04</pdfrwt>
<pdfrwt beam="2">  1       -2 0.56166210E-01 0.18527894E+04</pdfrwt>
<totfact> 0.42196319E+00</totfact>
</mgrwt>
</event>
<event>
12    4  0.4207946E-008  0.2132473E+04  0.7818608E-02  0.8547072E-01
          1   -1    0    0  501    0  0.00000000000E+00  0.00000000000E+00  0.19344017196E+04  0.19344017196E+04  0.00000000000E+00 0. -1.
         -2   -1    0    0    0  501 -0.00000000000E+00 -0.00000000000E+00 -0.58770657946E+03  0.58770657946E+03  0.00000000000E+00 0.  1.
        -24    2    1    2    0    0  0.46202509591E+02 -0.16424037745E+03 -0.46269167275E+03  0.49997315497E+03  0.82340744397E+02 0.  0.
        254    2    1    2    0    0 -0.46202509591E+02  0.16424037745E+03  0.18093868128E+04  0.20221351440E+04  0.88658915445E+03 0.  0.
         23    2    4    4    0    0  0.28973707915E+03 -0.19832651143E+03  0.10555404693E+04  0.11163150387E+04  0.93341326169E+02 0.  0.
         23    2    4    4    0    0 -0.33593958874E+03  0.36256688888E+03  0.75384634359E+03  0.90582010536E+03  0.88969642809E+02 0.  0.
          3    1    3    3  502    0 -0.73359945375E+01 -0.41323940773E+01 -0.95051966418E+02  0.95424157405E+02  0.00000000000E+00 0. -1.
         -4    1    3    3    0  502  0.53538504129E+02 -0.16010798337E+03 -0.36763970633E+03  0.40454899757E+03  0.00000000000E+00 0.  1.
         11    1    5    5    0    0  0.13650354076E+03 -0.12378646898E+03  0.66832129182E+03  0.69326016447E+03  0.00000000000E+00 0. -1.
        -11    1    5    5    0    0  0.15323353839E+03 -0.74540042454E+02  0.38721917743E+03  0.42305487420E+03  0.00000000000E+00 0.  1.
          4    1    6    6  503    0 -0.66615879381E+02  0.64889583064E+02  0.21175436806E+03  0.23127525974E+03  0.00000000000E+00 0. -1.
         -4    1    6    6    0  503 -0.26932370936E+03  0.29767730582E+03  0.54209197553E+03  0.67454484562E+03  0.00000000000E+00 0.  1.
<mgrwt>
<rscale>  0 0.21324733E+04</rscale>
<asrwt>0</asrwt>
<pdfrwt beam="1">  1        1 0.29760026E+00 0.21324733E+04</pdfrwt>
<pdfrwt beam="2">  1       -2 0.90416398E-01 0.21324733E+04</pdfrwt>
<totfact> 0.27806320E+00</totfact>
</mgrwt>
</event>
<event>
12    4  0.4207946E-008  0.1394994E+04  0.7818608E-02  0.8957450E-01
          1   -1    0    0  501    0  0.00000000000E+00  0.00000000000E+00  0.17207004649E+04  0.17207004649E+04  0.00000000000E+00 0. -1.
         -2   -1    0    0    0  501 -0.00000000000E+00 -0.00000000000E+00 -0.28273508055E+03  0.28273508055E+03  0.00000000000E+00 0.  1.
        -24    2    1    2    0    0  0.32559467165E+03  0.18595281455E+03  0.21418878368E+03  0.43901323485E+03  0.79154569495E+02 0.  0.
        254    2    1    2    0    0 -0.32559467165E+03 -0.18595281455E+03  0.12237766007E+04  0.15644223106E+04  0.89955414409E+03 0.  0.
         23    2    4    4    0    0 -0.47949248723E+03  0.13810147884E+00  0.12115939465E+04  0.13061423098E+04  0.90193003482E+02 0.  0.
         23    2    4    4    0    0  0.15389781558E+03 -0.18609091603E+03  0.12182654176E+02  0.25828000081E+03  0.90806250266E+02 0.  0.
          1    1    3    3  502    0  0.13990790022E+02  0.23595164831E+01  0.29908996469E+02  0.33103739868E+02  0.00000000000E+00 0. -1.
         -2    1    3    3    0  502  0.31160388163E+03  0.18359329807E+03  0.18427978722E+03  0.40590949498E+03  0.00000000000E+00 0.  1.
         11    1    5    5    0    0 -0.71796514013E+02 -0.31234715675E+02  0.17011238740E+03  0.18726604399E+03  0.00000000000E+00 0.  1.
        -11    1    5    5    0    0 -0.40769597322E+03  0.31372817154E+02  0.10414815591E+04  0.11188762658E+04  0.00000000000E+00 0. -1.
          2    1    6    6  503    0  0.61343064807E+02 -0.14348140237E+03  0.10004012309E+02  0.15636484480E+03  0.00000000000E+00 0. -1.
         -2    1    6    6    0  503  0.92554750772E+02 -0.42609513657E+02  0.21786418678E+01  0.10191515601E+03  0.00000000000E+00 0.  1.
<mgrwt>
<rscale>  0 0.13949945E+04</rscale>
<asrwt>0</asrwt>
<pdfrwt beam="1">  1        1 0.26472314E+00 0.13949945E+04</pdfrwt>
<pdfrwt beam="2">  1       -2 0.43497706E-01 0.13949945E+04</pdfrwt>
<totfact> 0.19798635E+01</totfact>
</mgrwt>
</event>
<event>
12    4  0.4207946E-008  0.1442089E+04  0.7818608E-02  0.8923903E-01
          1   -1    0    0  501    0  0.00000000000E+00  0.00000000000E+00  0.70798007789E+03  0.70798007789E+03  0.00000000000E+00 0. -1.
         -2   -1    0    0    0  501 -0.00000000000E+00 -0.00000000000E+00 -0.73435036990E+03  0.73435036990E+03  0.00000000000E+00 0.  1.
        -24    2    1    2    0    0  0.18956554837E+03 -0.19653776579E+03 -0.33569708552E+03  0.44237805661E+03  0.91889179073E+02 0.  0.
        254    2    1    2    0    0 -0.18956554837E+03  0.19653776579E+03  0.30932679351E+03  0.99995239118E+03  0.91085648098E+03 0.  0.
         23    2    4    4    0    0 -0.96044304338E+02  0.11789683952E+03  0.62465842144E+03  0.64953168806E+03  0.92569418019E+02 0.  0.
         23    2    4    4    0    0 -0.93521244032E+02  0.78640926272E+02 -0.31533162793E+03  0.35042070312E+03  0.91815114397E+02 0.  0.
          1    1    3    3  502    0  0.11272110184E+01 -0.22174285948E+02 -0.67720933765E+02  0.71267765729E+02  0.00000000000E+00 0. -1.
         -2    1    3    3    0  502  0.18843833735E+03 -0.17436347985E+03 -0.26797615176E+03  0.37111029088E+03  0.00000000000E+00 0.  1.
         11    1    5    5    0    0 -0.96028074650E+02  0.89845415845E+02  0.59222725776E+03  0.60665205407E+03  0.00000000000E+00 0.  1.
        -11    1    5    5    0    0 -0.16229688350E-01  0.28051423677E+02  0.32431163680E+02  0.42879633993E+02  0.00000000000E+00 0. -1.
          1    1    6    6  503    0 -0.60793668605E+02 -0.68977757121E+01 -0.12103829970E+03  0.13562344726E+03  0.00000000000E+00 0. -1.
         -1    1    6    6    0  503 -0.32727575427E+02  0.85538701984E+02 -0.19429332823E+03  0.21479725586E+03  0.00000000000E+00 0.  1.
<mgrwt>
<rscale>  0 0.14420894E+04</rscale>
<asrwt>0</asrwt>
<pdfrwt beam="1">  1        1 0.10892001E+00 0.14420894E+04</pdfrwt>
<pdfrwt beam="2">  1       -2 0.11297698E+00 0.14420894E+04</pdfrwt>
<totfact> 0.14029164E+01</totfact>
</mgrwt>
</event>
<event>
12    4  0.4207946E-008  0.1818041E+04  0.7818608E-02  0.8696764E-01
         -2   -1    0    0    0  501 -0.00000000000E+00  0.00000000000E+00  0.67548268191E+03  0.67548268191E+03  0.00000000000E+00 0.  1.
          1   -1    0    0  501    0  0.00000000000E+00 -0.00000000000E+00 -0.12233008382E+04  0.12233008382E+04  0.00000000000E+00 0. -1.
        -24    2    1    2    0    0 -0.97572041363E+02  0.42723314366E+03 -0.75445597518E+03  0.87590905553E+03  0.77229481287E+02 0.  0.
        254    2    1    2    0    0  0.97572041363E+02 -0.42723314366E+03  0.20663781889E+03  0.10228744646E+04  0.90084655731E+03 0.  0.
         23    2    4    4    0    0 -0.28729925219E+03  0.89780827597E+02  0.19797989263E+03  0.37160255837E+03  0.91054742800E+02 0.  0.
         23    2    4    4    0    0  0.38487129355E+03 -0.51701397126E+03  0.86579262520E+01  0.65127190622E+03  0.93009553626E+02 0.  0.
          1    1    3    3  502    0 -0.28440476944E+02  0.27499194668E+03 -0.43682809233E+03  0.51696055334E+03  0.00000000000E+00 0. -1.
         -2    1    3    3    0  502 -0.69131564419E+02  0.15224119698E+03 -0.31762788286E+03  0.35894850219E+03  0.00000000000E+00 0.  1.
         11    1    5    5    0    0 -0.24366430905E+03  0.52716104690E+02  0.19072921945E+03  0.31389316392E+03  0.00000000000E+00 0.  1.
        -11    1    5    5    0    0 -0.43634943134E+02  0.37064722907E+02  0.72506731834E+01  0.57709394452E+02  0.00000000000E+00 0. -1.
          1    1    6    6  503    0  0.86829374898E+02 -0.13551591560E+03 -0.36560565093E+02  0.16504720126E+03  0.00000000000E+00 0. -1.
         -1    1    6    6    0  503  0.29804191865E+03 -0.38149805566E+03  0.45218491345E+02  0.48622470496E+03  0.00000000000E+00 0.  1.
<mgrwt>
<rscale>  0 0.18180413E+04</rscale>
<asrwt>0</asrwt>
<pdfrwt beam="1">  1        1 0.18820013E+00 0.18180413E+04</pdfrwt>
<pdfrwt beam="2">  1       -2 0.10392041E+00 0.18180413E+04</pdfrwt>
<totfact> 0.63991625E+00</totfact>
</mgrwt>
</event>
<event>
12    4  0.4207946E-008  0.1703512E+04  0.7818608E-02  0.8759364E-01
          1   -1    0    0  501    0  0.00000000000E+00  0.00000000000E+00  0.11660772701E+04  0.11660772701E+04  0.00000000000E+00 0. -1.
         -2   -1    0    0    0  501 -0.00000000000E+00 -0.00000000000E+00 -0.62216143226E+03  0.62216143226E+03  0.00000000000E+00 0.  1.
        -24    2    1    2    0    0  0.29913742124E+03  0.25180883363E+02 -0.37379103725E+03  0.48572674274E+03  0.78060588050E+02 0.  0.
        254    2    1    2    0    0 -0.29913742124E+03 -0.25180883363E+02  0.91770687513E+03  0.13025119597E+04  0.87420490887E+03 0.  0.
         23    2    4    4    0    0 -0.70233747037E+02 -0.40993581486E+03  0.25521921554E+03  0.49634966782E+03  0.90807451466E+02 0.  0.
         23    2    4    4    0    0 -0.22890367421E+03  0.38475493149E+03  0.66248765959E+03  0.80616229183E+03  0.10283235036E+03 0.  0.
          3    1    3    3  502    0  0.51220201182E+02  0.35042476198E+02 -0.73696074295E+02  0.96346227293E+02  0.00000000000E+00 0. -1.
         -4    1    3    3    0  502  0.24791722006E+03 -0.98615928351E+01 -0.30009496296E+03  0.38938051545E+03  0.00000000000E+00 0.  1.
         11    1    5    5    0    0 -0.16543874239E+02 -0.28275160570E+03  0.20420595604E+03  0.34917365706E+03  0.00000000000E+00 0.  1.
        -11    1    5    5    0    0 -0.53689872798E+02 -0.12718420916E+03  0.51013259499E+02  0.14717601076E+03  0.00000000000E+00 0. -1.
          3    1    6    6  503    0 -0.93128594627E+02  0.21859340020E+03  0.27673141000E+03  0.36474139199E+03  0.00000000000E+00 0. -1.
         -3    1    6    6    0  503 -0.13577507958E+03  0.16616153129E+03  0.38575624959E+03  0.44142089984E+03  0.00000000000E+00 0.  1.
<mgrwt>
<rscale>  0 0.17035120E+04</rscale>
<asrwt>0</asrwt>
<pdfrwt beam="1">  1        1 0.17939650E+00 0.17035120E+04</pdfrwt>
<pdfrwt beam="2">  1       -2 0.95717143E-01 0.17035120E+04</pdfrwt>
<totfact> 0.86474372E+00</totfact>
</mgrwt>
</event>
<event>
12    4  0.4207946E-008  0.2883251E+04  0.7818608E-02  0.8277878E-01
          1   -1    0    0  501    0  0.00000000000E+00  0.00000000000E+00  0.31632645235E+04  0.31632645235E+04  0.00000000000E+00 0. -1.
         -2   -1    0    0    0  501 -0.00000000000E+00 -0.00000000000E+00 -0.65700620860E+03  0.65700620860E+03  0.00000000000E+00 0.  1.
        -24    2    1    2    0    0 -0.51450099932E+03  0.51618628528E+03  0.25554472510E+04  0.26584646286E+04  0.77226742149E+02 0.  0.
        254    2    1    2    0    0  0.51450099932E+03 -0.51618628528E+03 -0.49188936079E+02  0.11618061035E+04  0.90344579873E+03 0.  0.
         23    2    4    4    0    0  0.15104434763E+02 -0.58174394515E+03  0.15740342532E+03  0.60942697618E+03  0.89281797283E+02 0.  0.
         23    2    4    4    0    0  0.49939656456E+03  0.65557659874E+02 -0.20659236140E+03  0.55237912730E+03  0.93528396881E+02 0.  0.
          1    1    3    3  502    0 -0.27872576550E+03  0.27585192656E+03  0.15132304951E+04  0.15632174734E+04  0.00000000000E+00 0. -1.
         -2    1    3    3    0  502 -0.23577523382E+03  0.24033435872E+03  0.10422167558E+04  0.10952471552E+04  0.00000000000E+00 0.  1.
         11    1    5    5    0    0  0.15190507315E+02 -0.35114868403E+02 -0.63808961255E+01  0.38788159673E+02  0.00000000000E+00 0.  1.
        -11    1    5    5    0    0 -0.86072552188E-01 -0.54662907675E+03  0.16378432145E+03  0.57063881651E+03  0.00000000000E+00 0. -1.
          1    1    6    6  503    0  0.29653120659E+03  0.29391810017E+02 -0.17007775003E+03  0.34310505102E+03  0.00000000000E+00 0. -1.
         -1    1    6    6    0  503  0.20286535797E+03  0.36165849857E+02 -0.36514611373E+02  0.20927407628E+03  0.00000000000E+00 0.  1.
<mgrwt>
<rscale>  0 0.28832512E+04</rscale>
<asrwt>0</asrwt>
<pdfrwt beam="1">  1        1 0.48665607E+00 0.28832512E+04</pdfrwt>
<pdfrwt beam="2">  1       -2 0.10107788E+00 0.28832512E+04</pdfrwt>
<totfact> 0.27565402E-01</totfact>
</mgrwt>
</event>
<event>
12    4  0.4207946E-008  0.1735447E+04  0.7818608E-02  0.8741402E-01
         -2   -1    0    0    0  501 -0.00000000000E+00  0.00000000000E+00  0.54809314064E+03  0.54809314064E+03  0.00000000000E+00 0.  1.
          1   -1    0    0  501    0  0.00000000000E+00 -0.00000000000E+00 -0.13737515496E+04  0.13737515496E+04  0.00000000000E+00 0. -1.
        -24    2    1    2    0    0  0.11797107344E+03 -0.43862860304E+03  0.18415621368E+03  0.49653436032E+03  0.79502417345E+02 0.  0.
        254    2    1    2    0    0 -0.11797107344E+03  0.43862860304E+03 -0.10098146226E+04  0.14253103299E+04  0.89748077355E+03 0.  0.
         23    2    4    4    0    0  0.15931247429E+03  0.55788559772E+03 -0.32524200924E+03  0.67127859018E+03  0.90640920401E+02 0.  0.
         23    2    4    4    0    0 -0.27728354773E+03 -0.11925699468E+03 -0.68457261336E+03  0.75403173971E+03  0.93892517815E+02 0.  0.
          1    1    3    3  502    0  0.14631162144E+02 -0.11701008845E+03  0.15423563717E+02  0.11892568277E+03  0.00000000000E+00 0. -1.
         -2    1    3    3    0  502  0.10333991130E+03 -0.32161851459E+03  0.16873264996E+03  0.37760867755E+03  0.00000000000E+00 0.  1.
         11    1    5    5    0    0 -0.12027713742E+01  0.15904962848E+02 -0.29015593973E+02  0.33110711194E+02  0.00000000000E+00 0. -1.
        -11    1    5    5    0    0  0.16051524567E+03  0.54198063487E+03 -0.29622641527E+03  0.63816787898E+03  0.00000000000E+00 0.  1.
          3    1    6    6  503    0 -0.25359159731E+02  0.86438754677E+01 -0.11697128123E+03  0.12000035083E+03  0.00000000000E+00 0. -1.
         -3    1    6    6    0  503 -0.25192438800E+03 -0.12790087014E+03 -0.56760133213E+03  0.63403138888E+03  0.00000000000E+00 0.  1.
<mgrwt>
<rscale>  0 0.17354467E+04</rscale>
<asrwt>0</asrwt>
<pdfrwt beam="1">  1        1 0.21134639E+00 0.17354467E+04</pdfrwt>
<pdfrwt beam="2">  1       -2 0.84322022E-01 0.17354467E+04</pdfrwt>
<totfact> 0.81893756E+00</totfact>
</mgrwt>
</event>
<event>
12    4  0.4207946E-008  0.2625383E+04  0.7818608E-02  0.8359630E-01
         -4   -1    0    0    0  501 -0.00000000000E+00  0.00000000000E+00  0.40159341599E+03  0.40159341599E+03  0.00000000000E+00 0.  1.
          3   -1    0    0  501    0  0.00000000000E+00 -0.00000000000E+00 -0.42908034789E+04  0.42908034789E+04  0.00000000000E+00 0. -1.
        -24    2    1    2    0    0 -0.19646276755E+03 -0.46400899267E+03  0.14592558849E+03  0.53046919529E+03  0.78748495003E+02 0.  0.
        254    2    1    2    0    0  0.19646276755E+03  0.46400899267E+03 -0.40351356514E+04  0.41619276996E+04  0.88623952019E+03 0.  0.
         23    2    4    4    0    0 -0.93318890768E+02  0.57747950417E+03 -0.16131300299E+04  0.17183659906E+04  0.91663467239E+02 0.  0.
         23    2    4    4    0    0  0.28978165831E+03 -0.11347051149E+03 -0.24220056215E+04  0.24435617090E+04  0.89630511289E+02 0.  0.
          1    1    3    3  502    0 -0.10109420867E+02 -0.91761306407E+01  0.17952467369E+02  0.22554220191E+02  0.00000000000E+00 0. -1.
         -2    1    3    3    0  502 -0.18635334668E+03 -0.45483286203E+03  0.12797312112E+03  0.50791497510E+03  0.00000000000E+00 0.  1.
         11    1    5    5    0    0 -0.10659968774E+02  0.34497497382E+03 -0.96302357879E+03  0.10230033142E+04  0.00000000000E+00 0.  1.
        -11    1    5    5    0    0 -0.82658921995E+02  0.23250453034E+03 -0.65010645112E+03  0.69536267646E+03  0.00000000000E+00 0. -1.
          4    1    6    6  503    0  0.29371373485E+03 -0.10980941197E+03 -0.22808356832E+04  0.23022895732E+04  0.00000000000E+00 0. -1.
         -4    1    6    6    0  503 -0.39320765388E+01 -0.36610995266E+01 -0.14116993829E+03  0.14127213579E+03  0.00000000000E+00 0.  1.
<mgrwt>
<rscale>  0 0.26253826E+04</rscale>
<asrwt>0</asrwt>
<pdfrwt beam="1">  1        3 0.66012362E+00 0.26253826E+04</pdfrwt>
<pdfrwt beam="2">  1       -4 0.61783602E-01 0.26253826E+04</pdfrwt>
<totfact> 0.27747701E-03</totfact>
</mgrwt>
</event>
<event>
12    4  0.4207946E-008  0.2469668E+04  0.7818608E-02  0.8413872E-01
          1   -1    0    0  501    0  0.00000000000E+00  0.00000000000E+00  0.20371538735E+04  0.20371538735E+04  0.00000000000E+00 0. -1.
         -2   -1    0    0    0  501 -0.00000000000E+00 -0.00000000000E+00 -0.74850252094E+03  0.74850252094E+03  0.00000000000E+00 0.  1.
        -24    2    1    2    0    0 -0.60252335763E+03 -0.86660498540E+03  0.39799727589E+03  0.11309817349E+04  0.81726714607E+02 0.  0.
        254    2    1    2    0    0  0.60252335763E+03  0.86660498540E+03  0.89065407662E+03  0.16546746595E+04  0.91139725001E+03 0.  0.
         23    2    4    4    0    0  0.45665042054E+03  0.96931504770E+03  0.96025361884E+03  0.14416138935E+04  0.89790518660E+02 0.  0.
         23    2    4    4    0    0  0.14587293709E+03 -0.10271006230E+03 -0.69599542213E+02  0.21306076596E+03  0.93394448672E+02 0.  0.
          1    1    3    3  502    0 -0.26193512541E+03 -0.34392615046E+03  0.12509239718E+03  0.45004812490E+03  0.00000000000E+00 0. -1.
         -2    1    3    3    0  502 -0.34058823221E+03 -0.52267883494E+03  0.27290487871E+03  0.68093361000E+03  0.00000000000E+00 0.  1.
         11    1    5    5    0    0  0.26063315412E+03  0.53738847302E+03  0.47572443855E+03  0.76356385024E+03  0.00000000000E+00 0. -1.
        -11    1    5    5    0    0  0.19601726642E+03  0.43192657468E+03  0.48452918029E+03  0.67805004328E+03  0.00000000000E+00 0.  1.
          1    1    6    6  503    0  0.10130874551E+03 -0.11660365492E+03 -0.49142753841E+02  0.16209529454E+03  0.00000000000E+00 0. -1.
         -1    1    6    6    0  503  0.44564191576E+02  0.13893592615E+02 -0.20456788371E+02  0.50965471420E+02  0.00000000000E+00 0.  1.
<mgrwt>
<rscale>  0 0.24696678E+04</rscale>
<asrwt>0</asrwt>
<pdfrwt beam="1">  1        1 0.31340829E+00 0.24696678E+04</pdfrwt>
<pdfrwt beam="2">  1       -2 0.11515424E+00 0.24696678E+04</pdfrwt>
<totfact> 0.12934595E+00</totfact>
</mgrwt>
</event>
<event>
12    4  0.4207946E-008  0.1979993E+04  0.7818608E-02  0.8616032E-01
         -2   -1    0    0    0  501 -0.00000000000E+00  0.00000000000E+00  0.76170767805E+03  0.76170767805E+03  0.00000000000E+00 0.  1.
          1   -1    0    0  501    0  0.00000000000E+00 -0.00000000000E+00 -0.12867050615E+04  0.12867050615E+04  0.00000000000E+00 0. -1.
        -24    2    1    2    0    0 -0.77532375400E+01 -0.12068313011E+03 -0.10096794967E+04  0.10199065509E+04  0.78308084046E+02 0.  0.
        254    2    1    2    0    0  0.77532375400E+01  0.12068313011E+03  0.48468211328E+03  0.10285061886E+04  0.89904599349E+03 0.  0.
         23    2    4    4    0    0  0.15346332194E+03 -0.27384508758E+03  0.50066304131E+03  0.59800542387E+03  0.91678148296E+02 0.  0.
         23    2    4    4    0    0 -0.14571008440E+03  0.39452821769E+03 -0.15980928028E+02  0.43050076470E+03  0.90507320683E+02 0.  0.
          1    1    3    3  502    0  0.29663669201E+02 -0.71853206190E+02 -0.68972524695E+03  0.69409202041E+03  0.00000000000E+00 0. -1.
         -2    1    3    3    0  502 -0.37416906742E+02 -0.48829923923E+02 -0.31995424974E+03  0.32581453053E+03  0.00000000000E+00 0.  1.
         11    1    5    5    0    0  0.72217382517E+02 -0.94665198355E+02  0.26834806026E+03  0.29357713052E+03  0.00000000000E+00 0. -1.
        -11    1    5    5    0    0  0.81245939427E+02 -0.17917988922E+03  0.23231498105E+03  0.30442829335E+03  0.00000000000E+00 0.  1.
          4    1    6    6  503    0 -0.43234181036E+02  0.62111129786E+02 -0.32260043650E+02  0.82266015276E+02  0.00000000000E+00 0. -1.
         -4    1    6    6    0  503 -0.10247590337E+03  0.33241708790E+03  0.16279115622E+02  0.34823474942E+03  0.00000000000E+00 0.  1.
<mgrwt>
<rscale>  0 0.19799931E+04</rscale>
<asrwt>0</asrwt>
<pdfrwt beam="1">  1        1 0.19795463E+00 0.19799931E+04</pdfrwt>
<pdfrwt beam="2">  1       -2 0.11718580E+00 0.19799931E+04</pdfrwt>
<totfact> 0.42448473E+00</totfact>
</mgrwt>
</event>
<event>
12    4  0.4207946E-008  0.1507022E+04  0.7818608E-02  0.8879797E-01
         -2   -1    0    0    0  501 -0.00000000000E+00  0.00000000000E+00  0.33503193565E+03  0.33503193565E+03  0.00000000000E+00 0.  1.
          1   -1    0    0  501    0  0.00000000000E+00 -0.00000000000E+00 -0.16946996749E+04  0.16946996749E+04  0.00000000000E+00 0. -1.
        -24    2    1    2    0    0  0.73828757562E+02 -0.48626852348E+03 -0.46940087061E+03  0.68457396095E+03  0.79978549074E+02 0.  0.
        254    2    1    2    0    0 -0.73828757562E+02  0.48626852348E+03 -0.89026686866E+03  0.13451576496E+04  0.88032166992E+03 0.  0.
         23    2    4    4    0    0 -0.27785192145E+03  0.65509154405E+03 -0.72784511558E+03  0.10218106131E+04  0.89396842665E+02 0.  0.
         23    2    4    4    0    0  0.20402316389E+03 -0.16882302056E+03 -0.16242175307E+03  0.32334703650E+03  0.89698475274E+02 0.  0.
          1    1    3    3  502    0  0.50677317991E+02 -0.46191835793E+03 -0.43893516519E+03  0.63921892900E+03  0.00000000000E+00 0. -1.
         -2    1    3    3    0  502  0.23151439571E+02 -0.24350165550E+02 -0.30465705418E+02  0.45355031950E+02  0.00000000000E+00 0.  1.
         11    1    5    5    0    0 -0.26871996748E+03  0.65460530064E+03 -0.71420922036E+03  0.10053921280E+04  0.00000000000E+00 0.  1.
        -11    1    5    5    0    0 -0.91319539674E+01  0.48624340310E+00 -0.13635895222E+02  0.16418485144E+02  0.00000000000E+00 0. -1.
          2    1    6    6  503    0  0.34373690023E+02 -0.52359449140E+02 -0.24151053638E+01  0.62680899913E+02  0.00000000000E+00 0. -1.
         -2    1    6    6    0  503  0.16964947386E+03 -0.11646357142E+03 -0.16000664771E+03  0.26066613659E+03  0.00000000000E+00 0.  1.
<mgrwt>
<rscale>  0 0.15070216E+04</rscale>
<asrwt>0</asrwt>
<pdfrwt beam="1">  1        1 0.26072302E+00 0.15070216E+04</pdfrwt>
<pdfrwt beam="2">  1       -2 0.51543375E-01 0.15070216E+04</pdfrwt>
<totfact> 0.14501214E+01</totfact>
</mgrwt>
</event>
<event>
12    4  0.4207946E-008  0.1957474E+04  0.7818608E-02  0.8626765E-01
          1   -1    0    0  501    0  0.00000000000E+00  0.00000000000E+00  0.21922383757E+04  0.21922383757E+04  0.00000000000E+00 0. -1.
         -2   -1    0    0    0  501 -0.00000000000E+00 -0.00000000000E+00 -0.43696256758E+03  0.43696256758E+03  0.00000000000E+00 0.  1.
        -24    2    1    2    0    0 -0.43250201018E+02 -0.76185917453E+03  0.82539755927E+03  0.11285098686E+04  0.99766782931E+02 0.  0.
        254    2    1    2    0    0  0.43250201018E+02  0.76185917453E+03  0.92987824889E+03  0.15006910747E+04  0.89727373878E+03 0.  0.
         23    2    4    4    0    0 -0.30025258474E+03  0.70484811326E+03  0.81794337467E+03  0.11239208122E+04  0.84877267987E+02 0.  0.
         23    2    4    4    0    0  0.34350278576E+03  0.57011061274E+02  0.11193487422E+03  0.37677026249E+03  0.90454351437E+02 0.  0.
          3    1    3    3  502    0 -0.22601545946E+02 -0.53722824250E+03  0.51285883413E+03  0.74306742504E+03  0.00000000000E+00 0. -1.
         -4    1    3    3    0  502 -0.20648655072E+02 -0.22463093203E+03  0.31253872515E+03  0.38544244356E+03  0.00000000000E+00 0.  1.
         11    1    5    5    0    0 -0.14456865018E+03  0.34632147485E+03  0.46249204761E+03  0.59559848276E+03  0.00000000000E+00 0. -1.
        -11    1    5    5    0    0 -0.15568393456E+03  0.35852663840E+03  0.35545132706E+03  0.52832232948E+03  0.00000000000E+00 0.  1.
          2    1    6    6  503    0  0.22164268187E+03  0.75315688458E+02  0.52250902234E+02  0.23985013684E+03  0.00000000000E+00 0. -1.
         -2    1    6    6    0  503  0.12186010389E+03 -0.18304627184E+02  0.59683971989E+02  0.13692012565E+03  0.00000000000E+00 0.  1.
<mgrwt>
<rscale>  0 0.19574740E+04</rscale>
<asrwt>0</asrwt>
<pdfrwt beam="1">  1        1 0.33726744E+00 0.19574740E+04</pdfrwt>
<pdfrwt beam="2">  1       -2 0.67225011E-01 0.19574740E+04</pdfrwt>
<totfact> 0.36613450E+00</totfact>
</mgrwt>
</event>
<event>
12    4  0.4207946E-008  0.2124674E+04  0.7818608E-02  0.8550452E-01
          1   -1    0    0  501    0  0.00000000000E+00  0.00000000000E+00  0.17368784181E+04  0.17368784181E+04  0.00000000000E+00 0. -1.
         -2   -1    0    0    0  501 -0.00000000000E+00 -0.00000000000E+00 -0.64976302660E+03  0.64976302660E+03  0.00000000000E+00 0.  1.
        -24    2    1    2    0    0  0.62400056861E+03 -0.59324462589E+03  0.31271631778E+03  0.91948110048E+03  0.79612203639E+02 0.  0.
        254    2    1    2    0    0 -0.62400056861E+03  0.59324462589E+03  0.77439907367E+03  0.14671603442E+04  0.90086050776E+03 0.  0.
         23    2    4    4    0    0 -0.57473229531E+03 -0.35990656099E+02  0.22211473035E+03  0.62390558063E+03  0.91162939296E+02 0.  0.
         23    2    4    4    0    0 -0.49268273296E+02  0.62923528199E+03  0.55228434332E+03  0.84325476354E+03  0.87727974513E+02 0.  0.
          3    1    3    3  502    0  0.31785243486E+03 -0.31225288326E+03  0.12017763534E+03  0.46149181736E+03  0.00000000000E+00 0. -1.
         -4    1    3    3    0  502  0.30614813375E+03 -0.28099174263E+03  0.19253868243E+03  0.45798928312E+03  0.00000000000E+00 0.  1.
         11    1    5    5    0    0 -0.43931982306E+03 -0.62442675981E+02  0.18704587592E+03  0.48154662746E+03  0.00000000000E+00 0. -1.
        -11    1    5    5    0    0 -0.13541247225E+03  0.26452019882E+02  0.35068854431E+02  0.14235895317E+03  0.00000000000E+00 0.  1.
          1    1    6    6  503    0 -0.52788199132E+02  0.46146180482E+03  0.35729471801E+03  0.58599753139E+03  0.00000000000E+00 0. -1.
         -1    1    6    6    0  503  0.35199258366E+01  0.16777347717E+03  0.19498962530E+03  0.25725723216E+03  0.00000000000E+00 0.  1.
<mgrwt>
<rscale>  0 0.21246735E+04</rscale>
<asrwt>0</asrwt>
<pdfrwt beam="1">  1        1 0.26721206E+00 0.21246735E+04</pdfrwt>
<pdfrwt beam="2">  1       -2 0.99963543E-01 0.21246735E+04</pdfrwt>
<totfact> 0.29964864E+00</totfact>
</mgrwt>
</event>
<event>
12    4  0.4207946E-008  0.1517105E+04  0.7818608E-02  0.8873157E-01
         -2   -1    0    0    0  501 -0.00000000000E+00  0.00000000000E+00  0.38445037983E+03  0.38445037983E+03  0.00000000000E+00 0.  1.
          1   -1    0    0  501    0  0.00000000000E+00 -0.00000000000E+00 -0.14966869594E+04  0.14966869594E+04  0.00000000000E+00 0. -1.
        -24    2    1    2    0    0  0.45953209843E+02 -0.13632904398E+03 -0.95701313174E+03  0.97104417052E+03  0.79720392942E+02 0.  0.
        254    2    1    2    0    0 -0.45953209843E+02  0.13632904398E+03 -0.15522344787E+03  0.91009316875E+03  0.88514289881E+03 0.  0.
         23    2    4    4    0    0 -0.24786226641E+03 -0.30176467419E+03 -0.22886654626E+02  0.40179086700E+03  0.91730475536E+02 0.  0.
         23    2    4    4    0    0  0.20190905657E+03  0.43809371817E+03 -0.13233679324E+03  0.50830230176E+03  0.90359449418E+02 0.  0.
          1    1    3    3  502    0 -0.18799654200E+02 -0.48365269261E+02 -0.40660820997E+03  0.40990591931E+03  0.00000000000E+00 0. -1.
         -2    1    3    3    0  502  0.64752864043E+02 -0.87963774723E+02 -0.55040492177E+03  0.56113825121E+03  0.00000000000E+00 0.  1.
         11    1    5    5    0    0 -0.19789493327E+03 -0.28167081714E+03 -0.26256958539E+01  0.34424954339E+03  0.00000000000E+00 0. -1.
        -11    1    5    5    0    0 -0.49967333142E+02 -0.20093857048E+02 -0.20260958772E+02  0.57541323610E+02  0.00000000000E+00 0.  1.
          3    1    6    6  503    0  0.20232260051E+03  0.41316340620E+03 -0.14215610947E+03  0.48150471894E+03  0.00000000000E+00 0. -1.
         -3    1    6    6    0  503 -0.41354394401E+00  0.24930311975E+02  0.98193162294E+01  0.26797582820E+02  0.00000000000E+00 0.  1.
<mgrwt>
<rscale>  0 0.15171050E+04</rscale>
<asrwt>0</asrwt>
<pdfrwt beam="1">  1        1 0.23025953E+00 0.15171050E+04</pdfrwt>
<pdfrwt beam="2">  1       -2 0.59146212E-01 0.15171050E+04</pdfrwt>
<totfact> 0.14881247E+01</totfact>
</mgrwt>
</event>
<event>
12    4  0.4207946E-008  0.3762149E+04  0.7818608E-02  0.8054327E-01
         -2   -1    0    0    0  501 -0.00000000000E+00  0.00000000000E+00  0.29060105476E+04  0.29060105476E+04  0.00000000000E+00 0.  1.
          1   -1    0    0  501    0  0.00000000000E+00 -0.00000000000E+00 -0.12176282039E+04  0.12176282039E+04  0.00000000000E+00 0. -1.
        -24    2    1    2    0    0 -0.16260081952E+04 -0.70460030078E+03  0.84892526284E+03  0.19666405181E+04  0.81465274010E+02 0.  0.
        254    2    1    2    0    0  0.16260081952E+04  0.70460030078E+03  0.83945708090E+03  0.21569982333E+04  0.89865953131E+03 0.  0.
         23    2    4    4    0    0  0.19599938266E+03  0.21821944812E+03  0.52748751730E+03  0.61190219353E+03  0.10072600457E+03 0.  0.
         23    2    4    4    0    0  0.14300088125E+04  0.48638085266E+03  0.31196956360E+03  0.15450960398E+04  0.92223781315E+02 0.  0.
          3    1    3    3  502    0 -0.43701427164E+03 -0.18922190579E+03  0.18850010341E+03  0.51217056947E+03  0.00000000000E+00 0. -1.
         -4    1    3    3    0  502 -0.11889939236E+04 -0.51537839499E+03  0.66042515943E+03  0.14544699486E+04  0.00000000000E+00 0.  1.
         11    1    5    5    0    0 -0.25872020126E+01  0.27356354504E+02  0.97189583893E+02  0.10099940081E+03  0.00000000000E+00 0. -1.
        -11    1    5    5    0    0  0.19858658467E+03  0.19086309362E+03  0.43029793340E+03  0.51090279272E+03  0.00000000000E+00 0.  1.
          2    1    6    6  503    0  0.80198716921E+02  0.39934074909E+02  0.37484703637E+02  0.97116772708E+02  0.00000000000E+00 0. -1.
         -2    1    6    6    0  503  0.13498100956E+04  0.44644677775E+03  0.27448485996E+03  0.14479792671E+04  0.00000000000E+00 0.  1.
<mgrwt>
<rscale>  0 0.37621485E+04</rscale>
<asrwt>0</asrwt>
<pdfrwt beam="1">  1        1 0.18732742E+00 0.37621485E+04</pdfrwt>
<pdfrwt beam="2">  1       -2 0.44707854E+00 0.37621485E+04</pdfrwt>
<totfact> 0.26355909E-02</totfact>
</mgrwt>
</event>
<event>
12    4  0.4207946E-008  0.2833502E+04  0.7818608E-02  0.8292942E-01
         -2   -1    0    0    0  501 -0.00000000000E+00  0.00000000000E+00  0.11748096085E+04  0.11748096085E+04  0.00000000000E+00 0.  1.
          1   -1    0    0  501    0  0.00000000000E+00 -0.00000000000E+00 -0.17085177207E+04  0.17085177207E+04  0.00000000000E+00 0. -1.
        -24    2    1    2    0    0 -0.35135117775E+03 -0.10911706755E+04  0.32191862613E+03  0.11933382850E+04  0.79520861558E+02 0.  0.
        254    2    1    2    0    0  0.35135117775E+03  0.10911706755E+04 -0.85562673829E+03  0.16899890441E+04  0.89992486399E+03 0.  0.
         23    2    4    4    0    0  0.66083159505E+02  0.25850150859E+03 -0.74709236963E+03  0.79837378810E+03  0.89798011420E+02 0.  0.
         23    2    4    4    0    0  0.28526801825E+03  0.83266916692E+03 -0.10853436866E+03  0.89161525603E+03  0.92099249909E+02 0.  0.
          3    1    3    3  502    0 -0.44373309692E+02 -0.12393037850E+03  0.11497922229E+02  0.13213603423E+03  0.00000000000E+00 0. -1.
         -4    1    3    3    0  502 -0.30697786806E+03 -0.96724029702E+03  0.31042070390E+03  0.10612022508E+04  0.00000000000E+00 0.  1.
         11    1    5    5    0    0  0.60254197727E+02  0.25899415043E+03 -0.74655679232E+03  0.79249957884E+03  0.00000000000E+00 0. -1.
        -11    1    5    5    0    0  0.58289617777E+01 -0.49264183990E+00 -0.53557730802E+00  0.58742092609E+01  0.00000000000E+00 0.  1.
          1    1    6    6  503    0  0.27792173852E+03  0.76385687626E+03 -0.80045264930E+02  0.81677724295E+03  0.00000000000E+00 0. -1.
         -1    1    6    6    0  503  0.73462797265E+01  0.68812290659E+02 -0.28489103730E+02  0.74838013087E+02  0.00000000000E+00 0.  1.
<mgrwt>
<rscale>  0 0.28335017E+04</rscale>
<asrwt>0</asrwt>
<pdfrwt beam="1">  1        1 0.26284888E+00 0.28335017E+04</pdfrwt>
<pdfrwt beam="2">  1       -2 0.18073994E+00 0.28335017E+04</pdfrwt>
<totfact> 0.63921239E-01</totfact>
</mgrwt>
</event>
<event>
12    4  0.4207946E-008  0.1171797E+04  0.7818608E-02  0.9137908E-01
          1   -1    0    0  501    0  0.00000000000E+00  0.00000000000E+00  0.13022547328E+04  0.13022547328E+04  0.00000000000E+00 0. -1.
         -4   -1    0    0    0  501 -0.00000000000E+00 -0.00000000000E+00 -0.26360186283E+03  0.26360186283E+03  0.00000000000E+00 0.  1.
        -24    2    1    2    0    0  0.12041551910E+03  0.16926543712E+03  0.56128235031E+03  0.60390462686E+03  0.80698427062E+02 0.  0.
        254    2    1    2    0    0 -0.12041551910E+03 -0.16926543712E+03  0.47737051967E+03  0.96195196877E+03  0.80889943240E+03 0.  0.
         23    2    4    4    0    0  0.16914510354E+03  0.95602995664E+02  0.51540657501E+03  0.55804890224E+03  0.89580360014E+02 0.  0.
         23    2    4    4    0    0 -0.28956062263E+03 -0.26486843278E+03 -0.38036055340E+02  0.40390306653E+03  0.87694382861E+02 0.  0.
          3    1    3    3  502    0  0.72536546710E+02  0.15403039570E+03  0.46704491914E+03  0.49710951500E+03  0.00000000000E+00 0. -1.
         -4    1    3    3    0  502  0.47878972385E+02  0.15235041419E+02  0.94237431170E+02  0.10679511186E+03  0.00000000000E+00 0.  1.
         11    1    5    5    0    0  0.12170969124E+02  0.41825178476E+02  0.66892820935E+02  0.79825607024E+02  0.00000000000E+00 0.  1.
        -11    1    5    5    0    0  0.15697413441E+03  0.53777817188E+02  0.44851375407E+03  0.47822329522E+03  0.00000000000E+00 0. -1.
          3    1    6    6  503    0 -0.28571516700E+03 -0.23135847808E+03 -0.41592253662E+02  0.36998623974E+03  0.00000000000E+00 0. -1.
         -3    1    6    6    0  503 -0.38454556351E+01 -0.33509954705E+02  0.35561983216E+01  0.33916826796E+02  0.00000000000E+00 0.  1.
<mgrwt>
<rscale>  0 0.11717965E+04</rscale>
<asrwt>0</asrwt>
<pdfrwt beam="1">  1        1 0.20034688E+00 0.11717965E+04</pdfrwt>
<pdfrwt beam="2">  1       -4 0.40554133E-01 0.11717965E+04</pdfrwt>
<totfact> 0.26022279E+01</totfact>
</mgrwt>
</event>
<event>
12    4  0.4207946E-008  0.2428254E+04  0.7818608E-02  0.8429001E-01
         -2   -1    0    0    0  501 -0.00000000000E+00  0.00000000000E+00  0.60915767621E+03  0.60915767621E+03  0.00000000000E+00 0.  1.
          1   -1    0    0  501    0  0.00000000000E+00 -0.00000000000E+00 -0.24199068110E+04  0.24199068110E+04  0.00000000000E+00 0. -1.
        -24    2    1    2    0    0  0.67659432517E+03 -0.70872181941E+03 -0.45397590464E+03  0.10831404054E+04  0.83860107423E+02 0.  0.
        254    2    1    2    0    0 -0.67659432517E+03  0.70872181941E+03 -0.13567732302E+04  0.19459240819E+04  0.99283454616E+03 0.  0.
         23    2    4    4    0    0  0.80993598341E+01  0.69694748079E+03 -0.70658380475E+03  0.99669453037E+03  0.91312228776E+02 0.  0.
         23    2    4    4    0    0 -0.68469368501E+03  0.11774338619E+02 -0.65018942545E+03  0.94922955150E+03  0.96676652457E+02 0.  0.
          1    1    3    3  502    0  0.30338141597E+03 -0.32954803759E+03 -0.25277870087E+03  0.51433380625E+03  0.00000000000E+00 0. -1.
         -2    1    3    3    0  502  0.37321290920E+03 -0.37917378182E+03 -0.20119720376E+03  0.56880659913E+03  0.00000000000E+00 0.  1.
         11    1    5    5    0    0  0.36074142874E+02  0.15989600430E+03 -0.19094572993E+03  0.25165124230E+03  0.00000000000E+00 0.  1.
        -11    1    5    5    0    0 -0.27974783040E+02  0.53705147649E+03 -0.51563807482E+03  0.74504328806E+03  0.00000000000E+00 0. -1.
          3    1    6    6  503    0 -0.32387616813E+03 -0.42476051709E+02 -0.31351036917E+03  0.45275682085E+03  0.00000000000E+00 0. -1.
         -3    1    6    6    0  503 -0.36081751688E+03  0.54250390329E+02 -0.33667905627E+03  0.49647273064E+03  0.00000000000E+00 0.  1.
<mgrwt>
<rscale>  0 0.24282544E+04</rscale>
<asrwt>0</asrwt>
<pdfrwt beam="1">  1        1 0.37229335E+00 0.24282544E+04</pdfrwt>
<pdfrwt beam="2">  1       -2 0.93716567E-01 0.24282544E+04</pdfrwt>
<totfact> 0.11634315E+00</totfact>
</mgrwt>
</event>
<event>
12    4  0.4207946E-008  0.9475878E+03  0.7818608E-02  0.9367974E-01
         -2   -1    0    0    0  501 -0.00000000000E+00  0.00000000000E+00  0.55070408166E+03  0.55070408166E+03  0.00000000000E+00 0.  1.
          1   -1    0    0  501    0  0.00000000000E+00 -0.00000000000E+00 -0.40762484703E+03  0.40762484703E+03  0.00000000000E+00 0. -1.
        -24    2    1    2    0    0  0.43494655411E+02  0.26399995137E+02 -0.14424089217E+03  0.17241032655E+03  0.79568466973E+02 0.  0.
        254    2    1    2    0    0 -0.43494655411E+02 -0.26399995137E+02  0.28732012679E+03  0.78591860214E+03  0.72974409839E+03 0.  0.
         23    2    4    4    0    0 -0.63037900842E+02  0.31674484227E+03  0.26885441199E+03  0.43008749166E+03  0.91605041295E+02 0.  0.
         23    2    4    4    0    0  0.19543245430E+02 -0.34314483740E+03  0.18465714800E+02  0.35583111047E+03  0.90246765484E+02 0.  0.
          1    1    3    3  502    0  0.78427867698E+00 -0.34517266735E+01 -0.11000364747E+03  0.11006058317E+03  0.00000000000E+00 0. -1.
         -2    1    3    3    0  502  0.42710376734E+02  0.29851721811E+02 -0.34237244694E+02  0.62349743384E+02  0.00000000000E+00 0.  1.
         11    1    5    5    0    0 -0.77269712642E+02  0.24344815336E+03  0.23860145477E+03  0.34952577313E+03  0.00000000000E+00 0. -1.
        -11    1    5    5    0    0  0.14231811800E+02  0.73296688904E+02  0.30252957228E+02  0.80561718529E+02  0.00000000000E+00 0.  1.
          3    1    6    6  503    0  0.49909241978E+02 -0.28372086813E+03  0.72948859690E+01  0.28816953137E+03  0.00000000000E+00 0. -1.
         -3    1    6    6    0  503 -0.30365996548E+02 -0.59423969274E+02  0.11170828831E+02  0.67661579108E+02  0.00000000000E+00 0.  1.
<mgrwt>
<rscale>  0 0.94758782E+03</rscale>
<asrwt>0</asrwt>
<pdfrwt beam="1">  1        1 0.62711515E-01 0.94758782E+03</pdfrwt>
<pdfrwt beam="2">  1       -2 0.84723704E-01 0.94758782E+03</pdfrwt>
<totfact> 0.62434518E+01</totfact>
</mgrwt>
</event>
<event>
12    4  0.4207946E-008  0.2568085E+04  0.7818608E-02  0.8379124E-01
          1   -1    0    0  501    0  0.00000000000E+00  0.00000000000E+00  0.23614594543E+04  0.23614594543E+04  0.00000000000E+00 0. -1.
         -2   -1    0    0    0  501 -0.00000000000E+00 -0.00000000000E+00 -0.69819734573E+03  0.69819734573E+03  0.00000000000E+00 0.  1.
        -24    2    1    2    0    0 -0.21691889407E+03  0.99816800523E+03  0.12896089269E+04  0.16471119666E+04  0.80582088692E+02 0.  0.
        254    2    1    2    0    0  0.21691889407E+03 -0.99816800523E+03  0.37365318171E+03  0.14125448334E+04  0.90126191144E+03 0.  0.
         23    2    4    4    0    0  0.36100599197E+03 -0.55725454342E+02 -0.19639008623E+02  0.37709769465E+03  0.91576897511E+02 0.  0.
         23    2    4    4    0    0 -0.14408709790E+03 -0.94244255089E+03  0.39329219034E+03  0.10354471388E+04  0.92265793997E+02 0.  0.
          1    1    3    3  502    0 -0.94061473613E+02  0.32366103150E+03  0.47404647799E+03  0.58165633103E+03  0.00000000000E+00 0. -1.
         -2    1    3    3    0  502 -0.12285742046E+03  0.67450697373E+03  0.81556244890E+03  0.10654556356E+04  0.00000000000E+00 0.  1.
         11    1    5    5    0    0  0.95806795890E+02 -0.40778030272E+02 -0.38005982412E+02  0.11084333354E+03  0.00000000000E+00 0. -1.
        -11    1    5    5    0    0  0.26519919607E+03 -0.14947424069E+02  0.18366973789E+02  0.26625436111E+03  0.00000000000E+00 0.  1.
          1    1    6    6  503    0  0.13392879172E+02 -0.81640803661E+02  0.31786493974E+02  0.88628275590E+02  0.00000000000E+00 0. -1.
         -1    1    6    6    0  503 -0.15747997707E+03 -0.86080174723E+03  0.36150569636E+03  0.94681886320E+03  0.00000000000E+00 0.  1.
<mgrwt>
<rscale>  0 0.25680847E+04</rscale>
<asrwt>0</asrwt>
<pdfrwt beam="1">  1        1 0.36330145E+00 0.25680847E+04</pdfrwt>
<pdfrwt beam="2">  1       -2 0.10741498E+00 0.25680847E+04</pdfrwt>
<totfact> 0.91233467E-01</totfact>
</mgrwt>
</event>
<event>
12    4  0.4207946E-008  0.1712896E+04  0.7818608E-02  0.8754043E-01
         -4   -1    0    0    0  501 -0.00000000000E+00  0.00000000000E+00  0.81468741107E+03  0.81468741107E+03  0.00000000000E+00 0.  1.
          3   -1    0    0  501    0  0.00000000000E+00 -0.00000000000E+00 -0.90034910167E+03  0.90034910167E+03  0.00000000000E+00 0. -1.
        -24    2    1    2    0    0  0.51991530984E+03 -0.18800322344E+03 -0.28005143485E+03  0.62507007386E+03  0.81404236030E+02 0.  0.
        254    2    1    2    0    0 -0.51991530984E+03  0.18800322344E+03  0.19438974425E+03  0.10899664389E+04  0.91901160155E+03 0.  0.
         23    2    4    4    0    0 -0.34997102003E+03 -0.19580825025E+03 -0.24225679666E+03  0.47728741139E+03  0.91073222272E+02 0.  0.
         23    2    4    4    0    0 -0.16994428981E+03  0.38381147369E+03  0.43664654091E+03  0.61267902748E+03  0.92320528868E+02 0.  0.
          1    1    3    3  502    0  0.45342505034E+03 -0.17106633108E+03 -0.27266195039E+03  0.55605980352E+03  0.00000000000E+00 0. -1.
         -2    1    3    3    0  502  0.66490259500E+02 -0.16936892362E+02 -0.73894844597E+01  0.69010270336E+02  0.00000000000E+00 0.  1.
         11    1    5    5    0    0 -0.34591858892E+02  0.81995010057E+01 -0.18418969168E+02  0.40038568201E+02  0.00000000000E+00 0.  1.
        -11    1    5    5    0    0 -0.31537916114E+03 -0.20400775126E+03 -0.22383782749E+03  0.43724884319E+03  0.00000000000E+00 0. -1.
          2    1    6    6  503    0 -0.14434408865E+03  0.37573228136E+03  0.41565900175E+03  0.57860380997E+03  0.00000000000E+00 0. -1.
         -2    1    6    6    0  503 -0.25600201160E+02  0.80791923384E+01  0.20987539165E+02  0.34075217512E+02  0.00000000000E+00 0.  1.
<mgrwt>
<rscale>  0 0.17128959E+04</rscale>
<asrwt>0</asrwt>
<pdfrwt beam="1">  1        3 0.13851525E+00 0.17128959E+04</pdfrwt>
<pdfrwt beam="2">  1       -4 0.12533653E+00 0.17128959E+04</pdfrwt>
<totfact> 0.40984328E-01</totfact>
</mgrwt>
</event>
<event>
12    4  0.4207946E-008  0.2143947E+04  0.7818608E-02  0.8542128E-01
          1   -1    0    0  501    0  0.00000000000E+00  0.00000000000E+00  0.26283902238E+04  0.26283902238E+04  0.00000000000E+00 0. -1.
         -2   -1    0    0    0  501 -0.00000000000E+00 -0.00000000000E+00 -0.43719812475E+03  0.43719812475E+03  0.00000000000E+00 0.  1.
        -24    2    1    2    0    0 -0.75555519896E+03 -0.38588324889E+03  0.12580329333E+04  0.15195966575E+04  0.82204621340E+02 0.  0.
        254    2    1    2    0    0  0.75555519896E+03  0.38588324889E+03  0.93315916572E+03  0.15459916910E+04  0.89416706476E+03 0.  0.
         23    2    4    4    0    0  0.70916255430E+03  0.18244909946E+03  0.18161969033E+03  0.76080147176E+03  0.98152764659E+02 0.  0.
         23    2    4    4    0    0  0.46392644664E+02  0.20343414943E+03  0.75153947539E+03  0.78519021926E+03  0.90412204490E+02 0.  0.
          1    1    3    3  502    0 -0.18476287243E+03 -0.87610357773E+02  0.24425806492E+03  0.31855124564E+03  0.00000000000E+00 0. -1.
         -2    1    3    3    0  502 -0.57079232653E+03 -0.29827289112E+03  0.10137748684E+04  0.12010454119E+04  0.00000000000E+00 0.  1.
         11    1    5    5    0    0  0.20544090517E+02 -0.77434073552E+01 -0.48105365527E+01  0.22475793080E+02  0.00000000000E+00 0.  1.
        -11    1    5    5    0    0  0.68861846378E+03  0.19019250682E+03  0.18643022688E+03  0.73832567868E+03  0.00000000000E+00 0. -1.
          1    1    6    6  503    0  0.20193257316E+02  0.18849394168E+03  0.70240845738E+03  0.72754063439E+03  0.00000000000E+00 0. -1.
         -1    1    6    6    0  503  0.26199387348E+02  0.14940207751E+02  0.49131018012E+02  0.57649584872E+02  0.00000000000E+00 0.  1.
<mgrwt>
<rscale>  0 0.21439471E+04</rscale>
<asrwt>0</asrwt>
<pdfrwt beam="1">  1        1 0.40436772E+00 0.21439471E+04</pdfrwt>
<pdfrwt beam="2">  1       -2 0.67261252E-01 0.21439471E+04</pdfrwt>
<totfact> 0.17997735E+00</totfact>
</mgrwt>
</event>
<event>
12    4  0.4207946E-008  0.2688494E+04  0.7818608E-02  0.8338748E-01
          1   -1    0    0  501    0  0.00000000000E+00  0.00000000000E+00  0.70173575703E+03  0.70173575703E+03  0.00000000000E+00 0. -1.
         -2   -1    0    0    0  501 -0.00000000000E+00 -0.00000000000E+00 -0.25750442320E+04  0.25750442320E+04  0.00000000000E+00 0.  1.
        -24    2    1    2    0    0 -0.11019315420E+04  0.17956844391E+03 -0.13634094864E+04  0.17639910464E+04  0.79252978588E+02 0.  0.
        254    2    1    2    0    0  0.11019315420E+04 -0.17956844391E+03 -0.50989898854E+03  0.15127889427E+04  0.88432768651E+03 0.  0.
         23    2    4    4    0    0 -0.11653304740E+03 -0.11702567793E+03 -0.13866022721E+03  0.23433217179E+03  0.91705766947E+02 0.  0.
         23    2    4    4    0    0  0.12184645894E+04 -0.62542765978E+02 -0.37123876132E+03  0.12784567709E+04  0.89810599563E+02 0.  0.
          1    1    3    3  502    0 -0.10498050994E+02  0.84730947787E+01 -0.26042147297E+02  0.29329095548E+02  0.00000000000E+00 0. -1.
         -2    1    3    3    0  502 -0.10914334910E+04  0.17109534913E+03 -0.13373673391E+04  0.17346619508E+04  0.00000000000E+00 0.  1.
         11    1    5    5    0    0 -0.27722673311E+02  0.13416398281E+02 -0.27685898530E+02  0.41413226579E+02  0.00000000000E+00 0.  1.
        -11    1    5    5    0    0 -0.88810374090E+02 -0.13044207621E+03 -0.11097432868E+03  0.19291894521E+03  0.00000000000E+00 0. -1.
          3    1    6    6  503    0  0.10720909626E+04 -0.69396566439E+02 -0.29947652894E+03  0.11152941796E+04  0.00000000000E+00 0. -1.
         -3    1    6    6    0  503  0.14637362681E+03  0.68538004610E+01 -0.71762232387E+02  0.16316259131E+03  0.00000000000E+00 0.  1.
<mgrwt>
<rscale>  0 0.26884945E+04</rscale>
<asrwt>0</asrwt>
<pdfrwt beam="1">  1        1 0.10795935E+00 0.26884945E+04</pdfrwt>
<pdfrwt beam="2">  1       -2 0.39616065E+00 0.26884945E+04</pdfrwt>
<totfact> 0.16353341E-01</totfact>
</mgrwt>
</event>
<event>
12    4  0.4207946E-008  0.4601867E+04  0.7818608E-02  0.7893042E-01
         -2   -1    0    0    0  501 -0.00000000000E+00  0.00000000000E+00  0.15694562903E+04  0.15694562903E+04  0.00000000000E+00 0.  1.
          1   -1    0    0  501    0  0.00000000000E+00 -0.00000000000E+00 -0.33733306605E+04  0.33733306605E+04  0.00000000000E+00 0. -1.
        -24    2    1    2    0    0 -0.21388472842E+04  0.28004387011E+02 -0.14750220631E+04  0.25993616766E+04  0.74425050771E+02 0.  0.
        254    2    1    2    0    0  0.21388472842E+04 -0.28004387011E+02 -0.32885230706E+03  0.23434252742E+04  0.89891391420E+03 0.  0.
         23    2    4    4    0    0  0.17299481157E+03  0.12036853858E+03  0.19465274836E+03  0.30103215798E+03  0.91185951679E+02 0.  0.
         23    2    4    4    0    0  0.19658524726E+04 -0.14837292559E+03 -0.52350505542E+03  0.20423931163E+04  0.10354529927E+03 0.  0.
          1    1    3    3  502    0 -0.20781863714E+04  0.18166011938E+02 -0.14426161663E+04  0.25298873496E+04  0.00000000000E+00 0. -1.
         -2    1    3    3    0  502 -0.60660912795E+02  0.98383750735E+01 -0.32405896884E+02  0.69474327043E+02  0.00000000000E+00 0.  1.
         11    1    5    5    0    0  0.68204423327E+02  0.42321464557E+02  0.13575494217E+03  0.15770971450E+03  0.00000000000E+00 0. -1.
        -11    1    5    5    0    0  0.10479038824E+03  0.78047074019E+02  0.58897806190E+02  0.14332244348E+03  0.00000000000E+00 0.  1.
          1    1    6    6  503    0  0.17104927042E+04 -0.14051589510E+03 -0.48924069872E+03  0.17846250220E+04  0.00000000000E+00 0. -1.
         -1    1    6    6    0  503  0.25535976844E+03 -0.78570304874E+01 -0.34264356699E+02  0.25776809423E+03  0.00000000000E+00 0.  1.
<mgrwt>
<rscale>  0 0.46018670E+04</rscale>
<asrwt>0</asrwt>
<pdfrwt beam="1">  1        1 0.51897394E+00 0.46018670E+04</pdfrwt>
<pdfrwt beam="2">  1       -2 0.24145482E+00 0.46018670E+04</pdfrwt>
<totfact> 0.14926632E-02</totfact>
</mgrwt>
</event>
<event>
12    4  0.4207946E-008  0.1147789E+04  0.7818608E-02  0.9159825E-01
         -4   -1    0    0    0  501 -0.00000000000E+00  0.00000000000E+00  0.53278012234E+03  0.53278012234E+03  0.00000000000E+00 0.  1.
          3   -1    0    0  501    0  0.00000000000E+00 -0.00000000000E+00 -0.61818210527E+03  0.61818210527E+03  0.00000000000E+00 0. -1.
        -24    2    1    2    0    0  0.89298447337E+02 -0.12680879546E+03  0.12343503764E+03  0.21355365448E+03  0.79462390616E+02 0.  0.
        254    2    1    2    0    0 -0.89298447337E+02  0.12680879546E+03 -0.20883702058E+03  0.93740857313E+03  0.90059272066E+03 0.  0.
         23    2    4    4    0    0 -0.46774472858E+03 -0.58387627375E+02 -0.74749516994E+02  0.48606857070E+03  0.92091905133E+02 0.  0.
         23    2    4    4    0    0  0.37844628124E+03  0.18519642283E+03 -0.13408750358E+03  0.45134000243E+03  0.90603732610E+02 0.  0.
          3    1    3    3  502    0  0.66726873286E+02 -0.94838764592E+02  0.42230924852E+02  0.12341117414E+03  0.00000000000E+00 0. -1.
         -4    1    3    3    0  502  0.22571574051E+02 -0.31970030866E+02  0.81204112790E+02  0.90142480345E+02  0.00000000000E+00 0.  1.
         11    1    5    5    0    0 -0.29202878044E+01 -0.12903231793E+02 -0.26337749865E+01  0.13489189829E+02  0.00000000000E+00 0. -1.
        -11    1    5    5    0    0 -0.46482444077E+03 -0.45484395582E+02 -0.72115742008E+02  0.47257938087E+03  0.00000000000E+00 0.  1.
          4    1    6    6  503    0  0.17963528709E+02  0.11315607671E+02 -0.31820824045E+02  0.38253054565E+02  0.00000000000E+00 0. -1.
         -4    1    6    6    0  503  0.36048275253E+03  0.17388081516E+03 -0.10226667954E+03  0.41308694786E+03  0.00000000000E+00 0.  1.
<mgrwt>
<rscale>  0 0.11477894E+04</rscale>
<asrwt>0</asrwt>
<pdfrwt beam="1">  1        3 0.95104940E-01 0.11477894E+04</pdfrwt>
<pdfrwt beam="2">  1       -4 0.81966172E-01 0.11477894E+04</pdfrwt>
<totfact> 0.29217426E+00</totfact>
</mgrwt>
</event>
<event>
12    4  0.4207946E-008  0.2787180E+04  0.7818608E-02  0.8307259E-01
         -2   -1    0    0    0  501 -0.00000000000E+00  0.00000000000E+00  0.12466526702E+04  0.12466526702E+04  0.00000000000E+00 0.  1.
          1   -1    0    0  501    0  0.00000000000E+00 -0.00000000000E+00 -0.15578462959E+04  0.15578462959E+04  0.00000000000E+00 0. -1.
        -24    2    1    2    0    0 -0.10204252788E+04 -0.20661612923E+03  0.54551686505E+03  0.11781438274E+04  0.80475173186E+02 0.  0.
        254    2    1    2    0    0  0.10204252788E+04  0.20661612923E+03 -0.85671049075E+03  0.16263551387E+04  0.90946148780E+03 0.  0.
         23    2    4    4    0    0  0.58975547830E+03  0.21240477044E+03  0.31179869382E+02  0.63564806726E+03  0.10074209879E+03 0.  0.
         23    2    4    4    0    0  0.43066980051E+03 -0.57886412099E+01 -0.88789036013E+03  0.99070707146E+03  0.87414097212E+02 0.  0.
          1    1    3    3  502    0 -0.63928846116E+02 -0.18757857884E+02  0.14744716205E+02  0.68236070037E+02  0.00000000000E+00 0. -1.
         -2    1    3    3    0  502 -0.95649643269E+03 -0.18785827134E+03  0.53077214885E+03  0.11099077574E+04  0.00000000000E+00 0.  1.
         11    1    5    5    0    0  0.87059873453E+02 -0.47513942749E+01  0.42137377253E+00  0.87190451708E+02  0.00000000000E+00 0.  1.
        -11    1    5    5    0    0  0.50269560485E+03  0.21715616471E+03  0.30758495610E+02  0.54845761555E+03  0.00000000000E+00 0. -1.
          4    1    6    6  503    0  0.23993231065E+03  0.40186549727E+02 -0.48741768243E+03  0.54475542183E+03  0.00000000000E+00 0. -1.
         -4    1    6    6    0  503  0.19073748986E+03 -0.45975190936E+02 -0.40047267770E+03  0.44595164963E+03  0.00000000000E+00 0.  1.
<mgrwt>
<rscale>  0 0.27871801E+04</rscale>
<asrwt>0</asrwt>
<pdfrwt beam="1">  1        1 0.23966866E+00 0.27871801E+04</pdfrwt>
<pdfrwt beam="2">  1       -2 0.19179272E+00 0.27871801E+04</pdfrwt>
<totfact> 0.68472822E-01</totfact>
</mgrwt>
</event>
<event>
12    4  0.4207946E-008  0.1559640E+04  0.7818608E-02  0.8845733E-01
         -2   -1    0    0    0  501 -0.00000000000E+00  0.00000000000E+00  0.83638477227E+03  0.83638477227E+03  0.00000000000E+00 0.  1.
          1   -1    0    0  501    0  0.00000000000E+00 -0.00000000000E+00 -0.72708097666E+03  0.72708097666E+03  0.00000000000E+00 0. -1.
        -24    2    1    2    0    0 -0.14593648641E+03 -0.21052347385E+03 -0.40996769186E+03  0.49010939276E+03  0.80722471422E+02 0.  0.
        254    2    1    2    0    0  0.14593648641E+03  0.21052347385E+03  0.51927148748E+03  0.10733563562E+04  0.90378835936E+03 0.  0.
         23    2    4    4    0    0 -0.36474322581E+02  0.61027125836E+02  0.73332938782E+03  0.74235458203E+03  0.90904610061E+02 0.  0.
         23    2    4    4    0    0  0.18241080899E+03  0.14949634801E+03 -0.21405790034E+03  0.33100177414E+03  0.90102877191E+02 0.  0.
          1    1    3    3  502    0 -0.15220201949E+03 -0.19839030455E+03 -0.40418823838E+03  0.47528128484E+03  0.00000000000E+00 0. -1.
         -2    1    3    3    0  502  0.62655330791E+01 -0.12133169295E+02 -0.57794534900E+01  0.14828107922E+02  0.00000000000E+00 0.  1.
         11    1    5    5    0    0 -0.36928261124E+02  0.81429973848E+02  0.66672849653E+03  0.67269712738E+03  0.00000000000E+00 0.  1.
        -11    1    5    5    0    0  0.45393854301E+00 -0.20402848011E+02  0.66600891294E+02  0.69657454650E+02  0.00000000000E+00 0. -1.
          2    1    6    6  503    0  0.98653004512E+02  0.12213797593E+03 -0.97232843658E+02  0.18467356700E+03  0.00000000000E+00 0. -1.
         -2    1    6    6    0  503  0.83757804478E+02  0.27358372080E+02 -0.11682505668E+03  0.14632820713E+03  0.00000000000E+00 0.  1.
<mgrwt>
<rscale>  0 0.15596403E+04</rscale>
<asrwt>0</asrwt>
<pdfrwt beam="1">  1        1 0.11185861E+00 0.15596403E+04</pdfrwt>
<pdfrwt beam="2">  1       -2 0.12867458E+00 0.15596403E+04</pdfrwt>
<totfact> 0.96553004E+00</totfact>
</mgrwt>
</event>
<event>
12    4  0.4207946E-008  0.2145183E+04  0.7818608E-02  0.8541597E-01
          1   -1    0    0  501    0  0.00000000000E+00  0.00000000000E+00  0.27146125196E+04  0.27146125196E+04  0.00000000000E+00 0. -1.
         -2   -1    0    0    0  501 -0.00000000000E+00 -0.00000000000E+00 -0.42380001671E+03  0.42380001671E+03  0.00000000000E+00 0.  1.
        -24    2    1    2    0    0  0.41780303841E+03  0.77123030766E+03  0.10723199119E+04  0.13878515345E+04  0.83104283688E+02 0.  0.
        254    2    1    2    0    0 -0.41780303841E+03 -0.77123030766E+03  0.12184925910E+04  0.17505610018E+04  0.90021334162E+03 0.  0.
         23    2    4    4    0    0  0.15876163601E+03 -0.18945754915E+03  0.76686833017E+03  0.81071055315E+03  0.89806153281E+02 0.  0.
         23    2    4    4    0    0 -0.57656467442E+03 -0.58177275851E+03  0.45162426084E+03  0.93985044868E+03  0.92021880958E+02 0.  0.
          3    1    3    3  502    0  0.34273568963E+03  0.66067233722E+03  0.94863907337E+03  0.12057660559E+04  0.00000000000E+00 0. -1.
         -4    1    3    3    0  502  0.75067348780E+02  0.11055797044E+03  0.12368083850E+03  0.18208547854E+03  0.00000000000E+00 0.  1.
         11    1    5    5    0    0  0.51832733778E+02 -0.31641317850E+02  0.98746455141E+02  0.11592526769E+03  0.00000000000E+00 0. -1.
        -11    1    5    5    0    0  0.10692890223E+03 -0.15781623130E+03  0.66812187503E+03  0.69478528546E+03  0.00000000000E+00 0.  1.
          3    1    6    6  503    0 -0.54038211081E+02 -0.55703903762E+02  0.76151240811E+02  0.10872931816E+03  0.00000000000E+00 0. -1.
         -3    1    6    6    0  503 -0.52252646334E+03 -0.52606885475E+03  0.37547302003E+03  0.83112113052E+03  0.00000000000E+00 0.  1.
<mgrwt>
<rscale>  0 0.21451833E+04</rscale>
<asrwt>0</asrwt>
<pdfrwt beam="1">  1        1 0.41763268E+00 0.21451833E+04</pdfrwt>
<pdfrwt beam="2">  1       -2 0.65200004E-01 0.21451833E+04</pdfrwt>
<totfact> 0.16738382E+00</totfact>
</mgrwt>
</event>
<event>
12    4  0.4207946E-008  0.1680541E+04  0.7818608E-02  0.8772541E-01
          1   -1    0    0  501    0  0.00000000000E+00  0.00000000000E+00  0.20422361491E+04  0.20422361491E+04  0.00000000000E+00 0. -1.
         -2   -1    0    0    0  501 -0.00000000000E+00 -0.00000000000E+00 -0.34572626399E+03  0.34572626399E+03  0.00000000000E+00 0.  1.
        -24    2    1    2    0    0 -0.14690094271E+03  0.38737882063E+03  0.12562348752E+04  0.13250970329E+04  0.78191094181E+02 0.  0.
        254    2    1    2    0    0  0.14690094271E+03 -0.38737882063E+03  0.44027500991E+03  0.10628653802E+04  0.87418447393E+03 0.  0.
         23    2    4    4    0    0  0.36284781896E+02 -0.60000403446E+03  0.69946783460E+02  0.61205735998E+03  0.91652782944E+02 0.  0.
         23    2    4    4    0    0  0.11061616082E+03  0.21262521384E+03  0.37032822645E+03  0.45080802023E+03  0.92948691252E+02 0.  0.
          1    1    3    3  502    0 -0.10010924682E+03  0.33712571065E+03  0.10865830599E+04  0.11420763338E+04  0.00000000000E+00 0. -1.
         -2    1    3    3    0  502 -0.46791695893E+02  0.50253109974E+02  0.16965181534E+03  0.18302069914E+03  0.00000000000E+00 0.  1.
         11    1    5    5    0    0  0.46204094515E+02 -0.40643857617E+03  0.99982623657E+01  0.40917856713E+03  0.00000000000E+00 0. -1.
        -11    1    5    5    0    0 -0.99193126193E+01 -0.19356545830E+03  0.59948521094E+02  0.20287879286E+03  0.00000000000E+00 0.  1.
          2    1    6    6  503    0  0.45433590155E+01  0.77140902772E+01  0.77409517958E+02  0.77925494996E+02  0.00000000000E+00 0. -1.
         -2    1    6    6    0  503  0.10607280180E+03  0.20491112356E+03  0.29291870849E+03  0.37288252523E+03  0.00000000000E+00 0.  1.
<mgrwt>
<rscale>  0 0.16805412E+04</rscale>
<asrwt>0</asrwt>
<pdfrwt beam="1">  1        1 0.31419017E+00 0.16805412E+04</pdfrwt>
<pdfrwt beam="2">  1       -2 0.53188657E-01 0.16805412E+04</pdfrwt>
<totfact> 0.77830663E+00</totfact>
</mgrwt>
</event>
<event>
12    4  0.4207946E-008  0.1922999E+04  0.7818608E-02  0.8643492E-01
          1   -1    0    0  501    0  0.00000000000E+00  0.00000000000E+00  0.14940596937E+04  0.14940596937E+04  0.00000000000E+00 0. -1.
         -2   -1    0    0    0  501 -0.00000000000E+00 -0.00000000000E+00 -0.61877127711E+03  0.61877127711E+03  0.00000000000E+00 0.  1.
        -24    2    1    2    0    0  0.18768608286E+03  0.58655870461E+03  0.80324890740E+03  0.10148678407E+04  0.73964499111E+02 0.  0.
        254    2    1    2    0    0 -0.18768608286E+03 -0.58655870461E+03  0.72039509200E+02  0.10979631302E+04  0.90612149552E+03 0.  0.
         23    2    4    4    0    0 -0.15034620937E+03 -0.80974722396E+03 -0.41829917952E+02  0.82989639918E+03  0.93186597472E+02 0.  0.
         23    2    4    4    0    0 -0.37339873490E+02  0.22318851935E+03  0.11386942715E+03  0.26806673098E+03  0.87670659251E+02 0.  0.
          1    1    3    3  502    0 -0.45505629585E+00  0.19080997741E+02  0.99795844270E+01  0.21537958500E+02  0.00000000000E+00 0. -1.
         -2    1    3    3    0  502  0.18814113915E+03  0.56747770687E+03  0.79326932297E+03  0.99332988216E+03  0.00000000000E+00 0.  1.
         11    1    5    5    0    0 -0.87053628692E+02 -0.29625423290E+03  0.16617561689E+02  0.30922653207E+03  0.00000000000E+00 0. -1.
        -11    1    5    5    0    0 -0.63292580676E+02 -0.51349299107E+03 -0.58447479641E+02  0.52066986711E+03  0.00000000000E+00 0.  1.
          3    1    6    6  503    0 -0.13944104344E+02 -0.45345005066E+00 -0.35455585405E+01  0.14394952181E+02  0.00000000000E+00 0. -1.
         -3    1    6    6    0  503 -0.23395769146E+02  0.22364196940E+03  0.11741498569E+03  0.25367177880E+03  0.00000000000E+00 0.  1.
<mgrwt>
<rscale>  0 0.19229989E+04</rscale>
<asrwt>0</asrwt>
<pdfrwt beam="1">  1        1 0.22985534E+00 0.19229989E+04</pdfrwt>
<pdfrwt beam="2">  1       -2 0.95195582E-01 0.19229989E+04</pdfrwt>
<totfact> 0.50201453E+00</totfact>
</mgrwt>
</event>
<event>
12    4  0.4207946E-008  0.1494031E+04  0.7818608E-02  0.8888432E-01
         -2   -1    0    0    0  501 -0.00000000000E+00  0.00000000000E+00  0.13877172393E+04  0.13877172393E+04  0.00000000000E+00 0.  1.
          1   -1    0    0  501    0  0.00000000000E+00 -0.00000000000E+00 -0.40212215079E+03  0.40212215079E+03  0.00000000000E+00 0. -1.
        -24    2    1    2    0    0  0.44704887413E+03  0.61068183420E+02  0.13708068750E+03  0.47681350788E+03  0.70554854725E+02 0.  0.
        254    2    1    2    0    0 -0.44704887413E+03 -0.61068183420E+02  0.84851440103E+03  0.13130258822E+04  0.89469450638E+03 0.  0.
         23    2    4    4    0    0 -0.35414353325E+01 -0.19809096707E+03  0.80886955214E+03  0.83789909097E+03  0.92478977363E+02 0.  0.
         23    2    4    4    0    0 -0.44350743880E+03  0.13702278365E+03  0.39644848885E+02  0.47512679126E+03  0.93271979831E+02 0.  0.
          3    1    3    3  502    0  0.32277200942E+03  0.67216587258E+02  0.12168527977E+03  0.35143583622E+03  0.00000000000E+00 0. -1.
         -4    1    3    3    0  502  0.12427686471E+03 -0.61484038376E+01  0.15395407730E+02  0.12537767166E+03  0.00000000000E+00 0.  1.
         11    1    5    5    0    0 -0.39231549734E+02 -0.11553637480E+03  0.56367399735E+03  0.57672883029E+03  0.00000000000E+00 0. -1.
        -11    1    5    5    0    0  0.35690114402E+02 -0.82554592275E+02  0.24519555480E+03  0.26117026068E+03  0.00000000000E+00 0.  1.
          2    1    6    6  503    0 -0.12931973873E+03 -0.31528645188E+01  0.14536582104E+02  0.13017237648E+03  0.00000000000E+00 0.  1.
         -2    1    6    6    0  503 -0.31418770007E+03  0.14017564817E+03  0.25108266780E+02  0.34495441478E+03  0.00000000000E+00 0. -1.
<mgrwt>
<rscale>  0 0.14940306E+04</rscale>
<asrwt>0</asrwt>
<pdfrwt beam="1">  1        1 0.61864947E-01 0.14940306E+04</pdfrwt>
<pdfrwt beam="2">  1       -2 0.21349496E+00 0.14940306E+04</pdfrwt>
<totfact> 0.54758818E+00</totfact>
</mgrwt>
</event>
<event>
12    4  0.4207946E-008  0.1018438E+04  0.7818608E-02  0.9288551E-01
          1   -1    0    0  501    0  0.00000000000E+00  0.00000000000E+00  0.14720822028E+04  0.14720822028E+04  0.00000000000E+00 0. -1.
         -2   -1    0    0    0  501 -0.00000000000E+00 -0.00000000000E+00 -0.17614760048E+03  0.17614760048E+03  0.00000000000E+00 0.  1.
        -24    2    1    2    0    0  0.16834876082E+02 -0.68728381617E+02  0.76335249004E+02  0.13132296964E+03  0.80072770788E+02 0.  0.
        254    2    1    2    0    0 -0.16834876082E+02  0.68728381617E+02  0.12195993533E+04  0.15169068336E+04  0.89920896116E+03 0.  0.
         23    2    4    4    0    0 -0.22429717970E+03 -0.21438400687E+03  0.10792511887E+04  0.11267075345E+04  0.91744279969E+02 0.  0.
         23    2    4    4    0    0  0.20746230362E+03  0.28311238848E+03  0.14034816458E+03  0.39019929905E+03  0.96771141050E+02 0.  0.
          3    1    3    3  502    0 -0.37366404495E+01 -0.76243775411E+02  0.78276640213E+02  0.10933575890E+03  0.00000000000E+00 0. -1.
         -2    1    3    3    0  502  0.20571516532E+02  0.75153937939E+01 -0.19413912094E+01  0.21987210740E+02  0.00000000000E+00 0.  1.
         11    1    5    5    0    0 -0.52283522890E+02 -0.24208104306E+02  0.32474804086E+03  0.32981947959E+03  0.00000000000E+00 0. -1.
        -11    1    5    5    0    0 -0.17201365681E+03 -0.19017590256E+03  0.75450314783E+03  0.79688805495E+03  0.00000000000E+00 0.  1.
          4    1    6    6  503    0  0.26924406637E+02  0.71727422756E+02 -0.44823710437E+01  0.76745283231E+02  0.00000000000E+00 0. -1.
         -4    1    6    6    0  503  0.18053789698E+03  0.21138496573E+03  0.14483053563E+03  0.31345401582E+03  0.00000000000E+00 0.  1.
<mgrwt>
<rscale>  0 0.10184375E+04</rscale>
<asrwt>0</asrwt>
<pdfrwt beam="1">  1        1 0.22647418E+00 0.10184375E+04</pdfrwt>
<pdfrwt beam="2">  1       -2 0.27099632E-01 0.10184375E+04</pdfrwt>
<totfact> 0.74426541E+01</totfact>
</mgrwt>
</event>
<event>
12    4  0.4207946E-008  0.2542458E+04  0.7818608E-02  0.8388014E-01
          1   -1    0    0  501    0  0.00000000000E+00  0.00000000000E+00  0.13419860241E+04  0.13419860241E+04  0.00000000000E+00 0. -1.
         -2   -1    0    0    0  501 -0.00000000000E+00 -0.00000000000E+00 -0.12042023644E+04  0.12042023644E+04  0.00000000000E+00 0.  1.
        -24    2    1    2    0    0  0.14946187390E+03 -0.29984666891E+03  0.11171686028E+04  0.11689616249E+04  0.78477491377E+02 0.  0.
        254    2    1    2    0    0 -0.14946187390E+03  0.29984666891E+03 -0.97938494318E+03  0.13772267636E+04  0.90846673849E+03 0.  0.
         23    2    4    4    0    0  0.36066503119E+03  0.24072809805E+03 -0.50752700437E+03  0.67376644646E+03  0.91368935047E+02 0.  0.
         23    2    4    4    0    0 -0.51012690509E+03  0.59118570859E+02 -0.47185793881E+03  0.70346031718E+03  0.92097984307E+02 0.  0.
          3    1    3    3  502    0  0.13349904187E+03 -0.27897339102E+03  0.10802273621E+04  0.11236277413E+04  0.00000000000E+00 0. -1.
         -4    1    3    3    0  502  0.15962832033E+02 -0.20873277891E+02  0.36941240685E+02  0.45333883572E+02  0.00000000000E+00 0.  1.
         11    1    5    5    0    0  0.15728330460E+03  0.15414145773E+03 -0.28426898436E+03  0.35959210554E+03  0.00000000000E+00 0. -1.
        -11    1    5    5    0    0  0.20338172659E+03  0.86586640323E+02 -0.22325802001E+03  0.31417434091E+03  0.00000000000E+00 0.  1.
          1    1    6    6  503    0 -0.19630216376E+03 -0.21507075247E+02 -0.18910807904E+03  0.27342084658E+03  0.00000000000E+00 0. -1.
         -1    1    6    6    0  503 -0.31382474133E+03  0.80625646106E+02 -0.28274985977E+03  0.43003947061E+03  0.00000000000E+00 0.  1.
<mgrwt>
<rscale>  0 0.25424577E+04</rscale>
<asrwt>0</asrwt>
<pdfrwt beam="1">  1        1 0.20645939E+00 0.25424577E+04</pdfrwt>
<pdfrwt beam="2">  1       -2 0.18526190E+00 0.25424577E+04</pdfrwt>
<totfact> 0.10946719E+00</totfact>
</mgrwt>
</event>
<event>
12    4  0.4207946E-008  0.2679117E+04  0.7818608E-02  0.8341813E-01
          1   -1    0    0  501    0  0.00000000000E+00  0.00000000000E+00  0.30179548549E+04  0.30179548549E+04  0.00000000000E+00 0. -1.
         -2   -1    0    0    0  501 -0.00000000000E+00 -0.00000000000E+00 -0.59458064982E+03  0.59458064982E+03  0.00000000000E+00 0.  1.
        -24    2    1    2    0    0  0.11813540156E+04  0.51145857175E+02  0.10565958308E+04  0.15877648695E+04  0.79933237292E+02 0.  0.
        254    2    1    2    0    0 -0.11813540156E+04 -0.51145857175E+02  0.13667783743E+04  0.20247706352E+04  0.91290732938E+03 0.  0.
         23    2    4    4    0    0 -0.12584231906E+03  0.15699765420E+03  0.75097910357E+03  0.78192868135E+03  0.83416401457E+02 0.  0.
         23    2    4    4    0    0 -0.10555116965E+04 -0.20814351137E+03  0.61579927073E+03  0.12428419539E+04  0.89547293218E+02 0.  0.
          3    1    3    3  502    0  0.29591706857E+03 -0.33764780754E+01  0.22421351772E+03  0.37128158264E+03  0.00000000000E+00 0. -1.
         -4    1    3    3    0  502  0.88543694698E+03  0.54522335250E+02  0.83238231309E+03  0.12164832869E+04  0.00000000000E+00 0.  1.
         11    1    5    5    0    0 -0.13536101152E+03  0.12443479674E+03  0.63801548792E+03  0.66398071124E+03  0.00000000000E+00 0. -1.
        -11    1    5    5    0    0  0.95186924545E+01  0.32562857460E+02  0.11296361565E+03  0.11794797010E+03  0.00000000000E+00 0.  1.
          1    1    6    6  503    0 -0.32230339175E+03 -0.30823795502E+02  0.15584034940E+03  0.35932686680E+03  0.00000000000E+00 0. -1.
         -1    1    6    6    0  503 -0.73320830473E+03 -0.17731971587E+03  0.45995892133E+03  0.88351508707E+03  0.00000000000E+00 0.  1.
<mgrwt>
<rscale>  0 0.26791174E+04</rscale>
<asrwt>0</asrwt>
<pdfrwt beam="1">  1        1 0.46430074E+00 0.26791174E+04</pdfrwt>
<pdfrwt beam="2">  1       -2 0.91473948E-01 0.26791174E+04</pdfrwt>
<totfact> 0.45399709E-01</totfact>
</mgrwt>
</event>
<event>
12    4  0.4207946E-008  0.1477731E+04  0.7818608E-02  0.8899398E-01
         -2   -1    0    0    0  501 -0.00000000000E+00  0.00000000000E+00  0.57409374035E+03  0.57409374035E+03  0.00000000000E+00 0.  1.
          1   -1    0    0  501    0  0.00000000000E+00 -0.00000000000E+00 -0.95092851991E+03  0.95092851991E+03  0.00000000000E+00 0. -1.
        -24    2    1    2    0    0 -0.43605449285E+03  0.24765382519E+03 -0.19159833687E+03  0.54232373183E+03  0.77001100948E+02 0.  0.
        254    2    1    2    0    0  0.43605449285E+03 -0.24765382519E+03 -0.18523644268E+03  0.98269852843E+03  0.82456529166E+03 0.  0.
         23    2    4    4    0    0  0.45459302832E+03  0.86358901775E+02 -0.36140535609E+03  0.59398703156E+03  0.89967110284E+02 0.  0.
         23    2    4    4    0    0 -0.18538535472E+02 -0.33401272697E+03  0.17616891341E+03  0.38871149687E+03  0.90293757676E+02 0.  0.
          3    1    3    3  502    0 -0.38405350165E+03  0.20980963279E+03 -0.19228281715E+03  0.47800612540E+03  0.00000000000E+00 0. -1.
         -4    1    3    3    0  502 -0.52000991199E+02  0.37844192400E+02  0.68448028596E+00  0.64317606434E+02  0.00000000000E+00 0.  1.
         11    1    5    5    0    0  0.12804088288E+03 -0.26187546309E+01 -0.13896144829E+03  0.18897515624E+03  0.00000000000E+00 0. -1.
        -11    1    5    5    0    0  0.32655214544E+03  0.88977656405E+02 -0.22244390780E+03  0.40501187532E+03  0.00000000000E+00 0.  1.
          3    1    6    6  503    0  0.33560608965E+01 -0.21022600098E+01  0.21530057218E+02  0.21891231251E+02  0.00000000000E+00 0. -1.
         -3    1    6    6    0  503 -0.21894596369E+02 -0.33191046696E+03  0.15463885619E+03  0.36682026562E+03  0.00000000000E+00 0.  1.
<mgrwt>
<rscale>  0 0.14777308E+04</rscale>
<asrwt>0</asrwt>
<pdfrwt beam="1">  1        1 0.14629669E+00 0.14777308E+04</pdfrwt>
<pdfrwt beam="2">  1       -2 0.88322115E-01 0.14777308E+04</pdfrwt>
<totfact> 0.15512849E+01</totfact>
</mgrwt>
</event>
<event>
12    4  0.4207946E-008  0.1459594E+04  0.7818608E-02  0.8911776E-01
          3   -1    0    0  501    0  0.00000000000E+00  0.00000000000E+00  0.39006019136E+03  0.39006019136E+03  0.00000000000E+00 0. -1.
         -4   -1    0    0    0  501 -0.00000000000E+00 -0.00000000000E+00 -0.13654388343E+04  0.13654388343E+04  0.00000000000E+00 0.  1.
        -24    2    1    2    0    0 -0.29973384301E+02  0.63518777510E+02  0.22814819428E+03  0.24979664752E+03  0.73578038127E+02 0.  0.
        254    2    1    2    0    0  0.29973384301E+02 -0.63518777510E+02 -0.12035268372E+04  0.15057023781E+04  0.90206971170E+03 0.  0.
         23    2    4    4    0    0 -0.98197828914E+02  0.61197260227E+02 -0.12821335321E+04  0.12904071433E+04  0.88861031193E+02 0.  0.
         23    2    4    4    0    0  0.12817121322E+03 -0.12471603774E+03  0.78606694947E+02  0.21529523486E+03  0.90504561747E+02 0.  0.
          3    1    3    3  502    0  0.22021260420E+01  0.62492229748E+02  0.10231015917E+03  0.11990620004E+03  0.00000000000E+00 0. -1.
         -4    1    3    3    0  502 -0.32175510343E+02  0.10265477620E+01  0.12583803511E+03  0.12989044748E+03  0.00000000000E+00 0.  1.
         11    1    5    5    0    0 -0.62437613115E+02  0.41559731039E+02 -0.11418737841E+04  0.11443344816E+04  0.00000000000E+00 0.  1.
        -11    1    5    5    0    0 -0.35760215799E+02  0.19637529188E+02 -0.14025974801E+03  0.14607266170E+03  0.00000000000E+00 0. -1.
          1    1    6    6  503    0 -0.11532260123E+02 -0.27758487717E+02  0.75375523115E+01  0.30989374933E+02  0.00000000000E+00 0. -1.
         -1    1    6    6    0  503  0.13970347334E+03 -0.96957550020E+02  0.71069142635E+02  0.18430585993E+03  0.00000000000E+00 0.  1.
<mgrwt>
<rscale>  0 0.14595936E+04</rscale>
<asrwt>0</asrwt>
<pdfrwt beam="1">  1        3 0.60009261E-01 0.14595936E+04</pdfrwt>
<pdfrwt beam="2">  1       -4 0.21006751E+00 0.14595936E+04</pdfrwt>
<totfact> 0.68053858E-01</totfact>
</mgrwt>
</event>
<event>
12    4  0.4207946E-008  0.1829551E+04  0.7818608E-02  0.8690740E-01
         -2   -1    0    0    0  501 -0.00000000000E+00  0.00000000000E+00  0.83647946207E+03  0.83647946207E+03  0.00000000000E+00 0.  1.
          1   -1    0    0  501    0  0.00000000000E+00 -0.00000000000E+00 -0.10004005136E+04  0.10004005136E+04  0.00000000000E+00 0. -1.
        -24    2    1    2    0    0  0.16382111002E+03  0.59437115899E+03  0.24825272917E+03  0.66946806816E+03  0.80272324110E+02 0.  0.
        254    2    1    2    0    0 -0.16382111002E+03 -0.59437115899E+03 -0.41217378069E+03  0.11674119075E+04  0.90158133606E+03 0.  0.
         23    2    4    4    0    0 -0.13892494078E+03  0.21682954351E+03 -0.12106760564E+03  0.29991992847E+03  0.94759739610E+02 0.  0.
         23    2    4    4    0    0 -0.24896169240E+02 -0.81120070250E+03 -0.29110617505E+03  0.86749197902E+03  0.95567408291E+02 0.  0.
          1    1    3    3  502    0  0.10584899046E+03  0.37988771483E+03  0.11670324611E+03  0.41126430955E+03  0.00000000000E+00 0. -1.
         -2    1    3    3    0  502  0.57972119554E+02  0.21448344417E+03  0.13154948306E+03  0.25820375861E+03  0.00000000000E+00 0.  1.
         11    1    5    5    0    0  0.37568812303E+01  0.22635278619E+02  0.10648396153E+02  0.25295421234E+02  0.00000000000E+00 0. -1.
        -11    1    5    5    0    0 -0.14268182201E+03  0.19419426489E+03 -0.13171600179E+03  0.27462450724E+03  0.00000000000E+00 0.  1.
          1    1    6    6  503    0 -0.56941998190E+01 -0.30705446093E+03 -0.15969556875E+03  0.34614670382E+03  0.00000000000E+00 0. -1.
         -1    1    6    6    0  503 -0.19201969421E+02 -0.50414624157E+03 -0.13141060629E+03  0.52134527519E+03  0.00000000000E+00 0.  1.
<mgrwt>
<rscale>  0 0.18295513E+04</rscale>
<asrwt>0</asrwt>
<pdfrwt beam="1">  1        1 0.15390777E+00 0.18295513E+04</pdfrwt>
<pdfrwt beam="2">  1       -2 0.12868915E+00 0.18295513E+04</pdfrwt>
<totfact> 0.55588171E+00</totfact>
</mgrwt>
</event>
<event>
12    4  0.4207946E-008  0.2876791E+04  0.7818608E-02  0.8279817E-01
         -2   -1    0    0    0  501 -0.00000000000E+00  0.00000000000E+00  0.33195368854E+04  0.33195368854E+04  0.00000000000E+00 0.  1.
          1   -1    0    0  501    0  0.00000000000E+00 -0.00000000000E+00 -0.62327408624E+03  0.62327408624E+03  0.00000000000E+00 0. -1.
        -24    2    1    2    0    0  0.12118738301E+04 -0.15509179363E+03  0.18332162705E+04  0.22044298872E+04  0.78342763391E+02 0.  0.
        254    2    1    2    0    0 -0.12118738301E+04  0.15509179363E+03  0.86304652859E+03  0.17383810844E+04  0.88567930951E+03 0.  0.
         23    2    4    4    0    0 -0.54309845704E+03 -0.35756142056E+03  0.44749386295E+03  0.79445094276E+03  0.89974660604E+02 0.  0.
         23    2    4    4    0    0 -0.66877537310E+03  0.51265321420E+03  0.41555266563E+03  0.94393014159E+03  0.90809011704E+02 0.  0.
          3    1    3    3  502    0  0.33282332551E+03 -0.77627625880E+02  0.52103726544E+03  0.62311896640E+03  0.00000000000E+00 0. -1.
         -4    1    3    3    0  502  0.87905050463E+03 -0.77464167752E+02  0.13121790051E+04  0.15813109208E+04  0.00000000000E+00 0.  1.
         11    1    5    5    0    0 -0.37922719063E+03 -0.26984990641E+03  0.36311639624E+03  0.59032681738E+03  0.00000000000E+00 0.  1.
        -11    1    5    5    0    0 -0.16387126642E+03 -0.87711514150E+02  0.84377466710E+02  0.20412412537E+03  0.00000000000E+00 0. -1.
          2    1    6    6  503    0 -0.54532071651E+03  0.43532369379E+03  0.37762791508E+03  0.79340043135E+03  0.00000000000E+00 0. -1.
         -2    1    6    6    0  503 -0.12345465659E+03  0.77329520408E+02  0.37924750555E+02  0.15052971024E+03  0.00000000000E+00 0.  1.
<mgrwt>
<rscale>  0 0.28767908E+04</rscale>
<asrwt>0</asrwt>
<pdfrwt beam="1">  1        1 0.95888323E-01 0.28767908E+04</pdfrwt>
<pdfrwt beam="2">  1       -2 0.51069797E+00 0.28767908E+04</pdfrwt>
<totfact> 0.34518246E-02</totfact>
</mgrwt>
</event>
<event>
12    4  0.4207946E-008  0.1430651E+04  0.7818608E-02  0.8931926E-01
          1   -1    0    0  501    0  0.00000000000E+00  0.00000000000E+00  0.10771994667E+04  0.10771994667E+04  0.00000000000E+00 0. -1.
         -2   -1    0    0    0  501 -0.00000000000E+00 -0.00000000000E+00 -0.47501905125E+03  0.47501905125E+03  0.00000000000E+00 0.  1.
        -24    2    1    2    0    0  0.10123114612E+03  0.25744580874E+03 -0.14650672006E+03  0.32301540208E+03  0.79678363277E+02 0.  0.
        254    2    1    2    0    0 -0.10123114612E+03 -0.25744580874E+03  0.74868713549E+03  0.12292031159E+04  0.93481644390E+03 0.  0.
         23    2    4    4    0    0  0.32226650610E+03  0.10877843452E+02  0.14086564848E+02  0.33550558163E+03  0.91605324990E+02 0.  0.
         23    2    4    4    0    0 -0.42349765222E+03 -0.26832365219E+03  0.73460057065E+03  0.89369753422E+03  0.87803419730E+02 0.  0.
          3    1    3    3  502    0  0.58363254464E+02  0.61773281023E+02 -0.24391634024E+02  0.88414702003E+02  0.00000000000E+00 0. -1.
         -4    1    3    3    0  502  0.42867891658E+02  0.19567252772E+03 -0.12211508603E+03  0.23460070007E+03  0.00000000000E+00 0.  1.
         11    1    5    5    0    0 -0.16770415079E+01  0.60138673885E+00  0.11246387405E+02  0.11386630928E+02  0.00000000000E+00 0.  1.
        -11    1    5    5    0    0  0.32394354761E+03  0.10276456714E+02  0.28401774433E+01  0.32411895071E+03  0.00000000000E+00 0. -1.
          4    1    6    6  503    0 -0.28810620404E+03 -0.18195194589E+03  0.56745019044E+03  0.66189985198E+03  0.00000000000E+00 0. -1.
         -4    1    6    6    0  503 -0.13539144818E+03 -0.86371706298E+02  0.16715038021E+03  0.23179768224E+03  0.00000000000E+00 0.  1.
<mgrwt>
<rscale>  0 0.14306506E+04</rscale>
<asrwt>0</asrwt>
<pdfrwt beam="1">  1        1 0.16572299E+00 0.14306506E+04</pdfrwt>
<pdfrwt beam="2">  1       -2 0.73079854E-01 0.14306506E+04</pdfrwt>
<totfact> 0.19030110E+01</totfact>
</mgrwt>
</event>
<event>
12    4  0.4207946E-008  0.1618544E+04  0.7818608E-02  0.8809236E-01
         -2   -1    0    0    0  501 -0.00000000000E+00  0.00000000000E+00  0.37267992677E+03  0.37267992677E+03  0.00000000000E+00 0.  1.
          1   -1    0    0  501    0  0.00000000000E+00 -0.00000000000E+00 -0.17573298777E+04  0.17573298777E+04  0.00000000000E+00 0. -1.
        -24    2    1    2    0    0  0.12437922042E+03 -0.19065420913E+03 -0.11950322171E+04  0.12191271561E+04  0.79685663609E+02 0.  0.
        254    2    1    2    0    0 -0.12437922042E+03  0.19065420913E+03 -0.18961773386E+03  0.91088264837E+03  0.86135538321E+03 0.  0.
         23    2    4    4    0    0 -0.44667014156E+03  0.18374264233E+03 -0.27820654201E+03  0.56452407622E+03  0.89515242556E+02 0.  0.
         23    2    4    4    0    0  0.32229092113E+03  0.69115668003E+01  0.88588808156E+02  0.34635857215E+03  0.90537704684E+02 0.  0.
          3    1    3    3  502    0  0.13574691451E+03 -0.17579440501E+03 -0.10825705789E+04  0.11051198831E+04  0.00000000000E+00 0. -1.
         -4    1    3    3    0  502 -0.11367694091E+02 -0.14859804122E+02 -0.11246163817E+03  0.11400727305E+03  0.00000000000E+00 0.  1.
         11    1    5    5    0    0 -0.69184608127E+02  0.53494647188E+02 -0.80815521926E+02  0.11907701652E+03  0.00000000000E+00 0. -1.
        -11    1    5    5    0    0 -0.37748553343E+03  0.13024799514E+03 -0.19739102009E+03  0.44544705970E+03  0.00000000000E+00 0.  1.
          2    1    6    6  503    0  0.22930770474E+02 -0.59839835742E+01  0.34534933229E+02  0.41884244138E+02  0.00000000000E+00 0. -1.
         -2    1    6    6    0  503  0.29936015066E+03  0.12895550375E+02  0.54053874927E+02  0.30447432801E+03  0.00000000000E+00 0.  1.
<mgrwt>
<rscale>  0 0.16185445E+04</rscale>
<asrwt>0</asrwt>
<pdfrwt beam="1">  1        1 0.27035844E+00 0.16185445E+04</pdfrwt>
<pdfrwt beam="2">  1       -2 0.57335373E-01 0.16185445E+04</pdfrwt>
<totfact> 0.10440923E+01</totfact>
</mgrwt>
</event>
<event>
12    4  0.4207946E-008  0.1407300E+04  0.7818608E-02  0.8948552E-01
         -2   -1    0    0    0  501 -0.00000000000E+00  0.00000000000E+00  0.42842617335E+03  0.42842617335E+03  0.00000000000E+00 0.  1.
          1   -1    0    0  501    0  0.00000000000E+00 -0.00000000000E+00 -0.11556788776E+04  0.11556788776E+04  0.00000000000E+00 0. -1.
        -24    2    1    2    0    0  0.72797113812E+02 -0.13098181844E+03 -0.63986458341E+03  0.66198442204E+03  0.79630605859E+02 0.  0.
        254    2    1    2    0    0 -0.72797113812E+02  0.13098181844E+03 -0.87388120795E+02  0.92212062886E+03  0.90565673077E+03 0.  0.
         23    2    4    4    0    0 -0.62729107992E+02 -0.39332080791E+01 -0.48219074650E+03  0.49481329209E+03  0.91552536290E+02 0.  0.
         23    2    4    4    0    0 -0.10068005819E+02  0.13491502652E+03  0.39480262571E+03  0.42730733677E+03  0.91755205164E+02 0.  0.
          1    1    3    3  502    0  0.77579202712E+02 -0.13823190371E+03 -0.57168998226E+03  0.59325882017E+03  0.00000000000E+00 0. -1.
         -2    1    3    3    0  502 -0.47820888998E+01  0.72500852774E+01 -0.68174601150E+02  0.68725601873E+02  0.00000000000E+00 0.  1.
         11    1    5    5    0    0 -0.37879773521E+02  0.42969310537E+02 -0.27768398528E+03  0.28353065896E+03  0.00000000000E+00 0. -1.
        -11    1    5    5    0    0 -0.24849334471E+02 -0.46902518616E+02 -0.20450676122E+03  0.21128263313E+03  0.00000000000E+00 0.  1.
          3    1    6    6  503    0 -0.10438358305E+02  0.10534173663E+03  0.37953958507E+03  0.39402555429E+03  0.00000000000E+00 0. -1.
         -3    1    6    6    0  503  0.37035248522E+00  0.29573289891E+02  0.15263040642E+02  0.33281782488E+02  0.00000000000E+00 0.  1.
<mgrwt>
<rscale>  0 0.14072997E+04</rscale>
<asrwt>0</asrwt>
<pdfrwt beam="1">  1        1 0.17779675E+00 0.14072997E+04</pdfrwt>
<pdfrwt beam="2">  1       -2 0.65911720E-01 0.14072997E+04</pdfrwt>
<totfact> 0.20858010E+01</totfact>
</mgrwt>
</event>
<event>
12    4  0.4207946E-008  0.9272692E+03  0.7818608E-02  0.9392121E-01
         -2   -1    0    0    0  501 -0.00000000000E+00  0.00000000000E+00  0.16051706577E+03  0.16051706577E+03  0.00000000000E+00 0.  1.
          1   -1    0    0  501    0  0.00000000000E+00 -0.00000000000E+00 -0.13391537123E+04  0.13391537123E+04  0.00000000000E+00 0. -1.
        -24    2    1    2    0    0 -0.48848164803E+02  0.16290975581E+03 -0.23568971651E+03  0.30127211248E+03  0.79306440789E+02 0.  0.
        254    2    1    2    0    0  0.48848164803E+02 -0.16290975581E+03 -0.94294693000E+03  0.11983986656E+04  0.71978102023E+03 0.  0.
         23    2    4    4    0    0 -0.12953467552E+03 -0.36928700054E+03 -0.32764773303E+03  0.51887516909E+03  0.93414577054E+02 0.  0.
         23    2    4    4    0    0  0.17838284033E+03  0.20637724473E+03 -0.61529919697E+03  0.67952349648E+03  0.93525801853E+02 0.  0.
          3    1    3    3  502    0  0.16147947592E+02  0.79604818003E+02 -0.11608208647E+03  0.14167827660E+03  0.00000000000E+00 0. -1.
         -4    1    3    3    0  502 -0.64996112395E+02  0.83304937807E+02 -0.11960763004E+03  0.15959383589E+03  0.00000000000E+00 0.  1.
         11    1    5    5    0    0 -0.54638165929E+02 -0.13876481337E+03 -0.68733357060E+02  0.16421107447E+03  0.00000000000E+00 0. -1.
        -11    1    5    5    0    0 -0.74896509596E+02 -0.23052218716E+03 -0.25891437597E+03  0.35466409461E+03  0.00000000000E+00 0.  1.
          1    1    6    6  503    0 -0.22800123553E+00 -0.78130067345E+01 -0.32575446993E+02  0.33500071725E+02  0.00000000000E+00 0. -1.
         -1    1    6    6    0  503  0.17861084156E+03  0.21419025146E+03 -0.58272374998E+03  0.64602342476E+03  0.00000000000E+00 0.  1.
<mgrwt>
<rscale>  0 0.92726916E+03</rscale>
<asrwt>0</asrwt>
<pdfrwt beam="1">  1        1 0.20602365E+00 0.92726916E+03</pdfrwt>
<pdfrwt beam="2">  1       -2 0.24694933E-01 0.92726916E+03</pdfrwt>
<totfact> 0.10984471E+02</totfact>
</mgrwt>
</event>
<event>
12    4  0.4207946E-008  0.1418268E+04  0.7818608E-02  0.8940701E-01
         -2   -1    0    0    0  501 -0.00000000000E+00  0.00000000000E+00  0.67072175514E+03  0.67072175514E+03  0.00000000000E+00 0.  1.
          1   -1    0    0  501    0  0.00000000000E+00 -0.00000000000E+00 -0.74974567014E+03  0.74974567014E+03  0.00000000000E+00 0. -1.
        -24    2    1    2    0    0 -0.65540549767E+02 -0.10655864536E+03  0.37232549284E+03  0.40164789382E+03  0.83931218459E+02 0.  0.
        254    2    1    2    0    0  0.65540549767E+02  0.10655864536E+03 -0.45134940784E+03  0.10188195315E+04  0.90477988548E+03 0.  0.
         23    2    4    4    0    0 -0.31794100718E+03  0.30463516208E+03 -0.11879906335E+03  0.46636026341E+03  0.97414638622E+02 0.  0.
         23    2    4    4    0    0  0.38348155694E+03 -0.19807651672E+03 -0.33255034449E+03  0.55245926805E+03  0.91263904387E+02 0.  0.
          3    1    3    3  502    0 -0.22113303495E+02 -0.46989519680E+02  0.54087276468E+02  0.74982975581E+02  0.00000000000E+00 0. -1.
         -4    1    3    3    0  502 -0.43427246271E+02 -0.59569125682E+02  0.31823821637E+03  0.32666491824E+03  0.00000000000E+00 0.  1.
         11    1    5    5    0    0  0.32523227722E+01  0.16297511024E+02  0.49525080978E+01  0.17341101621E+02  0.00000000000E+00 0. -1.
        -11    1    5    5    0    0 -0.32119332995E+03  0.28833765106E+03 -0.12375157145E+03  0.44901916179E+03  0.00000000000E+00 0.  1.
          4    1    6    6  503    0  0.36452972754E+03 -0.20576394299E+03 -0.32725101881E+03  0.53133224240E+03  0.00000000000E+00 0.  1.
         -4    1    6    6    0  503  0.18951829399E+02  0.76874262712E+01 -0.52993256744E+01  0.21127025650E+02  0.00000000000E+00 0. -1.
<mgrwt>
<rscale>  0 0.14182676E+04</rscale>
<asrwt>0</asrwt>
<pdfrwt beam="1">  1        1 0.11534549E+00 0.14182676E+04</pdfrwt>
<pdfrwt beam="2">  1       -2 0.10318796E+00 0.14182676E+04</pdfrwt>
<totfact> 0.16016769E+01</totfact>
</mgrwt>
</event>
<event>
12    4  0.4207946E-008  0.1173193E+04  0.7818608E-02  0.9136650E-01
         -2   -1    0    0    0  501 -0.00000000000E+00  0.00000000000E+00  0.28143364684E+03  0.28143364684E+03  0.00000000000E+00 0.  1.
          1   -1    0    0  501    0  0.00000000000E+00 -0.00000000000E+00 -0.12226521523E+04  0.12226521523E+04  0.00000000000E+00 0. -1.
        -24    2    1    2    0    0  0.11094075815E+03  0.85562972978E+02 -0.37354202058E+03  0.40681238378E+03  0.79585176342E+02 0.  0.
        254    2    1    2    0    0 -0.11094075815E+03 -0.85562972978E+02 -0.56767648491E+03  0.10972734154E+04  0.92850604869E+03 0.  0.
         23    2    4    4    0    0 -0.20388781572E+03  0.36875314665E+03 -0.12197969340E+03  0.44765774618E+03  0.89270866140E+02 0.  0.
         23    2    4    4    0    0  0.92947057573E+02 -0.45431611963E+03 -0.44569679150E+03  0.64961566922E+03  0.91173437307E+02 0.  0.
          1    1    3    3  502    0  0.12126146185E+03  0.73782032617E+02 -0.35622226320E+03  0.38346112094E+03  0.00000000000E+00 0. -1.
         -2    1    3    3    0  502 -0.10320703704E+02  0.11780940361E+02 -0.17319757373E+02  0.23351262839E+02  0.00000000000E+00 0.  1.
         11    1    5    5    0    0 -0.37991316555E+02  0.14960678750E+03 -0.26034763776E+02  0.15653542706E+03  0.00000000000E+00 0.  1.
        -11    1    5    5    0    0 -0.16589649917E+03  0.21914635915E+03 -0.95944929627E+02  0.29112231911E+03  0.00000000000E+00 0. -1.
          1    1    6    6  503    0  0.79127276800E+01 -0.31273375084E+02 -0.46506090219E+01  0.32592382741E+02  0.00000000000E+00 0. -1.
         -1    1    6    6    0  503  0.85034329893E+02 -0.42304274455E+03 -0.44104618248E+03  0.61702328648E+03  0.00000000000E+00 0.  1.
<mgrwt>
<rscale>  0 0.11731930E+04</rscale>
<asrwt>0</asrwt>
<pdfrwt beam="1">  1        1 0.18810033E+00 0.11731930E+04</pdfrwt>
<pdfrwt beam="2">  1       -2 0.43297483E-01 0.11731930E+04</pdfrwt>
<totfact> 0.45235774E+01</totfact>
</mgrwt>
</event>
<event>
12    4  0.4207946E-008  0.2107788E+04  0.7818608E-02  0.8557820E-01
          1   -1    0    0  501    0  0.00000000000E+00  0.00000000000E+00  0.29894369277E+04  0.29894369277E+04  0.00000000000E+00 0. -1.
         -2   -1    0    0    0  501 -0.00000000000E+00 -0.00000000000E+00 -0.37153912840E+03  0.37153912840E+03  0.00000000000E+00 0.  1.
        -24    2    1    2    0    0 -0.71074994174E+03  0.33342332323E+03  0.16142576267E+04  0.17968509717E+04  0.80679223918E+02 0.  0.
        254    2    1    2    0    0  0.71074994174E+03 -0.33342332323E+03  0.10036401726E+04  0.15641250843E+04  0.90711470675E+03 0.  0.
         23    2    4    4    0    0  0.82286250884E+03 -0.16882792957E+03  0.10431775028E+04  0.13420646081E+04  0.85513341982E+02 0.  0.
         23    2    4    4    0    0 -0.11211256709E+03 -0.16459539366E+03 -0.39537330216E+02  0.22206047624E+03  0.89926543978E+02 0.  0.
          1    1    3    3  502    0 -0.39878232100E+03  0.19839303283E+03  0.10024456116E+04  0.10969431796E+04  0.00000000000E+00 0. -1.
         -2    1    3    3    0  502 -0.31196762075E+03  0.13503029040E+03  0.61181201504E+03  0.69990779212E+03  0.00000000000E+00 0.  1.
         11    1    5    5    0    0  0.22662940501E+03 -0.80920588310E+02  0.32804886291E+03  0.40684774214E+03  0.00000000000E+00 0. -1.
        -11    1    5    5    0    0  0.59623310382E+03 -0.87907341260E+02  0.71512863989E+03  0.93521686594E+03  0.00000000000E+00 0.  1.
          1    1    6    6  503    0 -0.63941043125E+02 -0.33803086549E+02  0.12275032034E+02  0.73360630229E+02  0.00000000000E+00 0. -1.
         -1    1    6    6    0  503 -0.48171523967E+02 -0.13079230711E+03 -0.51812362250E+02  0.14869984601E+03  0.00000000000E+00 0.  1.
<mgrwt>
<rscale>  0 0.21077882E+04</rscale>
<asrwt>0</asrwt>
<pdfrwt beam="1">  1        1 0.45991336E+00 0.21077882E+04</pdfrwt>
<pdfrwt beam="2">  1       -2 0.57159868E-01 0.21077882E+04</pdfrwt>
<totfact> 0.14113688E+00</totfact>
</mgrwt>
</event>
<event>
12    4  0.4207946E-008  0.4225551E+04  0.7818608E-02  0.7960530E-01
         -2   -1    0    0    0  501 -0.00000000000E+00  0.00000000000E+00  0.17047336735E+04  0.17047336735E+04  0.00000000000E+00 0.  1.
          1   -1    0    0  501    0  0.00000000000E+00 -0.00000000000E+00 -0.26184854725E+04  0.26184854725E+04  0.00000000000E+00 0. -1.
        -24    2    1    2    0    0  0.74018583957E+02  0.14877998798E+03 -0.24912650417E+04  0.24983255741E+04  0.87263571378E+02 0.  0.
        254    2    1    2    0    0 -0.74018583957E+02 -0.14877998798E+03  0.15775132426E+04  0.18248935719E+04  0.90226065101E+03 0.  0.
         23    2    4    4    0    0  0.28895868732E+03 -0.36694850808E+03  0.70898242396E+03  0.85415430774E+03  0.93675895448E+02 0.  0.
         23    2    4    4    0    0 -0.36297727127E+03  0.21816852010E+03  0.86853081866E+03  0.97073926411E+03  0.92945862227E+02 0.  0.
          3    1    3    3  502    0  0.79101728253E+02  0.12183322174E+03 -0.23461376754E+04  0.23506302154E+04  0.00000000000E+00 0. -1.
         -4    1    3    3    0  502 -0.50831442963E+01  0.26946766239E+02 -0.14512736625E+03  0.14769535877E+03  0.00000000000E+00 0.  1.
         11    1    5    5    0    0  0.27857780385E+03 -0.34171213239E+03  0.69611767293E+03  0.82398579404E+03  0.00000000000E+00 0. -1.
        -11    1    5    5    0    0  0.10380883468E+02 -0.25236375694E+02  0.12864751032E+02  0.30168513700E+02  0.00000000000E+00 0.  1.
          3    1    6    6  503    0 -0.30994446441E+03  0.20672623240E+03  0.69012220984E+03  0.78426396749E+03  0.00000000000E+00 0. -1.
         -3    1    6    6    0  503 -0.53032806864E+02  0.11442287700E+02  0.17840860882E+03  0.18647529663E+03  0.00000000000E+00 0.  1.
<mgrwt>
<rscale>  0 0.42255510E+04</rscale>
<asrwt>0</asrwt>
<pdfrwt beam="1">  1        1 0.40284391E+00 0.42255510E+04</pdfrwt>
<pdfrwt beam="2">  1       -2 0.26226672E+00 0.42255510E+04</pdfrwt>
<totfact> 0.40916474E-02</totfact>
</mgrwt>
</event>
<event>
12    4  0.4207946E-008  0.1499149E+04  0.7818608E-02  0.8885019E-01
         -2   -1    0    0    0  501 -0.00000000000E+00  0.00000000000E+00  0.27462386285E+03  0.27462386285E+03  0.00000000000E+00 0.  1.
          1   -1    0    0  501    0  0.00000000000E+00 -0.00000000000E+00 -0.20459332375E+04  0.20459332375E+04  0.00000000000E+00 0. -1.
        -24    2    1    2    0    0  0.47243896649E+02  0.14028605682E+03 -0.12662992920E+04  0.12775073026E+04  0.81233292944E+02 0.  0.
        254    2    1    2    0    0 -0.47243896649E+02 -0.14028605682E+03 -0.50501008267E+03  0.10430497977E+04  0.90055845642E+03 0.  0.
         23    2    4    4    0    0 -0.17490775659E+03  0.66003489438E+02 -0.69257064144E+03  0.72291767996E+03  0.89480135757E+02 0.  0.
         23    2    4    4    0    0  0.12766385994E+03 -0.20628954626E+03  0.18756055877E+03  0.32013211776E+03  0.91935692654E+02 0.  0.
          3    1    3    3  502    0  0.14845681130E+02  0.13361959871E+03 -0.94616836850E+03  0.95567210536E+03  0.00000000000E+00 0. -1.
         -4    1    3    3    0  502  0.32398215519E+02  0.66664581134E+01 -0.32013092349E+03  0.32183519728E+03  0.00000000000E+00 0.  1.
         11    1    5    5    0    0 -0.14221204086E+03  0.16018899560E+02 -0.41466738596E+03  0.43866833791E+03  0.00000000000E+00 0.  1.
        -11    1    5    5    0    0 -0.32695715721E+02  0.49984589878E+02 -0.27790325548E+03  0.28424934205E+03  0.00000000000E+00 0. -1.
          2    1    6    6  503    0  0.83599198212E+02 -0.17499449390E+03  0.18171965658E+03  0.26577045062E+03  0.00000000000E+00 0. -1.
         -2    1    6    6    0  503  0.44064661725E+02 -0.31295052364E+02  0.58409021879E+01  0.54361667135E+02  0.00000000000E+00 0.  1.
<mgrwt>
<rscale>  0 0.14991492E+04</rscale>
<asrwt>0</asrwt>
<pdfrwt beam="1">  1        1 0.31475895E+00 0.14991492E+04</pdfrwt>
<pdfrwt beam="2">  1       -2 0.42249826E-01 0.14991492E+04</pdfrwt>
<totfact> 0.12517009E+01</totfact>
</mgrwt>
</event>
<event>
12    4  0.4207946E-008  0.1526582E+04  0.7818608E-02  0.8866966E-01
         -2   -1    0    0    0  501 -0.00000000000E+00  0.00000000000E+00  0.70455109879E+03  0.70455109879E+03  0.00000000000E+00 0.  1.
          1   -1    0    0  501    0  0.00000000000E+00 -0.00000000000E+00 -0.82692768696E+03  0.82692768696E+03  0.00000000000E+00 0. -1.
        -24    2    1    2    0    0 -0.40747436868E+03  0.47499138259E+02  0.23515339211E+03  0.47967045969E+03  0.80592200662E+02 0.  0.
        254    2    1    2    0    0  0.40747436868E+03 -0.47499138259E+02 -0.35752998029E+03  0.10518083261E+04  0.90010084918E+03 0.  0.
         23    2    4    4    0    0 -0.25988579736E+03 -0.75676105431E+02  0.45284950135E+01  0.28756371507E+03  0.96978772686E+02 0.  0.
         23    2    4    4    0    0  0.66736016605E+03  0.28176967172E+02 -0.36205847530E+03  0.76424461099E+03  0.82583007872E+02 0.  0.
          1    1    3    3  502    0 -0.12169600555E+03 -0.79328184164E+01  0.36703927419E+02  0.12735786455E+03  0.00000000000E+00 0. -1.
         -2    1    3    3    0  502 -0.28577836313E+03  0.55431956675E+02  0.19844946469E+03  0.35231259514E+03  0.00000000000E+00 0.  1.
         11    1    5    5    0    0 -0.14733876049E+03  0.74995248865E+01  0.50590538248E+01  0.14761621605E+03  0.00000000000E+00 0. -1.
        -11    1    5    5    0    0 -0.11254703688E+03 -0.83175630318E+02 -0.53055881133E+00  0.13994749902E+03  0.00000000000E+00 0.  1.
          1    1    6    6  503    0  0.11688789963E+03 -0.20919306688E+02 -0.44235750043E+02  0.12671700775E+03  0.00000000000E+00 0. -1.
         -1    1    6    6    0  503  0.55047226642E+03  0.49096273861E+02 -0.31782272526E+03  0.63752760324E+03  0.00000000000E+00 0.  1.
<mgrwt>
<rscale>  0 0.15265816E+04</rscale>
<asrwt>0</asrwt>
<pdfrwt beam="1">  1        1 0.12721964E+00 0.15265816E+04</pdfrwt>
<pdfrwt beam="2">  1       -2 0.10839248E+00 0.15265816E+04</pdfrwt>
<totfact> 0.12064985E+01</totfact>
</mgrwt>
</event>
<event>
12    4  0.4207946E-008  0.2399960E+04  0.7818608E-02  0.8439519E-01
          1   -1    0    0  501    0  0.00000000000E+00  0.00000000000E+00  0.16821674264E+04  0.16821674264E+04  0.00000000000E+00 0. -1.
         -2   -1    0    0    0  501 -0.00000000000E+00 -0.00000000000E+00 -0.85600983952E+03  0.85600983952E+03  0.00000000000E+00 0.  1.
        -24    2    1    2    0    0  0.79788676663E+03  0.49230108287E+03  0.81273998691E+03  0.12432171238E+04  0.77838820737E+02 0.  0.
        254    2    1    2    0    0 -0.79788676663E+03 -0.49230108287E+03  0.13417600018E+02  0.12949601422E+04  0.89317304553E+03 0.  0.
         23    2    4    4    0    0 -0.83755627334E+03 -0.64006367026E+03  0.15221105619E+03  0.10690844916E+04  0.92689975222E+02 0.  0.
         23    2    4    4    0    0  0.39669506710E+02  0.14776258739E+03 -0.13879345617E+03  0.22587565060E+03  0.91371407259E+02 0.  0.
          3    1    3    3  502    0  0.71099734619E+03  0.41399914727E+03  0.69144129757E+03  0.10747109324E+04  0.00000000000E+00 0. -1.
         -4    1    3    3    0  502  0.86889420440E+02  0.78301935608E+02  0.12129868934E+03  0.16850619140E+03  0.00000000000E+00 0.  1.
         11    1    5    5    0    0 -0.35239955867E+03 -0.32737656693E+03  0.68173851208E+02  0.48580710114E+03  0.00000000000E+00 0. -1.
        -11    1    5    5    0    0 -0.48515671467E+03 -0.31268710332E+03  0.84037204980E+02  0.58327739044E+03  0.00000000000E+00 0.  1.
          3    1    6    6  503    0  0.29897749798E+01  0.77687289862E+02 -0.15317848757E+02  0.79239448832E+02  0.00000000000E+00 0. -1.
         -3    1    6    6    0  503  0.36679731730E+02  0.70075297523E+02 -0.12347560741E+03  0.14663620177E+03  0.00000000000E+00 0.  1.
<mgrwt>
<rscale>  0 0.23999599E+04</rscale>
<asrwt>0</asrwt>
<pdfrwt beam="1">  1        1 0.25879499E+00 0.23999599E+04</pdfrwt>
<pdfrwt beam="2">  1       -2 0.13169382E+00 0.23999599E+04</pdfrwt>
<totfact> 0.16213594E+00</totfact>
</mgrwt>
</event>
<event>
12    4  0.4207946E-008  0.1119314E+04  0.7818608E-02  0.9186569E-01
         -4   -1    0    0    0  501 -0.00000000000E+00  0.00000000000E+00  0.25000716331E+03  0.25000716331E+03  0.00000000000E+00 0.  1.
          1   -1    0    0  501    0  0.00000000000E+00 -0.00000000000E+00 -0.12528276685E+04  0.12528276685E+04  0.00000000000E+00 0. -1.
        -24    2    1    2    0    0  0.65513043898E+02 -0.20549334809E+02 -0.42580994271E+03  0.43912829127E+03  0.82494331967E+02 0.  0.
        254    2    1    2    0    0 -0.65513043898E+02  0.20549334809E+02 -0.57701056248E+03  0.10637065405E+04  0.89096362500E+03 0.  0.
         23    2    4    4    0    0 -0.37176521846E+03  0.24604396714E+03 -0.13664635852E+03  0.47490944426E+03  0.90109608384E+02 0.  0.
         23    2    4    4    0    0  0.30625217456E+03 -0.22549463233E+03 -0.44036420396E+03  0.58879709627E+03  0.90128601547E+02 0.  0.
          1    1    3    3  502    0  0.65922195225E+02  0.64239604064E+01 -0.38184475879E+03  0.38754667191E+03  0.00000000000E+00 0. -1.
         -2    1    3    3    0  502 -0.40915132656E+00 -0.26973295215E+02 -0.43965183912E+02  0.51581619362E+02  0.00000000000E+00 0.  1.
         11    1    5    5    0    0 -0.94984877414E+02  0.94860953753E+02 -0.85631914124E+01  0.13451414696E+03  0.00000000000E+00 0.  1.
        -11    1    5    5    0    0 -0.27678034105E+03  0.15118301339E+03 -0.12808316711E+03  0.34039529730E+03  0.00000000000E+00 0. -1.
          3    1    6    6  503    0  0.26115275634E+03 -0.18605436635E+03 -0.31322526591E+03  0.44824887796E+03  0.00000000000E+00 0. -1.
         -3    1    6    6    0  503  0.45099418220E+02 -0.39440265979E+02 -0.12713893804E+03  0.14054821831E+03  0.00000000000E+00 0.  1.
<mgrwt>
<rscale>  0 0.11193139E+04</rscale>
<asrwt>0</asrwt>
<pdfrwt beam="1">  1        1 0.19274273E+00 0.11193139E+04</pdfrwt>
<pdfrwt beam="2">  1       -4 0.38462639E-01 0.11193139E+04</pdfrwt>
<totfact> 0.31513122E+01</totfact>
</mgrwt>
</event>
<event>
12    4  0.4207946E-008  0.1431366E+04  0.7818608E-02  0.8931422E-01
         -2   -1    0    0    0  501 -0.00000000000E+00  0.00000000000E+00  0.54198339293E+03  0.54198339293E+03  0.00000000000E+00 0.  1.
          1   -1    0    0  501    0  0.00000000000E+00 -0.00000000000E+00 -0.94505147643E+03  0.94505147643E+03  0.00000000000E+00 0. -1.
        -24    2    1    2    0    0 -0.29639151735E+03 -0.35337960011E+02  0.18992515605E+03  0.36259929592E+03  0.79435392149E+02 0.  0.
        254    2    1    2    0    0  0.29639151735E+03  0.35337960011E+02 -0.59299323955E+03  0.11244355734E+04  0.90753384163E+03 0.  0.
         23    2    4    4    0    0 -0.30496761735E+03 -0.75743098037E+02 -0.12762712179E+03  0.35065357419E+03  0.89033602320E+02 0.  0.
         23    2    4    4    0    0  0.60135913471E+03  0.11108105805E+03 -0.46536611776E+03  0.77378199925E+03  0.90560192473E+02 0.  0.
          3    1    3    3  502    0  0.13996620511E+01  0.76093501502E+01  0.73107634662E+01  0.10644647764E+02  0.00000000000E+00 0. -1.
         -4    1    3    3    0  502 -0.29779117940E+03 -0.42947310161E+02  0.18261439258E+03  0.35195464816E+03  0.00000000000E+00 0.  1.
         11    1    5    5    0    0 -0.27016566228E+03 -0.43065659253E+02 -0.12992240090E+03  0.30285964792E+03  0.00000000000E+00 0. -1.
        -11    1    5    5    0    0 -0.34801955071E+02 -0.32677438784E+02  0.22952791060E+01  0.47793926271E+02  0.00000000000E+00 0.  1.
          3    1    6    6  503    0  0.46997808144E+03  0.11295219850E+03 -0.33088240575E+03  0.58576510874E+03  0.00000000000E+00 0. -1.
         -3    1    6    6    0  503  0.13138105326E+03 -0.18711404517E+01 -0.13448371201E+03  0.18801689051E+03  0.00000000000E+00 0.  1.
<mgrwt>
<rscale>  0 0.14313661E+04</rscale>
<asrwt>0</asrwt>
<pdfrwt beam="1">  1        1 0.14539253E+00 0.14313661E+04</pdfrwt>
<pdfrwt beam="2">  1       -2 0.83382062E-01 0.14313661E+04</pdfrwt>
<totfact> 0.17951966E+01</totfact>
</mgrwt>
</event>
<event>
12    4  0.4207946E-008  0.1636280E+04  0.7818608E-02  0.8798565E-01
         -2   -1    0    0    0  501 -0.00000000000E+00  0.00000000000E+00  0.12918691441E+04  0.12918691441E+04  0.00000000000E+00 0.  1.
          1   -1    0    0  501    0  0.00000000000E+00 -0.00000000000E+00 -0.51812764130E+03  0.51812764130E+03  0.00000000000E+00 0. -1.
        -24    2    1    2    0    0 -0.89555867591E+02  0.47602320076E+03  0.59260304854E+03  0.76947479604E+03  0.79339444876E+02 0.  0.
        254    2    1    2    0    0  0.89555867591E+02 -0.47602320076E+03  0.18113845425E+03  0.10405219894E+04  0.90291557171E+03 0.  0.
         23    2    4    4    0    0 -0.33271650293E+03 -0.42150707329E+03  0.25500416569E+03  0.60107558967E+03  0.88860879030E+02 0.  0.
         23    2    4    4    0    0  0.42227237052E+03 -0.54516127476E+02 -0.73865711444E+02  0.43944639969E+03  0.79818743509E+02 0.  0.
          1    1    3    3  502    0  0.10514181352E+02  0.13114731199E+03  0.15028486086E+03  0.19973909196E+03  0.00000000000E+00 0. -1.
         -2    1    3    3    0  502 -0.10007004894E+03  0.34487588877E+03  0.44231818768E+03  0.56973570408E+03  0.00000000000E+00 0.  1.
         11    1    5    5    0    0 -0.30773548998E+02 -0.10110133065E+02  0.48600962323E+01  0.32754337788E+02  0.00000000000E+00 0. -1.
        -11    1    5    5    0    0 -0.30194295393E+03 -0.41139694022E+03  0.25014406946E+03  0.56832125188E+03  0.00000000000E+00 0.  1.
          2    1    6    6  503    0  0.31012874079E+02 -0.98236190049E+01  0.14870062650E+02  0.35768989533E+02  0.00000000000E+00 0. -1.
         -2    1    6    6    0  503  0.39125949644E+03 -0.44692508471E+02 -0.88735774094E+02  0.40367741016E+03  0.00000000000E+00 0.  1.
<mgrwt>
<rscale>  0 0.16362801E+04</rscale>
<asrwt>0</asrwt>
<pdfrwt beam="1">  1        1 0.79711945E-01 0.16362801E+04</pdfrwt>
<pdfrwt beam="2">  1       -2 0.19874910E+00 0.16362801E+04</pdfrwt>
<totfact> 0.47811641E+00</totfact>
</mgrwt>
</event>
<event>
12    4  0.4207946E-008  0.1722849E+04  0.7818608E-02  0.8748439E-01
         -2   -1    0    0    0  501 -0.00000000000E+00  0.00000000000E+00  0.65740999113E+03  0.65740999113E+03  0.00000000000E+00 0.  1.
          1   -1    0    0  501    0  0.00000000000E+00 -0.00000000000E+00 -0.11287506142E+04  0.11287506142E+04  0.00000000000E+00 0. -1.
        -24    2    1    2    0    0  0.57677617418E+03 -0.11800032542E+03 -0.38908214540E+03  0.71026585297E+03  0.80609144221E+02 0.  0.
        254    2    1    2    0    0 -0.57677617418E+03  0.11800032542E+03 -0.82258477655E+02  0.10758947523E+04  0.89676542589E+03 0.  0.
         23    2    4    4    0    0 -0.37925274196E+03  0.32808046675E+03 -0.39188077211E+03  0.64310765107E+03  0.92452562779E+02 0.  0.
         23    2    4    4    0    0 -0.19752343222E+03 -0.21008014133E+03  0.30962229446E+03  0.43278710127E+03  0.91046898602E+02 0.  0.
          1    1    3    3  502    0  0.60626359185E+01 -0.39347022151E+01  0.37046837747E+01  0.81217065738E+01  0.00000000000E+00 0. -1.
         -2    1    3    3    0  502  0.57071353826E+03 -0.11406562321E+03 -0.39278682917E+03  0.70214414640E+03  0.00000000000E+00 0.  1.
         11    1    5    5    0    0 -0.16452178688E+03  0.20318885138E+03 -0.19582853725E+03  0.32665263459E+03  0.00000000000E+00 0.  1.
        -11    1    5    5    0    0 -0.21473095508E+03  0.12489161537E+03 -0.19605223487E+03  0.31645501648E+03  0.00000000000E+00 0. -1.
          4    1    6    6  503    0 -0.33480880046E+02 -0.40105954457E+02  0.11646525968E+03  0.12764643992E+03  0.00000000000E+00 0. -1.
         -4    1    6    6    0  503 -0.16404255217E+03 -0.16997418687E+03  0.19315703478E+03  0.30514066135E+03  0.00000000000E+00 0.  1.
<mgrwt>
<rscale>  0 0.17228487E+04</rscale>
<asrwt>0</asrwt>
<pdfrwt beam="1">  1        1 0.17365394E+00 0.17228487E+04</pdfrwt>
<pdfrwt beam="2">  1       -2 0.10114000E+00 0.17228487E+04</pdfrwt>
<totfact> 0.80794170E+00</totfact>
</mgrwt>
</event>
<event>
12    4  0.4207946E-008  0.1609854E+04  0.7818608E-02  0.8814517E-01
         -2   -1    0    0    0  501 -0.00000000000E+00  0.00000000000E+00  0.71039554387E+03  0.71039554387E+03  0.00000000000E+00 0.  1.
          1   -1    0    0  501    0  0.00000000000E+00 -0.00000000000E+00 -0.91203744439E+03  0.91203744439E+03  0.00000000000E+00 0. -1.
        -24    2    1    2    0    0 -0.16581001436E+02 -0.34972756680E+03  0.35788802585E+03  0.50550460619E+03  0.69762219313E+02 0.  0.
        254    2    1    2    0    0  0.16581001436E+02  0.34972756680E+03 -0.55952992637E+03  0.11169283821E+04  0.90103882912E+03 0.  0.
         23    2    4    4    0    0 -0.37059876120E+03  0.23283076844E+03 -0.54123217627E+03  0.70222999193E+03  0.92957433316E+02 0.  0.
         23    2    4    4    0    0  0.38717976264E+03  0.11689679836E+03 -0.18297750105E+02  0.41469839014E+03  0.89816017851E+02 0.  0.
          3    1    3    3  502    0 -0.11073280837E+02 -0.47841393812E+02  0.21860005491E+02  0.53751989269E+02  0.00000000000E+00 0. -1.
         -4    1    3    3    0  502 -0.55077205991E+01 -0.30188617299E+03  0.33602802036E+03  0.45175261692E+03  0.00000000000E+00 0.  1.
         11    1    5    5    0    0 -0.45206832077E+02  0.22367798261E+02 -0.23803173103E+02  0.55772458393E+02  0.00000000000E+00 0. -1.
        -11    1    5    5    0    0 -0.32539192912E+03  0.21046297017E+03 -0.51742900316E+03  0.64645753354E+03  0.00000000000E+00 0.  1.
          1    1    6    6  503    0  0.11555270027E+03 -0.66783974846E-01  0.17239286072E+02  0.11683160525E+03  0.00000000000E+00 0. -1.
         -1    1    6    6    0  503  0.27162706237E+03  0.11696358234E+03 -0.35537036177E+02  0.29786678489E+03  0.00000000000E+00 0.  1.
<mgrwt>
<rscale>  0 0.16098538E+04</rscale>
<asrwt>0</asrwt>
<pdfrwt beam="1">  1        1 0.14031345E+00 0.16098538E+04</pdfrwt>
<pdfrwt beam="2">  1       -2 0.10929162E+00 0.16098538E+04</pdfrwt>
<totfact> 0.99747373E+00</totfact>
</mgrwt>
</event>
<event>
12    4  0.4207946E-008  0.1278089E+04  0.7818608E-02  0.9047123E-01
          1   -1    0    0  501    0  0.00000000000E+00  0.00000000000E+00  0.49470760195E+03  0.49470760195E+03  0.00000000000E+00 0. -1.
         -2   -1    0    0    0  501 -0.00000000000E+00 -0.00000000000E+00 -0.82549394355E+03  0.82549394355E+03  0.00000000000E+00 0.  1.
        -24    2    1    2    0    0  0.11201646713E+02  0.27214801775E+03 -0.24676354791E+03  0.37681301924E+03  0.83101037534E+02 0.  0.
        254    2    1    2    0    0 -0.11201646713E+02 -0.27214801775E+03 -0.84022793696E+02  0.94338852625E+03  0.89929531365E+03 0.  0.
         23    2    4    4    0    0 -0.18872544637E+03  0.29118991047E+01 -0.41750371427E+03  0.46690187143E+03  0.89789937369E+02 0.  0.
         23    2    4    4    0    0  0.17752379966E+03 -0.27505991686E+03  0.33348092057E+03  0.47648665482E+03  0.93044884512E+02 0.  0.
          3    1    3    3  502    0 -0.13543978362E+02  0.64642435575E+02 -0.21297570906E+02  0.69395031186E+02  0.00000000000E+00 0. -1.
         -4    1    3    3    0  502  0.24745625075E+02  0.20750558218E+03 -0.22546597700E+03  0.30741798806E+03  0.00000000000E+00 0.  1.
         11    1    5    5    0    0 -0.43543427911E+02  0.26960442147E+02 -0.18314267199E+03  0.19016869842E+03  0.00000000000E+00 0. -1.
        -11    1    5    5    0    0 -0.14518201846E+03 -0.24048543042E+02 -0.23436104227E+03  0.27673317301E+03  0.00000000000E+00 0.  1.
          4    1    6    6  503    0  0.10433985119E+03 -0.13957328885E+03  0.23913656737E+03  0.29589492284E+03  0.00000000000E+00 0. -1.
         -4    1    6    6    0  503  0.73183948463E+02 -0.13548662801E+03  0.94344353206E+02  0.18059173199E+03  0.00000000000E+00 0.  1.
<mgrwt>
<rscale>  0 0.12780894E+04</rscale>
<asrwt>0</asrwt>
<pdfrwt beam="1">  1        1 0.76108863E-01 0.12780894E+04</pdfrwt>
<pdfrwt beam="2">  1       -2 0.12699907E+00 0.12780894E+04</pdfrwt>
<totfact> 0.17824497E+01</totfact>
</mgrwt>
</event>
<event>
12    4  0.4207946E-008  0.1476763E+04  0.7818608E-02  0.8900054E-01
         -2   -1    0    0    0  501 -0.00000000000E+00  0.00000000000E+00  0.88158393321E+03  0.88158393321E+03  0.00000000000E+00 0.  1.
          1   -1    0    0  501    0  0.00000000000E+00 -0.00000000000E+00 -0.61844024883E+03  0.61844024883E+03  0.00000000000E+00 0. -1.
        -24    2    1    2    0    0  0.40633388980E+03  0.14675316046E+03  0.25296827371E+03  0.50722334016E+03  0.81479133523E+02 0.  0.
        254    2    1    2    0    0 -0.40633388980E+03 -0.14675316046E+03  0.10175410667E+02  0.99280084187E+03  0.89381555846E+03 0.  0.
         23    2    4    4    0    0 -0.35006074037E+03 -0.69844534572E+02  0.42230982733E+03  0.56021496660E+03  0.89857874341E+02 0.  0.
         23    2    4    4    0    0 -0.56273149426E+02 -0.76908625885E+02 -0.41213441666E+03  0.43258587528E+03  0.90521588637E+02 0.  0.
          3    1    3    3  502    0  0.33004899652E+03  0.12551347058E+03  0.24008055519E+03  0.42699489971E+03  0.00000000000E+00 0. -1.
         -4    1    3    3    0  502  0.76284893276E+02  0.21239689882E+02  0.12887718522E+02  0.80228440451E+02  0.00000000000E+00 0.  1.
         11    1    5    5    0    0 -0.15426816040E+03 -0.76160390351E+02  0.20568169938E+03  0.26814927155E+03  0.00000000000E+00 0. -1.
        -11    1    5    5    0    0 -0.19579257997E+03  0.63158557785E+01  0.21662812795E+03  0.29206569505E+03  0.00000000000E+00 0.  1.
          3    1    6    6  503    0 -0.27729921245E+02  0.17270529925E+02 -0.11712256332E+03  0.12159323408E+03  0.00000000000E+00 0. -1.
         -3    1    6    6    0  503 -0.28543228181E+02 -0.94179155810E+02 -0.29501185335E+03  0.31099264120E+03  0.00000000000E+00 0.  1.
<mgrwt>
<rscale>  0 0.14767627E+04</rscale>
<asrwt>0</asrwt>
<pdfrwt beam="1">  1        1 0.95144654E-01 0.14767627E+04</pdfrwt>
<pdfrwt beam="2">  1       -2 0.13562830E+00 0.14767627E+04</pdfrwt>
<totfact> 0.10831943E+01</totfact>
</mgrwt>
</event>
<event>
12    4  0.4207946E-008  0.1978554E+04  0.7818608E-02  0.8616713E-01
         -2   -1    0    0    0  501 -0.00000000000E+00  0.00000000000E+00  0.67752438145E+03  0.67752438145E+03  0.00000000000E+00 0.  1.
          1   -1    0    0  501    0  0.00000000000E+00 -0.00000000000E+00 -0.14444778970E+04  0.14444778970E+04  0.00000000000E+00 0. -1.
        -24    2    1    2    0    0 -0.44306420815E+03  0.47127852093E+03  0.16546582668E+03  0.67229129870E+03  0.78659479216E+02 0.  0.
        254    2    1    2    0    0  0.44306420815E+03 -0.47127852093E+03 -0.93241934220E+03  0.14497109797E+04  0.90213455658E+03 0.  0.
         23    2    4    4    0    0  0.19626389427E+02 -0.27015062752E+03  0.10720627039E+03  0.30539726001E+03  0.91693758242E+02 0.  0.
         23    2    4    4    0    0  0.42343781873E+03 -0.20112789341E+03 -0.10396256126E+04  0.11443137197E+04  0.94236187020E+02 0.  0.
          3    1    3    3  502    0  0.31010024513E+01  0.59495503715E+01  0.36029090907E+01  0.76154001695E+01  0.00000000000E+00 0. -1.
         -4    1    3    3    0  502 -0.44616521060E+03  0.46532897056E+03  0.16186291759E+03  0.66467589853E+03  0.00000000000E+00 0.  1.
         11    1    5    5    0    0  0.21070048908E+02 -0.16716969091E+03  0.18562446196E+02  0.16951170145E+03  0.00000000000E+00 0.  1.
        -11    1    5    5    0    0 -0.14436594811E+01 -0.10298093660E+03  0.88643824191E+02  0.13588555855E+03  0.00000000000E+00 0. -1.
          1    1    6    6  503    0  0.37108250764E+03 -0.18441401179E+03 -0.97547366841E+03  0.10598394374E+04  0.00000000000E+00 0. -1.
         -1    1    6    6    0  503  0.52355311082E+02 -0.16713881619E+02 -0.64151944172E+02  0.84474282349E+02  0.00000000000E+00 0.  1.
<mgrwt>
<rscale>  0 0.19785540E+04</rscale>
<asrwt>0</asrwt>
<pdfrwt beam="1">  1        1 0.22222737E+00 0.19785540E+04</pdfrwt>
<pdfrwt beam="2">  1       -2 0.10423452E+00 0.19785540E+04</pdfrwt>
<totfact> 0.43633168E+00</totfact>
</mgrwt>
</event>
<event>
12    4  0.4207946E-008  0.2259495E+04  0.7818608E-02  0.8494065E-01
          1   -1    0    0  501    0  0.00000000000E+00  0.00000000000E+00  0.82415245650E+03  0.82415245650E+03  0.00000000000E+00 0. -1.
         -2   -1    0    0    0  501 -0.00000000000E+00 -0.00000000000E+00 -0.15486563470E+04  0.15486563470E+04  0.00000000000E+00 0.  1.
        -24    2    1    2    0    0  0.24952816617E+03  0.59784756861E+03  0.42278331752E+03  0.77759995520E+03  0.78929942068E+02 0.  0.
        254    2    1    2    0    0 -0.24952816617E+03 -0.59784756861E+03 -0.11472872080E+04  0.15952088483E+04  0.89929823253E+03 0.  0.
         23    2    4    4    0    0 -0.10432615261E+03  0.77419803695E+02 -0.80010476624E+03  0.81680601853E+03  0.10063132130E+03 0.  0.
         23    2    4    4    0    0 -0.14520201356E+03 -0.67526737231E+03 -0.34718244179E+03  0.77840282979E+03  0.91135441443E+02 0.  0.
          3    1    3    3  502    0  0.11895160576E+03  0.20823304325E+03  0.18470816909E+03  0.30270049973E+03  0.00000000000E+00 0. -1.
         -4    1    3    3    0  502  0.13057656041E+03  0.38961452537E+03  0.23807514843E+03  0.47489945547E+03  0.00000000000E+00 0.  1.
         11    1    5    5    0    0 -0.43197177136E+02 -0.50340877645E+01 -0.44628219992E+03  0.44839618656E+03  0.00000000000E+00 0. -1.
        -11    1    5    5    0    0 -0.61128975473E+02  0.82453891459E+02 -0.35382256632E+03  0.36840983197E+03  0.00000000000E+00 0.  1.
          3    1    6    6  503    0 -0.22510803886E+02 -0.31893824518E+03 -0.15288633276E+03  0.35440453055E+03  0.00000000000E+00 0. -1.
         -3    1    6    6    0  503 -0.12269120967E+03 -0.35632912713E+03 -0.19429610904E+03  0.42399829924E+03  0.00000000000E+00 0.  1.
<mgrwt>
<rscale>  0 0.22594946E+04</rscale>
<asrwt>0</asrwt>
<pdfrwt beam="1">  1        1 0.12679269E+00 0.22594946E+04</pdfrwt>
<pdfrwt beam="2">  1       -2 0.23825482E+00 0.22594946E+04</pdfrwt>
<totfact> 0.12718877E+00</totfact>
</mgrwt>
</event>
<event>
12    4  0.4207946E-008  0.1370654E+04  0.7818608E-02  0.8975339E-01
          1   -1    0    0  501    0  0.00000000000E+00  0.00000000000E+00  0.42149639479E+03  0.42149639479E+03  0.00000000000E+00 0. -1.
         -2   -1    0    0    0  501 -0.00000000000E+00 -0.00000000000E+00 -0.11142999828E+04  0.11142999828E+04  0.00000000000E+00 0.  1.
        -24    2    1    2    0    0 -0.15771173980E+01  0.74853423402E+02 -0.62951833378E+03  0.63690780575E+03  0.61259270036E+02 0.  0.
        254    2    1    2    0    0  0.15771173980E+01 -0.74853423402E+02 -0.63285254224E+02  0.89888857183E+03  0.89352678688E+03 0.  0.
         23    2    4    4    0    0 -0.20856482168E+03 -0.38454157901E+02  0.35344255885E+03  0.42139738649E+03  0.87613399826E+02 0.  0.
         23    2    4    4    0    0  0.21014193908E+03 -0.36399265501E+02 -0.41672781307E+03  0.47749118534E+03  0.94080926893E+02 0.  0.
          1    1    3    3  502    0 -0.22000316451E+02  0.33921194649E+01 -0.13043851201E+03  0.13232432057E+03  0.00000000000E+00 0. -1.
         -2    1    3    3    0  502  0.20423199053E+02  0.71461303937E+02 -0.49907982177E+03  0.50458348518E+03  0.00000000000E+00 0.  1.
         11    1    5    5    0    0 -0.11149231682E+03 -0.32716904556E+02  0.26740022199E+03  0.29155413095E+03  0.00000000000E+00 0.  1.
        -11    1    5    5    0    0 -0.97072504860E+02 -0.57372533456E+01  0.86042336856E+02  0.12984325553E+03  0.00000000000E+00 0. -1.
          2    1    6    6  503    0  0.20485729150E+02 -0.38237363493E+02 -0.73561213155E+02  0.85399140198E+02  0.00000000000E+00 0. -1.
         -2    1    6    6    0  503  0.18965620993E+03  0.18380979923E+01 -0.34316659992E+03  0.39209204515E+03  0.00000000000E+00 0.  1.
<mgrwt>
<rscale>  0 0.13706545E+04</rscale>
<asrwt>0</asrwt>
<pdfrwt beam="1">  1        1 0.64845599E-01 0.13706545E+04</pdfrwt>
<pdfrwt beam="2">  1       -2 0.17143077E+00 0.13706545E+04</pdfrwt>
<totfact> 0.99359259E+00</totfact>
</mgrwt>
</event>
<event>
12    4  0.4207946E-008  0.1182124E+04  0.7818608E-02  0.9128649E-01
          1   -1    0    0  501    0  0.00000000000E+00  0.00000000000E+00  0.11767633718E+04  0.11767633718E+04  0.00000000000E+00 0. -1.
         -2   -1    0    0    0  501 -0.00000000000E+00 -0.00000000000E+00 -0.29687744236E+03  0.29687744236E+03  0.00000000000E+00 0.  1.
        -24    2    1    2    0    0 -0.20298479062E+03  0.45891832370E+02  0.34573106566E+03  0.41052004316E+03  0.75417839872E+02 0.  0.
        254    2    1    2    0    0  0.20298479062E+03 -0.45891832370E+02  0.53415486382E+03  0.10631207710E+04  0.89531864147E+03 0.  0.
         23    2    4    4    0    0  0.12479514480E+03  0.36937151654E+03  0.33710367047E+02  0.40168937984E+03  0.90602558666E+02 0.  0.
         23    2    4    4    0    0  0.78189645818E+02 -0.41526334891E+03  0.50044449677E+03  0.66143139119E+03  0.92138598056E+02 0.  0.
          1    1    3    3  502    0 -0.20247832803E+03  0.29113193915E+02  0.32024665288E+03  0.38000390796E+03  0.00000000000E+00 0. -1.
         -2    1    3    3    0  502 -0.50646258595E+00  0.16778638455E+02  0.25484412780E+02  0.30516135200E+02  0.00000000000E+00 0.  1.
         11    1    5    5    0    0  0.94569321618E+02  0.29433213432E+03  0.63270635744E+02  0.31555971738E+03  0.00000000000E+00 0.  1.
        -11    1    5    5    0    0  0.30225823181E+02  0.75039382215E+02 -0.29560268697E+02  0.86129662461E+02  0.00000000000E+00 0. -1.
          3    1    6    6  503    0  0.68190767046E+02 -0.29945890227E+03  0.41898375865E+03  0.51949302678E+03  0.00000000000E+00 0. -1.
         -3    1    6    6    0  503  0.99988787716E+01 -0.11580444664E+03  0.81460738115E+02  0.14193836441E+03  0.00000000000E+00 0.  1.
<mgrwt>
<rscale>  0 0.11821244E+04</rscale>
<asrwt>0</asrwt>
<pdfrwt beam="1">  1        1 0.18104052E+00 0.11821244E+04</pdfrwt>
<pdfrwt beam="2">  1       -2 0.45673453E-01 0.11821244E+04</pdfrwt>
<totfact> 0.43897067E+01</totfact>
</mgrwt>
</event>
<event>
12    4  0.4207946E-008  0.2000189E+04  0.7818608E-02  0.8606532E-01
          1   -1    0    0  501    0  0.00000000000E+00  0.00000000000E+00  0.91872460494E+03  0.91872460494E+03  0.00000000000E+00 0. -1.
         -2   -1    0    0    0  501 -0.00000000000E+00 -0.00000000000E+00 -0.10886715524E+04  0.10886715524E+04  0.00000000000E+00 0.  1.
        -24    2    1    2    0    0  0.25957842529E+03  0.54726848808E+03  0.43096800590E+03  0.74760057911E+03  0.79306032869E+02 0.  0.
        254    2    1    2    0    0 -0.25957842529E+03 -0.54726848808E+03 -0.60091495340E+03  0.12597955783E+04  0.92687774864E+03 0.  0.
         23    2    4    4    0    0  0.12619614281E+02 -0.24630923801E+03  0.21798178577E+03  0.34137682105E+03  0.90523917435E+02 0.  0.
         23    2    4    4    0    0 -0.27219803957E+03 -0.30095925007E+03 -0.81889673917E+03  0.91841875724E+03  0.90735336433E+02 0.  0.
          1    1    3    3  502    0  0.26001584677E+03  0.51037482271E+03  0.39295153226E+03  0.69462335616E+03  0.00000000000E+00 0. -1.
         -4    1    3    3    0  502 -0.43742148794E+00  0.36893665377E+02  0.38016473643E+02  0.52977222943E+02  0.00000000000E+00 0.  1.
         11    1    5    5    0    0 -0.11674547037E+02 -0.55704541758E+01  0.37064642353E+02  0.39257008559E+02  0.00000000000E+00 0.  1.
        -11    1    5    5    0    0  0.24294161318E+02 -0.24073878384E+03  0.18091714341E+03  0.30211981249E+03  0.00000000000E+00 0. -1.
          4    1    6    6  503    0 -0.21652063370E+02 -0.56028153311E+02 -0.17993723466E+03  0.18969811341E+03  0.00000000000E+00 0.  1.
         -4    1    6    6    0  503 -0.25054597620E+03 -0.24493109676E+03 -0.63895950451E+03  0.72872064383E+03  0.00000000000E+00 0. -1.
<mgrwt>
<rscale>  0 0.20001893E+04</rscale>
<asrwt>0</asrwt>
<pdfrwt beam="1">  1        1 0.14134225E+00 0.20001893E+04</pdfrwt>
<pdfrwt beam="2">  1       -2 0.16748793E+00 0.20001893E+04</pdfrwt>
<totfact> 0.31718057E+00</totfact>
</mgrwt>
</event>
<event>
12    4  0.4207946E-008  0.2049310E+04  0.7818608E-02  0.8583907E-01
          1   -1    0    0  501    0  0.00000000000E+00  0.00000000000E+00  0.12682002956E+04  0.12682002956E+04  0.00000000000E+00 0. -1.
         -2   -1    0    0    0  501 -0.00000000000E+00 -0.00000000000E+00 -0.82788020663E+03  0.82788020663E+03  0.00000000000E+00 0.  1.
        -24    2    1    2    0    0  0.35112551849E+03  0.17268306337E+03  0.91777867511E+03  0.10007752648E+04  0.78261510405E+02 0.  0.
        254    2    1    2    0    0 -0.35112551849E+03 -0.17268306337E+03 -0.47745858617E+03  0.10953052374E+04  0.90477527127E+03 0.  0.
         23    2    4    4    0    0  0.69622390960E+02  0.24246689019E+03 -0.41573191419E+03  0.49405991887E+03  0.87319578522E+02 0.  0.
         23    2    4    4    0    0 -0.42074790945E+03 -0.41514995356E+03 -0.61726671975E+02  0.60124531855E+03  0.91145289482E+02 0.  0.
          3    1    3    3  502    0  0.13432300003E+03  0.37173389050E+02  0.25888194855E+03  0.29401427257E+03  0.00000000000E+00 0. -1.
         -4    1    3    3    0  502  0.21680251846E+03  0.13550967432E+03  0.65889672655E+03  0.70676099221E+03  0.00000000000E+00 0.  1.
         11    1    5    5    0    0  0.63780876281E+02  0.99075735734E+02 -0.23843089719E+03  0.26595731673E+03  0.00000000000E+00 0. -1.
        -11    1    5    5    0    0  0.58415146790E+01  0.14339115446E+03 -0.17730101700E+03  0.22810260213E+03  0.00000000000E+00 0.  1.
          2    1    6    6  503    0 -0.29399193263E+03 -0.34129641050E+03 -0.60765404385E+02  0.45454035095E+03  0.00000000000E+00 0.  1.
         -2    1    6    6    0  503 -0.12675597682E+03 -0.73853543059E+02 -0.96126759058E+00  0.14670496760E+03  0.00000000000E+00 0. -1.
<mgrwt>
<rscale>  0 0.20493101E+04</rscale>
<asrwt>0</asrwt>
<pdfrwt beam="1">  1        1 0.19510774E+00 0.20493101E+04</pdfrwt>
<pdfrwt beam="2">  1       -2 0.12736619E+00 0.20493101E+04</pdfrwt>
<totfact> 0.35340475E+00</totfact>
</mgrwt>
</event>
<event>
12    4  0.4207946E-008  0.1188052E+04  0.7818608E-02  0.9123379E-01
          1   -1    0    0  501    0  0.00000000000E+00  0.00000000000E+00  0.73337692308E+03  0.73337692308E+03  0.00000000000E+00 0. -1.
         -2   -1    0    0    0  501 -0.00000000000E+00 -0.00000000000E+00 -0.48115368867E+03  0.48115368867E+03  0.00000000000E+00 0.  1.
        -24    2    1    2    0    0 -0.12234504447E+03 -0.17041387064E+03 -0.67916121554E+02  0.23254897664E+03  0.73873065168E+02 0.  0.
        254    2    1    2    0    0  0.12234504447E+03  0.17041387064E+03  0.32013935596E+03  0.98198163511E+03  0.90431716076E+03 0.  0.
         23    2    4    4    0    0 -0.24930930516E+03  0.12810070069E+03 -0.18403419607E+03  0.34763103125E+03  0.91726928485E+02 0.  0.
         23    2    4    4    0    0  0.37165434963E+03  0.42313169949E+02  0.50417355203E+03  0.63435060386E+03  0.91062385805E+02 0.  0.
          3    1    3    3  502    0 -0.16589286938E+02 -0.16750258672E+02  0.15494321135E+02  0.28210806336E+02  0.00000000000E+00 0. -1.
         -4    1    3    3    0  502 -0.10575575753E+03 -0.15366361197E+03 -0.83410442689E+02  0.20433817031E+03  0.00000000000E+00 0.  1.
         11    1    5    5    0    0 -0.10643373829E+03  0.67007354324E+02 -0.30995492695E+02  0.12953318782E+03  0.00000000000E+00 0. -1.
        -11    1    5    5    0    0 -0.14287556687E+03  0.61093346368E+02 -0.15303870337E+03  0.21809784343E+03  0.00000000000E+00 0.  1.
          1    1    6    6  503    0  0.42955412917E+02  0.36270538854E+02  0.72445887755E+02  0.91701287560E+02  0.00000000000E+00 0. -1.
         -1    1    6    6    0  503  0.32869893671E+03  0.60426310959E+01  0.43172766427E+03  0.54264931630E+03  0.00000000000E+00 0.  1.
<mgrwt>
<rscale>  0 0.11880522E+04</rscale>
<asrwt>0</asrwt>
<pdfrwt beam="1">  1        1 0.11282722E+00 0.11880522E+04</pdfrwt>
<pdfrwt beam="2">  1       -2 0.74023644E-01 0.11880522E+04</pdfrwt>
<totfact> 0.36182346E+01</totfact>
</mgrwt>
</event>
<event>
12    4  0.4207946E-008  0.1762886E+04  0.7818608E-02  0.8726289E-01
         -4   -1    0    0    0  501 -0.00000000000E+00  0.00000000000E+00  0.69636802725E+03  0.69636802725E+03  0.00000000000E+00 0.  1.
          1   -1    0    0  501    0  0.00000000000E+00 -0.00000000000E+00 -0.11157058397E+04  0.11157058397E+04  0.00000000000E+00 0. -1.
        -24    2    1    2    0    0 -0.27971292554E+03 -0.38617235344E+03 -0.59502641998E+03  0.76600745981E+03  0.73092959530E+02 0.  0.
        254    2    1    2    0    0  0.27971292554E+03  0.38617235344E+03  0.17568860750E+03  0.10460664072E+04  0.91434131162E+03 0.  0.
         23    2    4    4    0    0 -0.31761581364E+03  0.23856341640E+03  0.42673762992E+02  0.40998170685E+03  0.92041518832E+02 0.  0.
         23    2    4    4    0    0  0.59732873919E+03  0.14760893704E+03  0.13301484451E+03  0.63608470032E+03  0.91218288564E+02 0.  0.
          1    1    3    3  502    0 -0.57944753067E+01 -0.24430842835E+02 -0.56356319754E+02  0.61696651464E+02  0.00000000000E+00 0. -1.
         -2    1    3    3    0  502 -0.27391845024E+03 -0.36174151060E+03 -0.53867010022E+03  0.70431080834E+03  0.00000000000E+00 0.  1.
         11    1    5    5    0    0 -0.95304287803E+02  0.22907077933E+02  0.11509687556E+02  0.98692017918E+02  0.00000000000E+00 0.  1.
        -11    1    5    5    0    0 -0.22231152584E+03  0.21565633846E+03  0.31164075436E+02  0.31128968894E+03  0.00000000000E+00 0. -1.
          4    1    6    6  503    0  0.15856808118E+03  0.18425251917E+02 -0.41856680627E+00  0.15963552699E+03  0.00000000000E+00 0. -1.
         -4    1    6    6    0  503  0.43876065800E+03  0.12918368513E+03  0.13343341132E+03  0.47644917333E+03  0.00000000000E+00 0.  1.
<mgrwt>
<rscale>  0 0.17628861E+04</rscale>
<asrwt>0</asrwt>
<pdfrwt beam="1">  1        1 0.17164705E+00 0.17628861E+04</pdfrwt>
<pdfrwt beam="2">  1       -4 0.10713354E+00 0.17628861E+04</pdfrwt>
<totfact> 0.39759893E+00</totfact>
</mgrwt>
</event>
<event>
12    4  0.4207946E-008  0.2173121E+04  0.7818608E-02  0.8529700E-01
         -2   -1    0    0    0  501 -0.00000000000E+00  0.00000000000E+00  0.12808275631E+04  0.12808275631E+04  0.00000000000E+00 0.  1.
          1   -1    0    0  501    0  0.00000000000E+00 -0.00000000000E+00 -0.92175827091E+03  0.92175827091E+03  0.00000000000E+00 0. -1.
        -24    2    1    2    0    0  0.41839943513E+03 -0.64276204057E+03 -0.31822596153E+03  0.83428133998E+03  0.80971992293E+02 0.  0.
        254    2    1    2    0    0 -0.41839943513E+03  0.64276204057E+03  0.67729525370E+03  0.13683044940E+04  0.90847520579E+03 0.  0.
         23    2    4    4    0    0 -0.10291708904E+03  0.26460613817E+03  0.79950185645E+03  0.85336160318E+03  0.91730429738E+02 0.  0.
         23    2    4    4    0    0 -0.31548234609E+03  0.37815590240E+03 -0.12220660274E+03  0.51494289083E+03  0.87753802485E+02 0.  0.
          3    1    3    3  502    0  0.18448298567E+03 -0.23053055091E+03 -0.93341000850E+02  0.30966247649E+03  0.00000000000E+00 0. -1.
         -4    1    3    3    0  502  0.23391644947E+03 -0.41223148965E+03 -0.22488496068E+03  0.52461886349E+03  0.00000000000E+00 0.  1.
         11    1    5    5    0    0 -0.97701446976E+02  0.14944984789E+03  0.41077242162E+03  0.44790044891E+03  0.00000000000E+00 0.  1.
        -11    1    5    5    0    0 -0.52156420616E+01  0.11515629028E+03  0.38872943483E+03  0.40546115426E+03  0.00000000000E+00 0. -1.
          2    1    6    6  503    0 -0.20880591385E+03  0.19038280463E+03 -0.90246996046E+02  0.29663115523E+03  0.00000000000E+00 0. -1.
         -2    1    6    6    0  503 -0.10667643224E+03  0.18777309777E+03 -0.31959606699E+02  0.21831173561E+03  0.00000000000E+00 0.  1.
<mgrwt>
<rscale>  0 0.21731207E+04</rscale>
<asrwt>0</asrwt>
<pdfrwt beam="1">  1        1 0.14180896E+00 0.21731207E+04</pdfrwt>
<pdfrwt beam="2">  1       -2 0.19705040E+00 0.21731207E+04</pdfrwt>
<totfact> 0.19457855E+00</totfact>
</mgrwt>
</event>
<event>
12    4  0.4207946E-008  0.1324352E+04  0.7818608E-02  0.9010474E-01
          3   -1    0    0  501    0  0.00000000000E+00  0.00000000000E+00  0.18085936470E+04  0.18085936470E+04  0.00000000000E+00 0. -1.
         -4   -1    0    0    0  501 -0.00000000000E+00 -0.00000000000E+00 -0.24244087552E+03  0.24244087552E+03  0.00000000000E+00 0.  1.
        -24    2    1    2    0    0 -0.96200048248E+02 -0.35768083423E+03  0.64751144437E+03  0.74999603509E+03  0.77672090265E+02 0.  0.
        254    2    1    2    0    0  0.96200048248E+02  0.35768083423E+03  0.91864132711E+03  0.13010384874E+04  0.84356933884E+03 0.  0.
         23    2    4    4    0    0 -0.22109538344E+03  0.67759013575E+02 -0.34513253667E+02  0.25148765036E+03  0.92630562480E+02 0.  0.
         23    2    4    4    0    0  0.31729543169E+03  0.28992182066E+03  0.95315458078E+03  0.10495508371E+04  0.91226375933E+02 0.  0.
          3    1    3    3  502    0 -0.44276156847E+02 -0.21762320362E+03  0.45523005386E+03  0.50651222962E+03  0.00000000000E+00 0. -1.
         -4    1    3    3    0  502 -0.51923891401E+02 -0.14005763061E+03  0.19228139051E+03  0.24348380547E+03  0.00000000000E+00 0.  1.
         11    1    5    5    0    0 -0.57951758282E+02  0.57448944885E+02  0.96182141432E+01  0.82166280187E+02  0.00000000000E+00 0.  1.
        -11    1    5    5    0    0 -0.16314362516E+03  0.10310068690E+02 -0.44131467810E+02  0.16932137017E+03  0.00000000000E+00 0. -1.
          3    1    6    6  503    0  0.19741540070E+03  0.23572695531E+03  0.64821858966E+03  0.71744503474E+03  0.00000000000E+00 0. -1.
         -3    1    6    6    0  503  0.11988003099E+03  0.54194865350E+02  0.30493599111E+03  0.33210580232E+03  0.00000000000E+00 0.  1.
<mgrwt>
<rscale>  0 0.13243520E+04</rscale>
<asrwt>0</asrwt>
<pdfrwt beam="1">  1        3 0.27824517E+00 0.13243520E+04</pdfrwt>
<pdfrwt beam="2">  1       -4 0.37298597E-01 0.13243520E+04</pdfrwt>
<totfact> 0.80862278E-01</totfact>
</mgrwt>
</event>
<event>
12    4  0.4207946E-008  0.1550414E+04  0.7818608E-02  0.8851603E-01
         -2   -1    0    0    0  501 -0.00000000000E+00  0.00000000000E+00  0.10704602478E+04  0.10704602478E+04  0.00000000000E+00 0.  1.
          1   -1    0    0  501    0  0.00000000000E+00 -0.00000000000E+00 -0.56139037169E+03  0.56139037169E+03  0.00000000000E+00 0. -1.
        -24    2    1    2    0    0 -0.26306053293E+03 -0.33578560543E+03 -0.12309735085E+03  0.45113380173E+03  0.80099516086E+02 0.  0.
        254    2    1    2    0    0  0.26306053293E+03  0.33578560543E+03  0.63216722696E+03  0.11807168177E+04  0.90139002883E+03 0.  0.
         23    2    4    4    0    0  0.56059423364E+03  0.37952407092E+03  0.41533140822E+03  0.79924471110E+03  0.89372894972E+02 0.  0.
         23    2    4    4    0    0 -0.29753370071E+03 -0.43738465498E+02  0.21683581874E+03  0.38147210665E+03  0.89798883288E+02 0.  0.
          1    1    3    3  502    0 -0.23638074373E+03 -0.33053475318E+03 -0.12032702018E+03  0.42380145216E+03  0.00000000000E+00 0. -1.
         -2    1    3    3    0  502 -0.26679789197E+02 -0.52508522468E+01 -0.27703306787E+01  0.27332349570E+02  0.00000000000E+00 0.  1.
         11    1    5    5    0    0  0.29949799456E+03  0.14942548332E+03  0.19572565233E+03  0.38773129199E+03  0.00000000000E+00 0. -1.
        -11    1    5    5    0    0  0.26109623909E+03  0.23009858761E+03  0.21960575589E+03  0.41151341911E+03  0.00000000000E+00 0.  1.
          4    1    6    6  503    0 -0.18934358615E+03  0.16380370790E+02  0.12873744367E+03  0.22954877383E+03  0.00000000000E+00 0. -1.
         -4    1    6    6    0  503 -0.10819011456E+03 -0.60118836288E+02  0.88098375067E+02  0.15192333282E+03  0.00000000000E+00 0.  1.
<mgrwt>
<rscale>  0 0.15504142E+04</rscale>
<asrwt>0</asrwt>
<pdfrwt beam="1">  1        1 0.86367749E-01 0.15504142E+04</pdfrwt>
<pdfrwt beam="2">  1       -2 0.16468619E+00 0.15504142E+04</pdfrwt>
<totfact> 0.73856339E+00</totfact>
</mgrwt>
</event>
<event>
12    4  0.4207946E-008  0.2255616E+04  0.7818608E-02  0.8495630E-01
          1   -1    0    0  501    0  0.00000000000E+00  0.00000000000E+00  0.63210336667E+03  0.63210336667E+03  0.00000000000E+00 0. -1.
         -2   -1    0    0    0  501 -0.00000000000E+00 -0.00000000000E+00 -0.20122511631E+04  0.20122511631E+04  0.00000000000E+00 0.  1.
        -24    2    1    2    0    0  0.12700252114E+03 -0.11964431727E+03 -0.16721710763E+04  0.16831473815E+04  0.79903669604E+02 0.  0.
        254    2    1    2    0    0 -0.12700252114E+03  0.11964431727E+03  0.29202327986E+03  0.96120714828E+03  0.89899787702E+03 0.  0.
         23    2    4    4    0    0 -0.43652213119E+02  0.17026105371E+03  0.59627231178E+03  0.62838866438E+03  0.91854785398E+02 0.  0.
         23    2    4    4    0    0 -0.83350308020E+02 -0.50616736438E+02 -0.30424903192E+03  0.33281848390E+03  0.93227366934E+02 0.  0.
          1    1    3    3  502    0 -0.99504710349E+01 -0.54556467694E+00 -0.11629593830E+03  0.11672212635E+03  0.00000000000E+00 0. -1.
         -2    1    3    3    0  502  0.13695299217E+03 -0.11909875260E+03 -0.15558751380E+04  0.15664252552E+04  0.00000000000E+00 0.  1.
         11    1    5    5    0    0 -0.49655637022E+02  0.12009826953E+03  0.28747049394E+03  0.31548147572E+03  0.00000000000E+00 0. -1.
        -11    1    5    5    0    0  0.60034239036E+01  0.50162784178E+02  0.30880181784E+03  0.31290718866E+03  0.00000000000E+00 0.  1.
          4    1    6    6  503    0 -0.71991184555E+02 -0.36746765254E+02 -0.10374505119E+03  0.13151460397E+03  0.00000000000E+00 0. -1.
         -4    1    6    6    0  503 -0.11359123465E+02 -0.13869971183E+02 -0.20050398073E+03  0.20130387993E+03  0.00000000000E+00 0.  1.
<mgrwt>
<rscale>  0 0.22556159E+04</rscale>
<asrwt>0</asrwt>
<pdfrwt beam="1">  1        1 0.97246675E-01 0.22556159E+04</pdfrwt>
<pdfrwt beam="2">  1       -2 0.30957709E+00 0.22556159E+04</pdfrwt>
<totfact> 0.70089078E-01</totfact>
</mgrwt>
</event>
<event>
12    4  0.4207946E-008  0.1313840E+04  0.7818608E-02  0.9018662E-01
          1   -1    0    0  501    0  0.00000000000E+00  0.00000000000E+00  0.35757106043E+04  0.35757106043E+04  0.00000000000E+00 0. -1.
         -2   -1    0    0    0  501 -0.00000000000E+00 -0.00000000000E+00 -0.12068753707E+03  0.12068753707E+03  0.00000000000E+00 0.  1.
        -24    2    1    2    0    0 -0.23224752969E+03 -0.50893286662E+02  0.27245571032E+03  0.37216221056E+03  0.87997472746E+02 0.  0.
        254    2    1    2    0    0  0.23224752969E+03  0.50893286662E+02  0.31825673569E+04  0.33242359308E+04  0.93020454782E+03 0.  0.
         23    2    4    4    0    0  0.50252435299E+03 -0.15783806106E+03  0.12484959311E+04  0.13580574930E+04  0.90191381239E+02 0.  0.
         23    2    4    4    0    0 -0.27027682330E+03  0.20873134773E+03  0.19340714258E+04  0.19661784379E+04  0.92774095299E+02 0.  0.
          3    1    3    3  502    0 -0.10465660630E+03 -0.18478590898E+01  0.63376338186E+02  0.12236412901E+03  0.00000000000E+00 0. -1.
         -2    1    3    3    0  502 -0.12759092339E+03 -0.49045427573E+02  0.20907937213E+03  0.24979808155E+03  0.00000000000E+00 0.  1.
         11    1    5    5    0    0  0.76146679546E+02 -0.38095154420E+02  0.13365516330E+03  0.15847163870E+03  0.00000000000E+00 0. -1.
        -11    1    5    5    0    0  0.42637767345E+03 -0.11974290664E+03  0.11148407678E+04  0.11995858543E+04  0.00000000000E+00 0.  1.
          3    1    6    6  503    0 -0.18743680289E+03  0.19394946616E+03  0.14777716673E+04  0.15021844264E+04  0.00000000000E+00 0. -1.
         -3    1    6    6    0  503 -0.82840020410E+02  0.14781881564E+02  0.45629975855E+03  0.46399401145E+03  0.00000000000E+00 0.  1.
<mgrwt>
<rscale>  0 0.13138397E+04</rscale>
<asrwt>0</asrwt>
<pdfrwt beam="1">  1        1 0.55010924E+00 0.13138397E+04</pdfrwt>
<pdfrwt beam="2">  1       -2 0.18567316E-01 0.13138397E+04</pdfrwt>
<totfact> 0.46511138E+00</totfact>
</mgrwt>
</event>
<event>
12    4  0.4207946E-008  0.2282630E+04  0.7818608E-02  0.8484801E-01
         -2   -1    0    0    0  501 -0.00000000000E+00  0.00000000000E+00  0.89265575595E+03  0.89265575595E+03  0.00000000000E+00 0.  1.
          1   -1    0    0  501    0  0.00000000000E+00 -0.00000000000E+00 -0.14592411232E+04  0.14592411232E+04  0.00000000000E+00 0. -1.
        -24    2    1    2    0    0 -0.94293714823E+03  0.15841895937E+03 -0.28996851106E+03  0.10022758591E+04  0.79045101889E+02 0.  0.
        254    2    1    2    0    0  0.94293714823E+03 -0.15841895937E+03 -0.27661685618E+03  0.13496210200E+04  0.91144554440E+03 0.  0.
         23    2    4    4    0    0 -0.13813980712E+02  0.20322700294E+02 -0.35538482762E+03  0.36863407076E+03  0.94809620903E+02 0.  0.
         23    2    4    4    0    0  0.95675112894E+03 -0.17874165966E+03  0.78767971439E+02  0.98098694928E+03  0.93859989847E+02 0.  0.
          3    1    3    3  502    0 -0.42900210479E+03  0.52873581496E+02 -0.95033949175E+02  0.44257188459E+03  0.00000000000E+00 0. -1.
         -4    1    3    3    0  502 -0.51393504344E+03  0.10554537787E+03 -0.19493456189E+03  0.55970397451E+03  0.00000000000E+00 0.  1.
         11    1    5    5    0    0 -0.12891299106E+02 -0.27809344575E+02 -0.44446272110E+02  0.53990891294E+02  0.00000000000E+00 0.  1.
        -11    1    5    5    0    0 -0.92268160621E+00  0.48132044869E+02 -0.31093855551E+03  0.31464317947E+03  0.00000000000E+00 0. -1.
          1    1    6    6  503    0  0.89369775974E+03 -0.17737844511E+03  0.52422515630E+02  0.91263734237E+03  0.00000000000E+00 0. -1.
         -1    1    6    6    0  503  0.63053369208E+02 -0.13632145531E+01  0.26345455809E+02  0.68349606906E+02  0.00000000000E+00 0.  1.
<mgrwt>
<rscale>  0 0.22826301E+04</rscale>
<asrwt>0</asrwt>
<pdfrwt beam="1">  1        1 0.22449863E+00 0.22826301E+04</pdfrwt>
<pdfrwt beam="2">  1       -2 0.13733166E+00 0.22826301E+04</pdfrwt>
<totfact> 0.20951766E+00</totfact>
</mgrwt>
</event>
<event>
12    4  0.4207946E-008  0.2043743E+04  0.7818608E-02  0.8586438E-01
         -2   -1    0    0    0  501 -0.00000000000E+00  0.00000000000E+00  0.67403105372E+03  0.67403105372E+03  0.00000000000E+00 0.  1.
          1   -1    0    0  501    0  0.00000000000E+00 -0.00000000000E+00 -0.15492192347E+04  0.15492192347E+04  0.00000000000E+00 0. -1.
        -24    2    1    2    0    0 -0.59843892209E+03  0.56555390144E+03 -0.36485625197E+03  0.90405864375E+03  0.78877042560E+02 0.  0.
        254    2    1    2    0    0  0.59843892209E+03 -0.56555390144E+03 -0.51033192901E+03  0.13191916447E+04  0.89545941208E+03 0.  0.
         23    2    4    4    0    0 -0.13045448526E+03  0.12847157391E+03 -0.83861963627E+02  0.22130398498E+03  0.91756780662E+02 0.  0.
         23    2    4    4    0    0  0.72889340735E+03 -0.69402547535E+03 -0.42646996538E+03  0.10978876597E+04  0.10258519483E+03 0.  0.
          3    1    3    3  502    0 -0.98076285200E+02  0.11413649228E+03 -0.38709640020E+02  0.15538511132E+03  0.00000000000E+00 0. -1.
         -4    1    3    3    0  502 -0.50036263689E+03  0.45141740916E+03 -0.32614661195E+03  0.74867353243E+03  0.00000000000E+00 0.  1.
         11    1    5    5    0    0 -0.41629212416E+02  0.98957387155E+02 -0.65977861624E+02  0.12601045204E+03  0.00000000000E+00 0.  1.
        -11    1    5    5    0    0 -0.88825272845E+02  0.29514186754E+02 -0.17884102003E+02  0.95293532941E+02  0.00000000000E+00 0. -1.
          1    1    6    6  503    0  0.28995884699E+03 -0.22165632445E+03 -0.18644825733E+03  0.40984217911E+03  0.00000000000E+00 0. -1.
         -1    1    6    6    0  503  0.43893456036E+03 -0.47236915090E+03 -0.24002170805E+03  0.68804548057E+03  0.00000000000E+00 0.  1.
<mgrwt>
<rscale>  0 0.20437435E+04</rscale>
<asrwt>0</asrwt>
<pdfrwt beam="1">  1        1 0.23834142E+00 0.20437435E+04</pdfrwt>
<pdfrwt beam="2">  1       -2 0.10369709E+00 0.20437435E+04</pdfrwt>
<totfact> 0.37164754E+00</totfact>
</mgrwt>
</event>
<event>
12    4  0.4207946E-008  0.1604089E+04  0.7818608E-02  0.8818040E-01
         -2   -1    0    0    0  501 -0.00000000000E+00  0.00000000000E+00  0.84052144252E+03  0.84052144252E+03  0.00000000000E+00 0.  1.
          1   -1    0    0  501    0  0.00000000000E+00 -0.00000000000E+00 -0.76532925031E+03  0.76532925031E+03  0.00000000000E+00 0. -1.
        -24    2    1    2    0    0  0.48171464683E+03 -0.12934995444E+03  0.26492449333E+03  0.57044474570E+03  0.80260881127E+02 0.  0.
        254    2    1    2    0    0 -0.48171464683E+03  0.12934995444E+03 -0.18973230112E+03  0.10354059471E+04  0.88729178830E+03 0.  0.
         23    2    4    4    0    0 -0.17500933487E+03 -0.16199615730E+03  0.29019126782E+03  0.38770939081E+03  0.96107114860E+02 0.  0.
         23    2    4    4    0    0 -0.30670531196E+03  0.29134611174E+03 -0.47992356894E+03  0.64769655633E+03  0.10116072286E+03 0.  0.
          1    1    3    3  502    0  0.78246846513E+01 -0.11611795369E+02  0.19317045810E+02  0.23858074952E+02  0.00000000000E+00 0. -1.
         -2    1    3    3    0  502  0.47388996218E+03 -0.11773815907E+03  0.24560744752E+03  0.54658667074E+03  0.00000000000E+00 0.  1.
         11    1    5    5    0    0 -0.27533138426E+02 -0.67393435639E+02  0.42455492164E+02  0.84275842883E+02  0.00000000000E+00 0.  1.
        -11    1    5    5    0    0 -0.14747619645E+03 -0.94602721658E+02  0.24773577566E+03  0.30343354792E+03  0.00000000000E+00 0. -1.
          3    1    6    6  503    0 -0.30939581581E+03  0.29124933033E+03 -0.48320066820E+03  0.64345538230E+03  0.00000000000E+00 0. -1.
         -3    1    6    6    0  503  0.26905038507E+01  0.96781406962E-01  0.32770992608E+01  0.42411740327E+01  0.00000000000E+00 0.  1.
<mgrwt>
<rscale>  0 0.16040893E+04</rscale>
<asrwt>0</asrwt>
<pdfrwt beam="1">  1        1 0.11774296E+00 0.16040893E+04</pdfrwt>
<pdfrwt beam="2">  1       -2 0.12931099E+00 0.16040893E+04</pdfrwt>
<totfact> 0.87722249E+00</totfact>
</mgrwt>
</event>
<event>
12    4  0.4207946E-008  0.1793774E+04  0.7818608E-02  0.8709618E-01
          1   -1    0    0  501    0  0.00000000000E+00  0.00000000000E+00  0.80817459094E+03  0.80817459094E+03  0.00000000000E+00 0. -1.
         -2   -1    0    0    0  501 -0.00000000000E+00 -0.00000000000E+00 -0.99533699138E+03  0.99533699138E+03  0.00000000000E+00 0.  1.
        -24    2    1    2    0    0  0.55968976839E+03 -0.22592602745E+03 -0.31649230806E+03  0.68671556636E+03  0.84354497792E+02 0.  0.
        254    2    1    2    0    0 -0.55968976839E+03  0.22592602745E+03  0.12932990762E+03  0.11167960160E+04  0.93070506044E+03 0.  0.
         23    2    4    4    0    0 -0.23563559121E+03 -0.31909877728E+03  0.23095961731E+03  0.46807725484E+03  0.91683205479E+02 0.  0.
         23    2    4    4    0    0 -0.32405417718E+03  0.54502480473E+03 -0.10162970968E+03  0.64871876112E+03  0.91892794192E+02 0.  0.
          1    1    3    3  502    0  0.35061902780E+03 -0.13256012147E+03 -0.15059265296E+03  0.40396043814E+03  0.00000000000E+00 0. -1.
         -2    1    3    3    0  502  0.20907074060E+03 -0.93365905981E+02 -0.16589965509E+03  0.28275512822E+03  0.00000000000E+00 0.  1.
         11    1    5    5    0    0 -0.23719412178E+03 -0.32382465944E+03  0.23095255448E+03  0.46310100830E+03  0.00000000000E+00 0. -1.
        -11    1    5    5    0    0  0.15585305625E+01  0.47258821635E+01  0.70628216035E-02  0.49762465394E+01  0.00000000000E+00 0.  1.
          4    1    6    6  503    0 -0.31226046301E+03  0.50356731026E+03 -0.11501630996E+03  0.60358544074E+03  0.00000000000E+00 0. -1.
         -4    1    6    6    0  503 -0.11793714175E+02  0.41457494464E+02  0.13386600277E+02  0.45133320377E+02  0.00000000000E+00 0.  1.
<mgrwt>
<rscale>  0 0.17937737E+04</rscale>
<asrwt>0</asrwt>
<pdfrwt beam="1">  1        1 0.12433455E+00 0.17937737E+04</pdfrwt>
<pdfrwt beam="2">  1       -2 0.15312877E+00 0.17937737E+04</pdfrwt>
<totfact> 0.50997285E+00</totfact>
</mgrwt>
</event>
<event>
12    4  0.4207946E-008  0.1326596E+04  0.7818608E-02  0.9008736E-01
         -2   -1    0    0    0  501 -0.00000000000E+00  0.00000000000E+00  0.99107212246E+03  0.99107212246E+03  0.00000000000E+00 0.  1.
          1   -1    0    0  501    0  0.00000000000E+00 -0.00000000000E+00 -0.44392755344E+03  0.44392755344E+03  0.00000000000E+00 0. -1.
        -24    2    1    2    0    0 -0.24350348738E+02 -0.21316564328E+03 -0.17609117875E+03  0.28842421190E+03  0.78408493293E+02 0.  0.
        254    2    1    2    0    0  0.24350348738E+02  0.21316564328E+03  0.72323574777E+03  0.11465754640E+04  0.86344242242E+03 0.  0.
         23    2    4    4    0    0 -0.10492101893E+03  0.49714261051E+03  0.61837268770E+03  0.80538124883E+03  0.89972105011E+02 0.  0.
         23    2    4    4    0    0  0.12927136766E+03 -0.28397696723E+03  0.10486306007E+03  0.34119421517E+03  0.89795471409E+02 0.  0.
          1    1    3    3  502    0 -0.42752183217E+02 -0.62480746423E+02 -0.71015639397E+02  0.10380180096E+03  0.00000000000E+00 0. -1.
         -2    1    3    3    0  502  0.18401834479E+02 -0.15068489686E+03 -0.10507553935E+03  0.18462241094E+03  0.00000000000E+00 0.  1.
         11    1    5    5    0    0 -0.89494437826E+02  0.36441202767E+03  0.51092294769E+03  0.63391453588E+03  0.00000000000E+00 0. -1.
        -11    1    5    5    0    0 -0.15426581101E+02  0.13273058283E+03  0.10744974000E+03  0.17146671295E+03  0.00000000000E+00 0.  1.
          2    1    6    6  503    0 -0.43760316443E+01 -0.28691277637E+02  0.33522915959E+02  0.44341007654E+02  0.00000000000E+00 0.  1.
         -2    1    6    6    0  503  0.13364739931E+03 -0.25528568959E+03  0.71340144116E+02  0.29685320752E+03  0.00000000000E+00 0. -1.
<mgrwt>
<rscale>  0 0.13265960E+04</rscale>
<asrwt>0</asrwt>
<pdfrwt beam="1">  1        1 0.68296547E-01 0.13265960E+04</pdfrwt>
<pdfrwt beam="2">  1       -2 0.15247263E+00 0.13265960E+04</pdfrwt>
<totfact> 0.12811551E+01</totfact>
</mgrwt>
</event>
<event>
12    4  0.4207946E-008  0.1592086E+04  0.7818608E-02  0.8825425E-01
         -2   -1    0    0    0  501 -0.00000000000E+00  0.00000000000E+00  0.84495165557E+03  0.84495165557E+03  0.00000000000E+00 0.  1.
          1   -1    0    0  501    0  0.00000000000E+00 -0.00000000000E+00 -0.74996494502E+03  0.74996494502E+03  0.00000000000E+00 0. -1.
        -24    2    1    2    0    0 -0.15937099603E+03  0.51151487168E+03  0.14411716077E+03  0.56077308272E+03  0.81548243079E+02 0.  0.
        254    2    1    2    0    0  0.15937099603E+03 -0.51151487168E+03 -0.49130450224E+02  0.10341435179E+04  0.88317180439E+03 0.  0.
         23    2    4    4    0    0  0.15766990114E+03  0.21521074377E+03  0.74299130352E+02  0.29152998313E+03  0.91070897301E+02 0.  0.
         23    2    4    4    0    0  0.17010948920E+01 -0.72672561545E+03 -0.12342958058E+03  0.74261353473E+03  0.90038806767E+02 0.  0.
          3    1    3    3  502    0 -0.38066141879E+02  0.18502211656E+03  0.86419862828E+02  0.20772724295E+03  0.00000000000E+00 0. -1.
         -4    1    3    3    0  502 -0.12130485415E+03  0.32649275513E+03  0.57697297944E+02  0.35304583977E+03  0.00000000000E+00 0.  1.
         11    1    5    5    0    0  0.85985972430E+02  0.76705687791E+02 -0.74106453734E+01  0.11546543924E+03  0.00000000000E+00 0. -1.
        -11    1    5    5    0    0  0.71683928710E+02  0.13850505598E+03  0.81709775725E+02  0.17606454389E+03  0.00000000000E+00 0.  1.
          4    1    6    6  503    0  0.42154721472E+02 -0.25268855522E+03 -0.32371369451E+02  0.25821779962E+03  0.00000000000E+00 0. -1.
         -4    1    6    6    0  503 -0.40453626579E+02 -0.47403706023E+03 -0.91058211124E+02  0.48439573511E+03  0.00000000000E+00 0.  1.
<mgrwt>
<rscale>  0 0.15920856E+04</rscale>
<asrwt>0</asrwt>
<pdfrwt beam="1">  1        1 0.11537922E+00 0.15920856E+04</pdfrwt>
<pdfrwt beam="2">  1       -2 0.12999256E+00 0.15920856E+04</pdfrwt>
<totfact> 0.89442524E+00</totfact>
</mgrwt>
</event>
<event>
12    4  0.4207946E-008  0.1583930E+04  0.7818608E-02  0.8830482E-01
          1   -1    0    0  501    0  0.00000000000E+00  0.00000000000E+00  0.13847419543E+04  0.13847419543E+04  0.00000000000E+00 0. -1.
         -2   -1    0    0    0  501 -0.00000000000E+00 -0.00000000000E+00 -0.45294228401E+03  0.45294228401E+03  0.00000000000E+00 0.  1.
        -24    2    1    2    0    0  0.38901070001E+03 -0.35380577630E+02  0.64197079257E+03  0.75538491554E+03  0.76803399138E+02 0.  0.
        254    2    1    2    0    0 -0.38901070001E+03  0.35380577630E+02  0.28982887778E+03  0.10822993228E+04  0.96684535257E+03 0.  0.
         23    2    4    4    0    0  0.24980709103E+03  0.17801651896E+03 -0.73847967888E+02  0.32795632385E+03  0.89489464386E+02 0.  0.
         23    2    4    4    0    0 -0.63881779104E+03 -0.14263594133E+03  0.36367684566E+03  0.75434299897E+03  0.91319932748E+02 0.  0.
          3    1    3    3  502    0  0.33395792982E+03 -0.48375322434E+02  0.58338409177E+03  0.67394737869E+03  0.00000000000E+00 0. -1.
         -4    1    3    3    0  502  0.55052770187E+02  0.12994744804E+02  0.58586700795E+02  0.81437536848E+02  0.00000000000E+00 0.  1.
         11    1    5    5    0    0  0.16472127436E+03  0.64290222242E+02 -0.30320644979E+02  0.17940365775E+03  0.00000000000E+00 0. -1.
        -11    1    5    5    0    0  0.85085816675E+02  0.11372629672E+03 -0.43527322909E+02  0.14855266610E+03  0.00000000000E+00 0.  1.
          1    1    6    6  503    0 -0.51284475149E+03 -0.14215792146E+03  0.32016045797E+03  0.62106467668E+03  0.00000000000E+00 0.  1.
         -1    1    6    6    0  503 -0.12597303955E+03 -0.47801986896E+00  0.43516387693E+02  0.13327832229E+03  0.00000000000E+00 0. -1.
<mgrwt>
<rscale>  0 0.15839295E+04</rscale>
<asrwt>0</asrwt>
<pdfrwt beam="1">  1        1 0.21303722E+00 0.15839295E+04</pdfrwt>
<pdfrwt beam="2">  1       -2 0.69683429E-01 0.15839295E+04</pdfrwt>
<totfact> 0.12462905E+01</totfact>
</mgrwt>
</event>
<event>
12    4  0.4207946E-008  0.1305080E+04  0.7818608E-02  0.9025547E-01
          1   -1    0    0  501    0  0.00000000000E+00  0.00000000000E+00  0.57091615029E+03  0.57091615029E+03  0.00000000000E+00 0. -1.
         -2   -1    0    0    0  501 -0.00000000000E+00 -0.00000000000E+00 -0.74583329453E+03  0.74583329453E+03  0.00000000000E+00 0.  1.
        -24    2    1    2    0    0  0.12359628605E+03 -0.30911061940E+03 -0.56364600172E+02  0.34727840806E+03  0.81239815340E+02 0.  0.
        254    2    1    2    0    0 -0.12359628605E+03  0.30911061940E+03 -0.11855254406E+03  0.96947103676E+03  0.90277016370E+03 0.  0.
         23    2    4    4    0    0 -0.30313355596E+03  0.15006977848E+03  0.30987591356E+03  0.46868038215E+03  0.96058980021E+02 0.  0.
         23    2    4    4    0    0  0.17953726991E+03  0.15904084092E+03 -0.42842845762E+03  0.50079065461E+03  0.98553113008E+02 0.  0.
          1    1    3    3  502    0  0.77963246573E+02 -0.20025308183E+03 -0.75358673393E+02  0.22772460177E+03  0.00000000000E+00 0. -1.
         -2    1    3    3    0  502  0.45633039480E+02 -0.10885753758E+03  0.18994073222E+02  0.11955380628E+03  0.00000000000E+00 0.  1.
         11    1    5    5    0    0 -0.22002028945E+03  0.14877025687E+03  0.26036295559E+03  0.37192793084E+03  0.00000000000E+00 0. -1.
        -11    1    5    5    0    0 -0.83113266508E+02  0.12995216136E+01  0.49512957970E+02  0.96752451302E+02  0.00000000000E+00 0.  1.
          4    1    6    6  503    0 -0.79998837132E+00 -0.11220280210E+02 -0.20576771774E+02  0.23450761310E+02  0.00000000000E+00 0. -1.
         -4    1    6    6    0  503  0.18033725828E+03  0.17026112113E+03 -0.40785168585E+03  0.47733989330E+03  0.00000000000E+00 0.  1.
<mgrwt>
<rscale>  0 0.13050797E+04</rscale>
<asrwt>0</asrwt>
<pdfrwt beam="1">  1        1 0.87833254E-01 0.13050797E+04</pdfrwt>
<pdfrwt beam="2">  1       -2 0.11474358E+00 0.13050797E+04</pdfrwt>
<totfact> 0.18738131E+01</totfact>
</mgrwt>
</event>
<event>
12    4  0.4207946E-008  0.2064284E+04  0.7818608E-02  0.8577142E-01
         -2   -1    0    0    0  501 -0.00000000000E+00  0.00000000000E+00  0.65890142298E+03  0.65890142298E+03  0.00000000000E+00 0.  1.
          1   -1    0    0  501    0  0.00000000000E+00 -0.00000000000E+00 -0.16168080429E+04  0.16168080429E+04  0.00000000000E+00 0. -1.
        -24    2    1    2    0    0 -0.48033583963E+03  0.71935630938E+03 -0.28543413760E+03  0.91436306114E+03  0.79944618330E+02 0.  0.
        254    2    1    2    0    0  0.48033583963E+03 -0.71935630938E+03 -0.67247248232E+03  0.13613464047E+04  0.80799057887E+03 0.  0.
         23    2    4    4    0    0  0.41010555777E+03 -0.76095247377E+03 -0.79873700295E+03  0.11805054734E+04  0.91526701455E+02 0.  0.
         23    2    4    4    0    0  0.70230281853E+02  0.41596164392E+02  0.12626452062E+03  0.18084093130E+03  0.10048970040E+03 0.  0.
          1    1    3    3  502    0 -0.38887585475E+03  0.62401550036E+03 -0.25955124558E+03  0.77973497048E+03  0.00000000000E+00 0. -1.
         -2    1    3    3    0  502 -0.91459984871E+02  0.95340809019E+02 -0.25882892023E+02  0.13462809067E+03  0.00000000000E+00 0.  1.
         11    1    5    5    0    0  0.13040082554E+03 -0.33663298465E+03 -0.32628163860E+03  0.48660646250E+03  0.00000000000E+00 0. -1.
        -11    1    5    5    0    0  0.27970473224E+03 -0.42431948912E+03 -0.47245536434E+03  0.69389901094E+03  0.00000000000E+00 0.  1.
          2    1    6    6  503    0  0.48044123068E+02  0.35816205646E+02  0.80969671990E+01  0.60469820788E+02  0.00000000000E+00 0. -1.
         -2    1    6    6    0  503  0.22186158784E+02  0.57799587454E+01  0.11816755342E+03  0.12037111052E+03  0.00000000000E+00 0.  1.
<mgrwt>
<rscale>  0 0.20642840E+04</rscale>
<asrwt>0</asrwt>
<pdfrwt beam="1">  1        1 0.24873969E+00 0.20642840E+04</pdfrwt>
<pdfrwt beam="2">  1       -2 0.10136945E+00 0.20642840E+04</pdfrwt>
<totfact> 0.35193023E+00</totfact>
</mgrwt>
</event>
<event>
12    4  0.4207946E-008  0.1655273E+04  0.7818608E-02  0.8787293E-01
         -2   -1    0    0    0  501 -0.00000000000E+00  0.00000000000E+00  0.14368277950E+04  0.14368277950E+04  0.00000000000E+00 0.  1.
          1   -1    0    0  501    0  0.00000000000E+00 -0.00000000000E+00 -0.47673254009E+03  0.47673254009E+03  0.00000000000E+00 0. -1.
        -24    2    1    2    0    0  0.46656721594E+02  0.16723460931E+03  0.98095324704E+03  0.99936295985E+03  0.79453057894E+02 0.  0.
        254    2    1    2    0    0 -0.46656721594E+02 -0.16723460931E+03 -0.20857992098E+02  0.91419737528E+03  0.89731684533E+03 0.  0.
         23    2    4    4    0    0 -0.16164194125E+03 -0.45218991369E+03 -0.22123619863E+03  0.53629290001E+03  0.89781867867E+02 0.  0.
         23    2    4    4    0    0  0.11498521966E+03  0.28495530438E+03  0.20037820653E+03  0.37790447527E+03  0.90770262414E+02 0.  0.
          1    1    3    3  502    0  0.55427681003E+02  0.71580079776E+02  0.37060012594E+03  0.38149756092E+03  0.00000000000E+00 0. -1.
         -2    1    3    3    0  502 -0.87709594095E+01  0.95654529532E+02  0.61035312110E+03  0.61786539892E+03  0.00000000000E+00 0.  1.
         11    1    5    5    0    0 -0.14404829082E+03 -0.27479964105E+03 -0.14187984666E+03  0.34116659229E+03  0.00000000000E+00 0.  1.
        -11    1    5    5    0    0 -0.17593650432E+02 -0.17739027265E+03 -0.79356351971E+02  0.19512630772E+03  0.00000000000E+00 0. -1.
          1    1    6    6  503    0  0.11895023787E+02 -0.43077107248E+01  0.34926875133E+01  0.13124283929E+02  0.00000000000E+00 0. -1.
         -1    1    6    6    0  503  0.10309019587E+03  0.28926301511E+03  0.19688551902E+03  0.36478019134E+03  0.00000000000E+00 0.  1.
<mgrwt>
<rscale>  0 0.16552735E+04</rscale>
<asrwt>0</asrwt>
<pdfrwt beam="1">  1        1 0.73343468E-01 0.16552735E+04</pdfrwt>
<pdfrwt beam="2">  1       -2 0.22105043E+00 0.16552735E+04</pdfrwt>
<totfact> 0.38463628E+00</totfact>
</mgrwt>
</event>
<event>
12    4  0.4207946E-008  0.1193022E+04  0.7818608E-02  0.9118986E-01
         -2   -1    0    0    0  501 -0.00000000000E+00  0.00000000000E+00  0.12924897308E+03  0.12924897308E+03  0.00000000000E+00 0.  1.
          1   -1    0    0  501    0  0.00000000000E+00 -0.00000000000E+00 -0.27530243886E+04  0.27530243886E+04  0.00000000000E+00 0. -1.
        -24    2    1    2    0    0 -0.16761946077E+02  0.14893111136E+03 -0.70630636596E+02  0.18346756838E+03  0.78804968463E+02 0.  0.
        254    2    1    2    0    0  0.16761946077E+02 -0.14893111136E+03 -0.25531447789E+04  0.26988057933E+04  0.86170935301E+03 0.  0.
         23    2    4    4    0    0 -0.35411476280E+03  0.36413066925E+02 -0.17763681007E+04  0.18137042622E+04  0.85535636139E+02 0.  0.
         23    2    4    4    0    0  0.37087670888E+03 -0.18534417829E+03 -0.77677667825E+03  0.88510153108E+03  0.90115008912E+02 0.  0.
          3    1    3    3  502    0 -0.81280957895E+01  0.15625951821E+02 -0.43808756045E+02  0.47216982301E+02  0.00000000000E+00 0. -1.
         -4    1    3    3    0  502 -0.86338502870E+01  0.13330515954E+03 -0.26821880552E+02  0.13625058608E+03  0.00000000000E+00 0.  1.
         11    1    5    5    0    0 -0.20998255057E+03 -0.14878921907E+02 -0.91981764561E+03  0.94359872564E+03  0.00000000000E+00 0.  1.
        -11    1    5    5    0    0 -0.14413221223E+03  0.51291988832E+02 -0.85655045508E+03  0.87010553660E+03  0.00000000000E+00 0. -1.
          3    1    6    6  503    0  0.23116165620E+03 -0.16258501918E+03 -0.50745767469E+03  0.58084670211E+03  0.00000000000E+00 0. -1.
         -3    1    6    6    0  503  0.13971505267E+03 -0.22759159112E+02 -0.26931900357E+03  0.30425482897E+03  0.00000000000E+00 0.  1.
<mgrwt>
<rscale>  0 0.11930223E+04</rscale>
<asrwt>0</asrwt>
<pdfrwt beam="1">  1        1 0.42354218E+00 0.11930223E+04</pdfrwt>
<pdfrwt beam="2">  1       -2 0.19884459E-01 0.11930223E+04</pdfrwt>
<totfact> 0.17062278E+01</totfact>
</mgrwt>
</event>
<event>
12    4  0.4207946E-008  0.1601492E+04  0.7818608E-02  0.8819632E-01
         -2   -1    0    0    0  501 -0.00000000000E+00  0.00000000000E+00  0.62658777947E+03  0.62658777947E+03  0.00000000000E+00 0.  1.
          1   -1    0    0  501    0  0.00000000000E+00 -0.00000000000E+00 -0.10233103453E+04  0.10233103453E+04  0.00000000000E+00 0. -1.
        -24    2    1    2    0    0  0.22316061876E+03  0.47332925313E+03 -0.29501813974E+03  0.60525244588E+03  0.73848336746E+02 0.  0.
        254    2    1    2    0    0 -0.22316061876E+03 -0.47332925313E+03 -0.10170442606E+03  0.10446456789E+04  0.89838719962E+03 0.  0.
         23    2    4    4    0    0  0.33229648589E+03 -0.27220837877E+03 -0.63796648957E+01  0.43926000055E+03  0.91598536860E+02 0.  0.
         23    2    4    4    0    0 -0.55545710465E+03 -0.20112087436E+03 -0.95324761161E+02  0.60538567830E+03  0.91775858410E+02 0.  0.
          3    1    3    3  502    0  0.14742560484E+03  0.30430770732E+03 -0.23004922248E+03  0.40897449121E+03  0.00000000000E+00 0. -1.
         -4    1    3    3    0  502  0.75735013916E+02  0.16902154581E+03 -0.64968917261E+02  0.19627795467E+03  0.00000000000E+00 0.  1.
         11    1    5    5    0    0  0.33538944290E+03 -0.25585332475E+03 -0.12395579226E+01  0.42183947029E+03  0.00000000000E+00 0.  1.
        -11    1    5    5    0    0 -0.30929570044E+01 -0.16355054015E+02 -0.51401069731E+01  0.17420530261E+02  0.00000000000E+00 0. -1.
          3    1    6    6  503    0 -0.69931416907E+02 -0.46460375877E+01 -0.34427930514E+02  0.78085025039E+02  0.00000000000E+00 0. -1.
         -3    1    6    6    0  503 -0.48552568775E+03 -0.19647483677E+03 -0.60896830647E+02  0.52730065326E+03  0.00000000000E+00 0.  1.
<mgrwt>
<rscale>  0 0.16014915E+04</rscale>
<asrwt>0</asrwt>
<pdfrwt beam="1">  1        1 0.15743236E+00 0.16014915E+04</pdfrwt>
<pdfrwt beam="2">  1       -2 0.96398122E-01 0.16014915E+04</pdfrwt>
<totfact> 0.10993276E+01</totfact>
</mgrwt>
</event>
<event>
12    4  0.4207946E-008  0.1369761E+04  0.7818608E-02  0.8976003E-01
          1   -1    0    0  501    0  0.00000000000E+00  0.00000000000E+00  0.27792765331E+03  0.27792765331E+03  0.00000000000E+00 0. -1.
         -2   -1    0    0    0  501 -0.00000000000E+00 -0.00000000000E+00 -0.16877095254E+04  0.16877095254E+04  0.00000000000E+00 0.  1.
        -24    2    1    2    0    0  0.18800681464E+03 -0.33039869906E+03 -0.41254716634E+03  0.56703886587E+03  0.82632005105E+02 0.  0.
        254    2    1    2    0    0 -0.18800681464E+03  0.33039869906E+03 -0.99723470578E+03  0.13985983129E+04  0.90393048385E+03 0.  0.
         23    2    4    4    0    0  0.20919575019E+03  0.37020170661E+03 -0.86897067593E+03  0.97176349743E+03  0.91662935988E+02 0.  0.
         23    2    4    4    0    0 -0.39720256483E+03 -0.39803007551E+02 -0.12826402985E+03  0.42683481543E+03  0.79888305722E+02 0.  0.
          3    1    3    3  502    0  0.11353388054E+03 -0.16106297746E+03 -0.26598573989E+03  0.33102815373E+03  0.00000000000E+00 0. -1.
         -4    1    3    3    0  502  0.74472934104E+02 -0.16933572161E+03 -0.14656142645E+03  0.23601071215E+03  0.00000000000E+00 0.  1.
         11    1    5    5    0    0  0.18222698566E+03  0.34649548278E+03 -0.73141422498E+03  0.82959783172E+03  0.00000000000E+00 0.  1.
        -11    1    5    5    0    0  0.26968764531E+02  0.23706223829E+02 -0.13755645095E+03  0.14216566571E+03  0.00000000000E+00 0. -1.
          3    1    6    6  503    0 -0.16553063711E+01  0.56519008663E+01 -0.98016347010E+01  0.11434861844E+02  0.00000000000E+00 0. -1.
         -3    1    6    6    0  503 -0.39554725846E+03 -0.45454908417E+02 -0.11846239515E+03  0.41539995359E+03  0.00000000000E+00 0.  1.
<mgrwt>
<rscale>  0 0.13697608E+04</rscale>
<asrwt>0</asrwt>
<pdfrwt beam="1">  1        1 0.42758100E-01 0.13697608E+04</pdfrwt>
<pdfrwt beam="2">  1       -2 0.25964762E+00 0.13697608E+04</pdfrwt>
<totfact> 0.46426939E+00</totfact>
</mgrwt>
</event>
<event>
12    4  0.4207946E-008  0.1263699E+04  0.7818608E-02  0.9058858E-01
         -2   -1    0    0    0  501 -0.00000000000E+00  0.00000000000E+00  0.17709440324E+03  0.17709440324E+03  0.00000000000E+00 0.  1.
          1   -1    0    0  501    0  0.00000000000E+00 -0.00000000000E+00 -0.22543547205E+04  0.22543547205E+04  0.00000000000E+00 0. -1.
        -24    2    1    2    0    0 -0.74332002524E+02  0.18677644669E+03 -0.75444582854E+02  0.22890699870E+03  0.79346337884E+02 0.  0.
        254    2    1    2    0    0  0.74332002524E+02 -0.18677644669E+03 -0.20018157344E+04  0.22025421250E+04  0.89638992097E+03 0.  0.
         23    2    4    4    0    0  0.45446704286E+03  0.11385243459E+02 -0.12452798331E+04  0.13288083425E+04  0.91322677215E+02 0.  0.
         23    2    4    4    0    0 -0.38013504034E+03 -0.19816169015E+03 -0.75653590127E+03  0.87373378258E+03  0.85401689442E+02 0.  0.
          3    1    3    3  502    0 -0.49253714629E+02  0.82984968014E+02 -0.74850503177E+02  0.12212711061E+03  0.00000000000E+00 0. -1.
         -4    1    3    3    0  502 -0.25078287895E+02  0.10379147868E+03 -0.59407967703E+00  0.10677988809E+03  0.00000000000E+00 0.  1.
         11    1    5    5    0    0  0.14315201311E+03 -0.38889833903E+02 -0.39636545245E+03  0.42321447274E+03  0.00000000000E+00 0. -1.
        -11    1    5    5    0    0  0.31131502975E+03  0.50275077362E+02 -0.84891438069E+03  0.90559386974E+03  0.00000000000E+00 0.  1.
          3    1    6    6  503    0 -0.14047364050E+03 -0.39315163013E+02 -0.20296643000E+03  0.24994778940E+03  0.00000000000E+00 0. -1.
         -3    1    6    6    0  503 -0.23966139984E+03 -0.15884652714E+03 -0.55356947127E+03  0.62378599317E+03  0.00000000000E+00 0.  1.
<mgrwt>
<rscale>  0 0.12636987E+04</rscale>
<asrwt>0</asrwt>
<pdfrwt beam="1">  1        1 0.34682379E+00 0.12636987E+04</pdfrwt>
<pdfrwt beam="2">  1       -2 0.27245294E-01 0.12636987E+04</pdfrwt>
<totfact> 0.21272455E+01</totfact>
</mgrwt>
</event>
<event>
12    4  0.4207946E-008  0.1523254E+04  0.7818608E-02  0.8869135E-01
         -2   -1    0    0    0  501 -0.00000000000E+00  0.00000000000E+00  0.34035632459E+03  0.34035632459E+03  0.00000000000E+00 0.  1.
          1   -1    0    0  501    0  0.00000000000E+00 -0.00000000000E+00 -0.17043180601E+04  0.17043180601E+04  0.00000000000E+00 0. -1.
        -24    2    1    2    0    0 -0.36281878589E+03 -0.32155216816E+03 -0.48188918855E+03  0.68820548773E+03  0.79851957118E+02 0.  0.
        254    2    1    2    0    0  0.36281878589E+03  0.32155216816E+03 -0.88207254698E+03  0.13564688970E+04  0.90935285895E+03 0.  0.
         23    2    4    4    0    0  0.54500766307E+03 -0.94666496583E+02 -0.55465821366E+03  0.78960237407E+03  0.99151786556E+02 0.  0.
         23    2    4    4    0    0 -0.18218887717E+03  0.41621866474E+03 -0.32741433332E+03  0.56686652291E+03  0.87788070305E+02 0.  0.
          3    1    3    3  502    0 -0.70276292034E+02 -0.29612532754E+02 -0.54959252720E+02  0.94000950941E+02  0.00000000000E+00 0. -1.
         -4    1    3    3    0  502 -0.29254249386E+03 -0.29193963540E+03 -0.42692993583E+03  0.59420453679E+03  0.00000000000E+00 0.  1.
         11    1    5    5    0    0  0.48665888584E+03 -0.95331959287E+02 -0.53122027182E+03  0.72671867378E+03  0.00000000000E+00 0. -1.
        -11    1    5    5    0    0  0.58348777226E+02  0.66546270444E+00 -0.23437941845E+02  0.62883700291E+02  0.00000000000E+00 0.  1.
          2    1    6    6  503    0 -0.51239656023E+02  0.19501789226E+03 -0.10709168136E+03  0.22831142956E+03  0.00000000000E+00 0. -1.
         -2    1    6    6    0  503 -0.13094922115E+03  0.22120077248E+03 -0.22032265196E+03  0.33855509335E+03  0.00000000000E+00 0.  1.
<mgrwt>
<rscale>  0 0.15232537E+04</rscale>
<asrwt>0</asrwt>
<pdfrwt beam="1">  1        1 0.26220278E+00 0.15232537E+04</pdfrwt>
<pdfrwt beam="2">  1       -2 0.52362511E-01 0.15232537E+04</pdfrwt>
<totfact> 0.13809388E+01</totfact>
</mgrwt>
</event>
<event>
12    4  0.4207946E-008  0.1985379E+04  0.7818608E-02  0.8613487E-01
          1   -1    0    0  501    0  0.00000000000E+00  0.00000000000E+00  0.66223382353E+03  0.66223382353E+03  0.00000000000E+00 0. -1.
         -2   -1    0    0    0  501 -0.00000000000E+00 -0.00000000000E+00 -0.14880427948E+04  0.14880427948E+04  0.00000000000E+00 0.  1.
        -24    2    1    2    0    0 -0.48574518337E+03  0.61506601013E+03 -0.36606361775E+03  0.86875450267E+03  0.80481262946E+02 0.  0.
        254    2    1    2    0    0  0.48574518337E+03 -0.61506601013E+03 -0.45974535350E+03  0.12815221156E+04  0.90370269603E+03 0.  0.
         23    2    4    4    0    0  0.26930105828E+03 -0.80402688551E+03 -0.48068582251E+03  0.97898649252E+03  0.91506283690E+02 0.  0.
         23    2    4    4    0    0  0.21644412509E+03  0.18896087538E+03  0.20940469016E+02  0.30253562312E+03  0.92385216889E+02 0.  0.
          3    1    3    3  502    0 -0.14325267537E+03  0.16651652411E+03 -0.64765083248E+02  0.22900567200E+03  0.00000000000E+00 0. -1.
         -4    1    3    3    0  502 -0.34249250800E+03  0.44854948602E+03 -0.30129853450E+03  0.63974883067E+03  0.00000000000E+00 0.  1.
         11    1    5    5    0    0  0.19845710855E+03 -0.68309551451E+03 -0.42155052727E+03  0.82686731276E+03  0.00000000000E+00 0. -1.
        -11    1    5    5    0    0  0.70843949734E+02 -0.12093137101E+03 -0.59135295246E+02  0.15211917976E+03  0.00000000000E+00 0.  1.
          4    1    6    6  503    0  0.19333563398E+03  0.16957153118E+03  0.48475800385E+02  0.26169271059E+03  0.00000000000E+00 0. -1.
         -4    1    6    6    0  503  0.23108491111E+02  0.19389344207E+02 -0.27535331369E+02  0.40842912528E+02  0.00000000000E+00 0.  1.
<mgrwt>
<rscale>  0 0.19853788E+04</rscale>
<asrwt>0</asrwt>
<pdfrwt beam="1">  1        1 0.10188213E+00 0.19853788E+04</pdfrwt>
<pdfrwt beam="2">  1       -2 0.22892966E+00 0.19853788E+04</pdfrwt>
<totfact> 0.20913928E+00</totfact>
</mgrwt>
</event>
<event>
12    4  0.4207946E-008  0.2741754E+04  0.7818608E-02  0.8321583E-01
         -2   -1    0    0    0  501 -0.00000000000E+00  0.00000000000E+00  0.12024018102E+04  0.12024018102E+04  0.00000000000E+00 0.  1.
          1   -1    0    0  501    0  0.00000000000E+00 -0.00000000000E+00 -0.15629576725E+04  0.15629576725E+04  0.00000000000E+00 0. -1.
        -24    2    1    2    0    0 -0.26610724971E+03  0.67791666529E+03 -0.11499345148E+04  0.13634691301E+04  0.79464502060E+02 0.  0.
        254    2    1    2    0    0  0.26610724971E+03 -0.67791666529E+03  0.78937865244E+03  0.14018903527E+04  0.90099602136E+03 0.  0.
         23    2    4    4    0    0  0.57101558818E+03 -0.50850898666E+03  0.67332556693E+03  0.10228098221E+04  0.90179940325E+02 0.  0.
         23    2    4    4    0    0 -0.30490833847E+03 -0.16940767863E+03  0.11605308551E+03  0.37908053056E+03  0.92550924058E+02 0.  0.
          1    1    3    3  502    0 -0.15397351071E+03  0.43516744895E+03 -0.66159004890E+03  0.80670933020E+03  0.00000000000E+00 0. -1.
         -2    1    3    3    0  502 -0.11213373899E+03  0.24274921634E+03 -0.48834446587E+03  0.55675979991E+03  0.00000000000E+00 0.  1.
         11    1    5    5    0    0  0.73997646498E+02 -0.40446102875E+02  0.10371193491E+03  0.13367013267E+03  0.00000000000E+00 0. -1.
        -11    1    5    5    0    0  0.49701794168E+03 -0.46806288378E+03  0.56961363201E+03  0.88913968942E+03  0.00000000000E+00 0.  1.
          3    1    6    6  503    0 -0.21542362739E+03 -0.14929766925E+03  0.51996297464E+02  0.26720918441E+03  0.00000000000E+00 0. -1.
         -3    1    6    6    0  503 -0.89484711079E+02 -0.20110009376E+02  0.64056788048E+02  0.11187134615E+03  0.00000000000E+00 0.  1.
<mgrwt>
<rscale>  0 0.27417536E+04</rscale>
<asrwt>0</asrwt>
<pdfrwt beam="1">  1        1 0.24045503E+00 0.27417536E+04</pdfrwt>
<pdfrwt beam="2">  1       -2 0.18498489E+00 0.27417536E+04</pdfrwt>
<totfact> 0.75789204E-01</totfact>
</mgrwt>
</event>
<event>
12    4  0.5463164E-008  0.1910499E+04  0.7818608E-02  0.8649648E-01
          1   -1    0    0  501    0  0.00000000000E+00  0.00000000000E+00  0.19056408877E+04  0.19056408877E+04  0.00000000000E+00 0. -1.
         -2   -1    0    0    0  501 -0.00000000000E+00 -0.00000000000E+00 -0.47884260156E+03  0.47884260156E+03  0.00000000000E+00 0.  1.
        -24    2    1    2    0    0  0.53787366382E+03  0.42834587778E+03  0.92865512948E+03  0.11582090910E+04  0.79118138089E+02 0.  0.
        254    2    1    2    0    0 -0.53787366382E+03 -0.42834587778E+03  0.49814315662E+03  0.12262743982E+04  0.88476778081E+03 0.  0.
         23    2    4    4    0    0 -0.61626478560E+03 -0.62958052760E+03  0.39798040445E+03  0.97103091905E+03  0.91426017728E+02 0.  0.
         23    2    4    4    0    0  0.78391121784E+02  0.20123464982E+03  0.10016275217E+03  0.25524347915E+03  0.92065761631E+02 0.  0.
          3    1    3    3  502    0  0.51677906704E+03  0.38668079389E+03  0.86601147549E+03  0.10800733846E+04  0.00000000000E+00 0. -1.
         -4    1    3    3    0  502  0.21094596775E+02  0.41665083890E+02  0.62643653983E+02  0.78135706390E+02  0.00000000000E+00 0.  1.
         11    1    5    5    0    0 -0.57944003006E+03 -0.59015133297E+03  0.39616950314E+03  0.91704940950E+03  0.00000000000E+00 0.  1.
        -11    1    5    5    0    0 -0.36824755537E+02 -0.39429194631E+02  0.18109013094E+01  0.53981509549E+02  0.00000000000E+00 0. -1.
          2    1    6    6  503    0  0.91734653525E+02  0.19732004858E+03  0.10347085954E+03  0.24094951131E+03  0.00000000000E+00 0.  1.
         -2    1    6    6    0  503 -0.13343531740E+02  0.39146012463E+01 -0.33081073746E+01  0.14293967841E+02  0.00000000000E+00 0. -1.
<mgrwt>
<rscale>  0 0.19104995E+04</rscale>
<asrwt>0</asrwt>
<pdfrwt beam="1">  1        1 0.29317552E+00 0.19104995E+04</pdfrwt>
<pdfrwt beam="2">  1       -2 0.73668094E-01 0.19104995E+04</pdfrwt>
<totfact> 0.47096453E+00</totfact>
</mgrwt>
</event>
<event>
12    4  0.4207946E-008  0.1595679E+04  0.7818608E-02  0.8823207E-01
          3   -1    0    0  501    0  0.00000000000E+00  0.00000000000E+00  0.27100083277E+03  0.27100083277E+03  0.00000000000E+00 0. -1.
         -4   -1    0    0    0  501 -0.00000000000E+00 -0.00000000000E+00 -0.23488768210E+04  0.23488768210E+04  0.00000000000E+00 0.  1.
        -24    2    1    2    0    0 -0.21533271475E+03 -0.36745914482E+03 -0.12717072391E+04  0.13433996413E+04  0.78031360383E+02 0.  0.
        254    2    1    2    0    0  0.21533271475E+03  0.36745914482E+03 -0.80616874913E+03  0.12764780124E+04  0.89336088061E+03 0.  0.
         23    2    4    4    0    0  0.50180158378E+03  0.22174412042E+03 -0.75664369655E+03  0.93881515248E+03  0.88819606941E+02 0.  0.
         23    2    4    4    0    0 -0.28646886904E+03  0.14571502440E+03 -0.49525052587E+02  0.33766285995E+03  0.90918616881E+02 0.  0.
          3    1    3    3  502    0 -0.71409946744E+02 -0.18287576179E+03 -0.50743174029E+03  0.54408629444E+03  0.00000000000E+00 0. -1.
         -4    1    3    3    0  502 -0.14392276800E+03 -0.18458338303E+03 -0.76427549880E+03  0.79931334688E+03  0.00000000000E+00 0.  1.
         11    1    5    5    0    0  0.25302912055E+03  0.15753862259E+03 -0.38169911397E+03  0.48428954878E+03  0.00000000000E+00 0. -1.
        -11    1    5    5    0    0  0.24877246324E+03  0.64205497830E+02 -0.37494458258E+03  0.45452560370E+03  0.00000000000E+00 0.  1.
          4    1    6    6  503    0 -0.58058511694E+02 -0.60916769451E+01 -0.20512478553E+02  0.61876175419E+02  0.00000000000E+00 0. -1.
         -4    1    6    6    0  503 -0.22841035734E+03  0.15180670134E+03 -0.29012574034E+02  0.27578668453E+03  0.00000000000E+00 0.  1.
<mgrwt>
<rscale>  0 0.15956786E+04</rscale>
<asrwt>0</asrwt>
<pdfrwt beam="1">  1        3 0.41692435E-01 0.15956786E+04</pdfrwt>
<pdfrwt beam="2">  1       -4 0.36136567E+00 0.15956786E+04</pdfrwt>
<totfact> 0.15817282E-01</totfact>
</mgrwt>
</event>
<event>
12    4  0.4207946E-008  0.2069941E+04  0.7818608E-02  0.8574601E-01
         -2   -1    0    0    0  501 -0.00000000000E+00  0.00000000000E+00  0.74461379895E+03  0.74461379895E+03  0.00000000000E+00 0.  1.
          1   -1    0    0  501    0  0.00000000000E+00 -0.00000000000E+00 -0.14385495877E+04  0.14385495877E+04  0.00000000000E+00 0. -1.
        -24    2    1    2    0    0 -0.85086769923E+02  0.80395986661E+03 -0.60997994755E+02  0.81466025298E+03  0.79745513193E+02 0.  0.
        254    2    1    2    0    0  0.85086769923E+02 -0.80395986661E+03 -0.63293779398E+03  0.13685031337E+04  0.90476480382E+03 0.  0.
         23    2    4    4    0    0  0.43573680826E+03 -0.16025560406E+03 -0.23641145242E+03  0.53011110612E+03  0.97872290703E+02 0.  0.
         23    2    4    4    0    0 -0.35065003834E+03 -0.64370426256E+03 -0.39652634156E+03  0.83839202754E+03  0.91418954613E+02 0.  0.
          1    1    3    3  502    0 -0.12763674926E+02  0.28987274615E+02  0.96766904214E+01  0.33118149477E+02  0.00000000000E+00 0. -1.
         -2    1    3    3    0  502 -0.72323094997E+02  0.77497259200E+03 -0.70674685177E+02  0.78154210350E+03  0.00000000000E+00 0.  1.
         11    1    5    5    0    0  0.43701019656E+02  0.62755061245E+01 -0.26193330133E+01  0.44226937510E+02  0.00000000000E+00 0. -1.
        -11    1    5    5    0    0  0.39203578861E+03 -0.16653111018E+03 -0.23379211941E+03  0.48588416861E+03  0.00000000000E+00 0.  1.
          1    1    6    6  503    0 -0.87067156624E+02 -0.12892703135E+03 -0.46464158742E+02  0.16236313382E+03  0.00000000000E+00 0. -1.
         -1    1    6    6    0  503 -0.26358288172E+03 -0.51477723120E+03 -0.35006218282E+03  0.67602889372E+03  0.00000000000E+00 0.  1.
<mgrwt>
<rscale>  0 0.20699409E+04</rscale>
<asrwt>0</asrwt>
<pdfrwt beam="1">  1        1 0.22131532E+00 0.20699409E+04</pdfrwt>
<pdfrwt beam="2">  1       -2 0.11455597E+00 0.20699409E+04</pdfrwt>
<totfact> 0.34778169E+00</totfact>
</mgrwt>
</event>
<event>
12    4  0.4207946E-008  0.1382719E+04  0.7818608E-02  0.8966423E-01
          1   -1    0    0  501    0  0.00000000000E+00  0.00000000000E+00  0.23637872695E+03  0.23637872695E+03  0.00000000000E+00 0. -1.
         -2   -1    0    0    0  501 -0.00000000000E+00 -0.00000000000E+00 -0.20220867522E+04  0.20220867522E+04  0.00000000000E+00 0.  1.
        -24    2    1    2    0    0 -0.69864570377E+02 -0.52000618174E+02 -0.11510925195E+04  0.11571253140E+04  0.79623372175E+02 0.  0.
        254    2    1    2    0    0  0.69864570377E+02  0.52000618174E+02 -0.63461550572E+03  0.11013401651E+04  0.89589519291E+03 0.  0.
         23    2    4    4    0    0  0.60626662423E+02 -0.35639711169E+03 -0.40515131206E+02  0.37424340391E+03  0.87875799267E+02 0.  0.
         23    2    4    4    0    0  0.92379079539E+01  0.40839772986E+03 -0.59410037451E+03  0.72709676119E+03  0.94023403632E+02 0.  0.
          1    1    3    3  502    0  0.17520129630E+02 -0.11828441949E+02 -0.25987205528E+03  0.26073042035E+03  0.00000000000E+00 0. -1.
         -2    1    3    3    0  502 -0.87384700007E+02 -0.40172176225E+02 -0.89122046422E+03  0.89639489366E+03  0.00000000000E+00 0.  1.
         11    1    5    5    0    0  0.22471063968E+02 -0.31185469865E+03 -0.25499652344E+02  0.31370134532E+03  0.00000000000E+00 0.  1.
        -11    1    5    5    0    0  0.38155598455E+02 -0.44542413037E+02 -0.15015478862E+02  0.60542058588E+02  0.00000000000E+00 0. -1.
          3    1    6    6  503    0 -0.11996745980E+01  0.75221245264E+02 -0.54725308297E+02  0.93029749685E+02  0.00000000000E+00 0. -1.
         -3    1    6    6    0  503  0.10437582552E+02  0.33317648460E+03 -0.53937506621E+03  0.63406701150E+03  0.00000000000E+00 0.  1.
<mgrwt>
<rscale>  0 0.13827195E+04</rscale>
<asrwt>0</asrwt>
<pdfrwt beam="1">  1        1 0.36365958E-01 0.13827195E+04</pdfrwt>
<pdfrwt beam="2">  1       -2 0.31109027E+00 0.13827195E+04</pdfrwt>
<totfact> 0.27858268E+00</totfact>
</mgrwt>
</event>
<event>
12    4  0.4207946E-008  0.1440241E+04  0.7818608E-02  0.8925195E-01
          1   -1    0    0  501    0  0.00000000000E+00  0.00000000000E+00  0.15782573129E+04  0.15782573129E+04  0.00000000000E+00 0. -1.
         -2   -1    0    0    0  501 -0.00000000000E+00 -0.00000000000E+00 -0.32857327807E+03  0.32857327807E+03  0.00000000000E+00 0.  1.
        -24    2    1    2    0    0 -0.43018481978E+03  0.44211139909E+02  0.30107257540E+03  0.53349121318E+03  0.83394093450E+02 0.  0.
        254    2    1    2    0    0  0.43018481978E+03 -0.44211139909E+02  0.94861145937E+03  0.13733393777E+04  0.89397077220E+03 0.  0.
         23    2    4    4    0    0 -0.22513161373E+03  0.16563950207E+03  0.34356030602E+03  0.45252603411E+03  0.92873244383E+02 0.  0.
         23    2    4    4    0    0  0.65531643351E+03 -0.20985064198E+03  0.60505115335E+03  0.92081334364E+03  0.91287434378E+02 0.  0.
          1    1    3    3  502    0 -0.62554306452E+01 -0.79723337723E+01  0.19283398029E+02  0.21783892166E+02  0.00000000000E+00 0. -1.
         -2    1    3    3    0  502 -0.42392938913E+03  0.52183473681E+02  0.28178917738E+03  0.51170732102E+03  0.00000000000E+00 0.  1.
         11    1    5    5    0    0 -0.74805772571E+02  0.85433453245E+02  0.19881688591E+03  0.22896054828E+03  0.00000000000E+00 0.  1.
        -11    1    5    5    0    0 -0.15032584116E+03  0.80206048824E+02  0.14474342011E+03  0.22356548583E+03  0.00000000000E+00 0. -1.
          1    1    6    6  503    0  0.65466906787E+03 -0.20063968026E+03  0.59453271384E+03  0.90681697026E+03  0.00000000000E+00 0. -1.
         -1    1    6    6    0  503  0.64736564766E+00 -0.92109617223E+01  0.10518439507E+02  0.13996373380E+02  0.00000000000E+00 0.  1.
<mgrwt>
<rscale>  0 0.14402405E+04</rscale>
<asrwt>0</asrwt>
<pdfrwt beam="1">  1        1 0.24280881E+00 0.14402405E+04</pdfrwt>
<pdfrwt beam="2">  1       -2 0.50549736E-01 0.14402405E+04</pdfrwt>
<totfact> 0.18230772E+01</totfact>
</mgrwt>
</event>
<event>
12    4  0.4207946E-008  0.1463397E+04  0.7818608E-02  0.8909165E-01
          1   -1    0    0  501    0  0.00000000000E+00  0.00000000000E+00  0.79791250542E+03  0.79791250542E+03  0.00000000000E+00 0. -1.
         -2   -1    0    0    0  501 -0.00000000000E+00 -0.00000000000E+00 -0.67097953847E+03  0.67097953847E+03  0.00000000000E+00 0.  1.
        -24    2    1    2    0    0  0.15695785041E+03  0.40713407726E+03 -0.72495164562E+02  0.44911363871E+03  0.77804806541E+02 0.  0.
        254    2    1    2    0    0 -0.15695785041E+03 -0.40713407726E+03  0.19942813151E+03  0.10197784052E+04  0.89987915432E+03 0.  0.
         23    2    4    4    0    0  0.47021388234E+02 -0.19869362827E+03 -0.33602493604E+03  0.40347052840E+03  0.90473978468E+02 0.  0.
         23    2    4    4    0    0 -0.20397923864E+03 -0.20844044899E+03  0.53545306755E+03  0.61630787678E+03  0.89835743776E+02 0.  0.
          3    1    3    3  502    0  0.51352826701E+02  0.21884950247E+03 -0.12915474203E+02  0.22516444438E+03  0.00000000000E+00 0. -1.
         -4    1    3    3    0  502  0.10560502371E+03  0.18828457479E+03 -0.59579690359E+02  0.22394919433E+03  0.00000000000E+00 0.  1.
         11    1    5    5    0    0  0.30098083945E-01  0.19756531646E+01 -0.54669757866E+02  0.54705452530E+02  0.00000000000E+00 0. -1.
        -11    1    5    5    0    0  0.46991290150E+02 -0.20066928144E+03 -0.28135517818E+03  0.34876507587E+03  0.00000000000E+00 0.  1.
          2    1    6    6  503    0 -0.15549319741E+03 -0.20028222771E+03  0.41672817779E+03  0.48780475535E+03  0.00000000000E+00 0. -1.
         -2    1    6    6    0  503 -0.48486041231E+02 -0.81582212786E+01  0.11872488976E+03  0.12850312143E+03  0.00000000000E+00 0.  1.
<mgrwt>
<rscale>  0 0.14633974E+04</rscale>
<asrwt>0</asrwt>
<pdfrwt beam="1">  1        1 0.12275577E+00 0.14633974E+04</pdfrwt>
<pdfrwt beam="2">  1       -2 0.10322762E+00 0.14633974E+04</pdfrwt>
<totfact> 0.14449476E+01</totfact>
</mgrwt>
</event>
<event>
12    4  0.4207946E-008  0.1594221E+04  0.7818608E-02  0.8824106E-01
         -2   -1    0    0    0  501 -0.00000000000E+00  0.00000000000E+00  0.19549685080E+03  0.19549685080E+03  0.00000000000E+00 0.  1.
          1   -1    0    0  501    0  0.00000000000E+00 -0.00000000000E+00 -0.32501055660E+04  0.32501055660E+04  0.00000000000E+00 0. -1.
        -24    2    1    2    0    0 -0.42920091995E+03 -0.76330703177E+02 -0.17520582083E+04  0.18072456014E+04  0.79930547835E+02 0.  0.
        254    2    1    2    0    0  0.42920091995E+03  0.76330703177E+02 -0.13025505070E+04  0.16383568155E+04  0.89304838934E+03 0.  0.
         23    2    4    4    0    0  0.18397012126E+03  0.52225248184E+02  0.83239658928E+02  0.22789869356E+03  0.91850376400E+02 0.  0.
         23    2    4    4    0    0  0.24523079869E+03  0.24105454994E+02 -0.13857901659E+04  0.14104581219E+04  0.90876356783E+02 0.  0.
          1    1    3    3  502    0 -0.37732248341E+03 -0.55322020400E+02 -0.16102253560E+04  0.16547684066E+04  0.00000000000E+00 0. -1.
         -2    1    3    3    0  502 -0.51878436540E+02 -0.21008682777E+02 -0.14183285233E+03  0.15247719478E+03  0.00000000000E+00 0.  1.
         11    1    5    5    0    0  0.25925421978E+02  0.33069550469E+02 -0.10282059839E+02  0.43260182934E+02  0.00000000000E+00 0.  1.
        -11    1    5    5    0    0  0.15804469928E+03  0.19155697715E+02  0.93521718767E+02  0.18463851063E+03  0.00000000000E+00 0. -1.
          4    1    6    6  503    0  0.44031234242E+02  0.35491479199E+02 -0.20796856958E+03  0.21552104449E+03  0.00000000000E+00 0.  1.
         -4    1    6    6    0  503  0.20119956445E+03 -0.11386024205E+02 -0.11778215963E+04  0.11949370774E+04  0.00000000000E+00 0. -1.
<mgrwt>
<rscale>  0 0.15942213E+04</rscale>
<asrwt>0</asrwt>
<pdfrwt beam="1">  1        1 0.50001623E+00 0.15942213E+04</pdfrwt>
<pdfrwt beam="2">  1       -2 0.30076439E-01 0.15942213E+04</pdfrwt>
<totfact> 0.33771639E+00</totfact>
</mgrwt>
</event>
<event>
12    4  0.4207946E-008  0.1436879E+04  0.7818608E-02  0.8927548E-01
         -2   -1    0    0    0  501 -0.00000000000E+00  0.00000000000E+00  0.79203475417E+03  0.79203475417E+03  0.00000000000E+00 0.  1.
          1   -1    0    0  501    0  0.00000000000E+00 -0.00000000000E+00 -0.65168258742E+03  0.65168258742E+03  0.00000000000E+00 0. -1.
        -24    2    1    2    0    0  0.22109062873E+03 -0.30576532168E+03  0.25149507862E+03  0.46019373562E+03  0.78453818777E+02 0.  0.
        254    2    1    2    0    0 -0.22109062873E+03  0.30576532168E+03 -0.11114291186E+03  0.98352360597E+03  0.90143909311E+03 0.  0.
         23    2    4    4    0    0 -0.50621148386E+03  0.16512500074E+03 -0.28453335112E+03  0.61015473173E+03  0.88392513786E+02 0.  0.
         23    2    4    4    0    0  0.28512085514E+03  0.14064032095E+03  0.17339043925E+03  0.37336887424E+03  0.90920129319E+02 0.  0.
          3    1    3    3  502    0  0.54356656092E+02 -0.12054619478E+03  0.11927109185E+03  0.17807757997E+03  0.00000000000E+00 0. -1.
         -4    1    3    3    0  502  0.16673397263E+03 -0.18521912690E+03  0.13222398677E+03  0.28211615565E+03  0.00000000000E+00 0.  1.
         11    1    5    5    0    0 -0.50287794860E+03  0.15308808942E+03 -0.26986291883E+03  0.59088762829E+03  0.00000000000E+00 0. -1.
        -11    1    5    5    0    0 -0.33335352650E+01  0.12036911320E+02 -0.14670432290E+02  0.19267103442E+02  0.00000000000E+00 0.  1.
          2    1    6    6  503    0  0.27798043210E+03  0.15228278535E+03  0.16492192312E+03  0.35729876584E+03  0.00000000000E+00 0. -1.
         -2    1    6    6    0  503  0.71404230398E+01 -0.11642464402E+02  0.84685161320E+01  0.16070108401E+02  0.00000000000E+00 0.  1.
<mgrwt>
<rscale>  0 0.14368789E+04</rscale>
<asrwt>0</asrwt>
<pdfrwt beam="1">  1        1 0.10025886E+00 0.14368789E+04</pdfrwt>
<pdfrwt beam="2">  1       -2 0.12185150E+00 0.14368789E+04</pdfrwt>
<totfact> 0.13194236E+01</totfact>
</mgrwt>
</event>
<event>
12    4  0.4207946E-008  0.2863213E+04  0.7818608E-02  0.8283908E-01
          1   -1    0    0  501    0  0.00000000000E+00  0.00000000000E+00  0.10717633671E+04  0.10717633671E+04  0.00000000000E+00 0. -1.
         -2   -1    0    0    0  501 -0.00000000000E+00 -0.00000000000E+00 -0.19122662063E+04  0.19122662063E+04  0.00000000000E+00 0.  1.
        -24    2    1    2    0    0 -0.93364144539E+03  0.88709046762E+03 -0.38447778897E+03  0.13464320624E+04  0.80251368481E+02 0.  0.
        254    2    1    2    0    0  0.93364144539E+03 -0.88709046762E+03 -0.45602505021E+03  0.16375975110E+04  0.90285708464E+03 0.  0.
         23    2    4    4    0    0  0.88648887510E+03 -0.64769561122E+03 -0.67947669317E+03  0.12943904920E+04  0.91575317514E+02 0.  0.
         23    2    4    4    0    0  0.47152570293E+02 -0.23939485640E+03  0.22345164296E+03  0.34320701898E+03  0.91253268312E+02 0.  0.
          3    1    3    3  502    0 -0.93149554447E+03  0.88830756559E+03 -0.38137555840E+03  0.13424684715E+04  0.00000000000E+00 0. -1.
         -4    1    3    3    0  502 -0.21459009186E+01 -0.12170979680E+01 -0.31022305674E+01  0.39635908857E+01  0.00000000000E+00 0.  1.
         11    1    5    5    0    0  0.86680863958E+03 -0.62115039461E+03 -0.67214806156E+03  0.12605427589E+04  0.00000000000E+00 0.  1.
        -11    1    5    5    0    0  0.19680235521E+02 -0.26545216613E+02 -0.73286316124E+01  0.33847733107E+02  0.00000000000E+00 0. -1.
          4    1    6    6  503    0  0.33663607452E+02 -0.23600669485E+03  0.22664381970E+03  0.32893740968E+03  0.00000000000E+00 0.  1.
         -4    1    6    6    0  503  0.13488962840E+02 -0.33881615539E+01 -0.31921767370E+01  0.14269609299E+02  0.00000000000E+00 0. -1.
<mgrwt>
<rscale>  0 0.28632128E+04</rscale>
<asrwt>0</asrwt>
<pdfrwt beam="1">  1        1 0.16488667E+00 0.28632128E+04</pdfrwt>
<pdfrwt beam="2">  1       -2 0.29419480E+00 0.28632128E+04</pdfrwt>
<totfact> 0.34709825E-01</totfact>
</mgrwt>
</event>
<event>
12    4  0.4207946E-008  0.2651905E+04  0.7818608E-02  0.8350781E-01
         -2   -1    0    0    0  501 -0.00000000000E+00  0.00000000000E+00  0.63206467659E+03  0.63206467659E+03  0.00000000000E+00 0.  1.
          1   -1    0    0  501    0  0.00000000000E+00 -0.00000000000E+00 -0.27815981755E+04  0.27815981755E+04  0.00000000000E+00 0. -1.
        -24    2    1    2    0    0  0.60807748687E+02 -0.10947240315E+04 -0.14873403248E+04  0.18496122547E+04  0.82255476546E+02 0.  0.
        254    2    1    2    0    0 -0.60807748687E+02  0.10947240315E+04 -0.66219317406E+03  0.15640505974E+04  0.89757238360E+03 0.  0.
         23    2    4    4    0    0  0.20203973545E+02  0.38306122431E+03  0.19856700853E+03  0.44082045406E+03  0.88032458347E+02 0.  0.
         23    2    4    4    0    0 -0.81011722232E+02  0.71166280722E+03 -0.86076018260E+03  0.11232301433E+04  0.87812371277E+02 0.  0.
          1    1    3    3  502    0  0.41826748970E+02 -0.47182483750E+03 -0.57946033565E+03  0.74842663957E+03  0.00000000000E+00 0. -1.
         -2    1    3    3    0  502  0.18980999718E+02 -0.62289919402E+03 -0.90787998918E+03  0.11011856152E+04  0.00000000000E+00 0.  1.
         11    1    5    5    0    0  0.17814026399E+02  0.23670333384E+02 -0.11712493325E+01  0.29647867445E+02  0.00000000000E+00 0. -1.
        -11    1    5    5    0    0  0.23899471455E+01  0.35939089092E+03  0.19973825786E+03  0.41117258661E+03  0.00000000000E+00 0.  1.
          1    1    6    6  503    0 -0.32059649863E+02  0.15438953046E+03 -0.24441492228E+03  0.29086526520E+03  0.00000000000E+00 0. -1.
         -1    1    6    6    0  503 -0.48952072368E+02  0.55727327676E+03 -0.61634526031E+03  0.83236487809E+03  0.00000000000E+00 0.  1.
<mgrwt>
<rscale>  0 0.26519049E+04</rscale>
<asrwt>0</asrwt>
<pdfrwt beam="1">  1        1 0.42793817E+00 0.26519049E+04</pdfrwt>
<pdfrwt beam="2">  1       -2 0.97240722E-01 0.26519049E+04</pdfrwt>
<totfact> 0.58425566E-01</totfact>
</mgrwt>
</event>
<event>
12    4  0.4207946E-008  0.2393051E+04  0.7818608E-02  0.8442110E-01
          1   -1    0    0  501    0  0.00000000000E+00  0.00000000000E+00  0.19575387130E+04  0.19575387130E+04  0.00000000000E+00 0. -1.
         -2   -1    0    0    0  501 -0.00000000000E+00 -0.00000000000E+00 -0.73136367234E+03  0.73136367234E+03  0.00000000000E+00 0.  1.
        -24    2    1    2    0    0 -0.35752000296E+03 -0.95725174896E+02 -0.54695406069E+03  0.66725890774E+03  0.95351160589E+02 0.  0.
        254    2    1    2    0    0  0.35752000296E+03  0.95725174896E+02  0.17731291014E+04  0.20216434776E+04  0.89781494687E+03 0.  0.
         23    2    4    4    0    0  0.33547772721E+03 -0.16785308783E+03  0.22358442258E+03  0.44643052674E+03  0.92683637342E+02 0.  0.
         23    2    4    4    0    0  0.22042275755E+02  0.26357826273E+03  0.15495446788E+04  0.15752129509E+04  0.10123125284E+03 0.  0.
          3    1    3    3  502    0 -0.17323142897E+02 -0.44182946349E+01 -0.82113706157E+02  0.84037333050E+02  0.00000000000E+00 0. -1.
         -4    1    3    3    0  502 -0.34019686007E+03 -0.91306880261E+02 -0.46484035453E+03  0.58322157469E+03  0.00000000000E+00 0.  1.
         11    1    5    5    0    0  0.79854361300E+02 -0.48099777847E+02  0.12723185665E+02  0.94086062204E+02  0.00000000000E+00 0. -1.
        -11    1    5    5    0    0  0.25562336591E+03 -0.11975330999E+03  0.21086123692E+03  0.35234446453E+03  0.00000000000E+00 0.  1.
          4    1    6    6  503    0  0.40434522255E+02  0.16499661488E+03  0.11854508469E+04  0.11975610815E+04  0.00000000000E+00 0. -1.
         -4    1    6    6    0  503 -0.18392246500E+02  0.98581647855E+02  0.36409383188E+03  0.37765186937E+03  0.00000000000E+00 0.  1.
<mgrwt>
<rscale>  0 0.23930505E+04</rscale>
<asrwt>0</asrwt>
<pdfrwt beam="1">  1        1 0.30115980E+00 0.23930505E+04</pdfrwt>
<pdfrwt beam="2">  1       -2 0.11251749E+00 0.23930505E+04</pdfrwt>
<totfact> 0.15600857E+00</totfact>
</mgrwt>
</event>
<event>
12    4  0.4207946E-008  0.2251346E+04  0.7818608E-02  0.8497356E-01
          1   -1    0    0  501    0  0.00000000000E+00  0.00000000000E+00  0.61717150327E+03  0.61717150327E+03  0.00000000000E+00 0. -1.
         -2   -1    0    0    0  501 -0.00000000000E+00 -0.00000000000E+00 -0.20531400560E+04  0.20531400560E+04  0.00000000000E+00 0.  1.
        -24    2    1    2    0    0  0.88928221013E+03  0.21722427333E+02 -0.84220885420E+03  0.12275909229E+04  0.79806057758E+02 0.  0.
        254    2    1    2    0    0 -0.88928221013E+03 -0.21722427333E+02 -0.59375969856E+03  0.14427206364E+04  0.96829620565E+03 0.  0.
         23    2    4    4    0    0 -0.99109131671E+03  0.21853075559E+03 -0.56007570704E+03  0.11626864988E+04  0.90207580650E+02 0.  0.
         23    2    4    4    0    0  0.10180910658E+03 -0.24025318292E+03 -0.33683991520E+02  0.28003413761E+03  0.95905270215E+02 0.  0.
          1    1    3    3  502    0  0.22822521579E+03  0.26290751579E+02 -0.25691130497E+03  0.34464673415E+03  0.00000000000E+00 0. -1.
         -2    1    3    3    0  502  0.66105699435E+03 -0.45683242462E+01 -0.58529754923E+03  0.88294418878E+03  0.00000000000E+00 0.  1.
         11    1    5    5    0    0 -0.64080297464E+03  0.17345017974E+03 -0.33184039660E+03  0.74218021125E+03  0.00000000000E+00 0.  1.
        -11    1    5    5    0    0 -0.35028834207E+03  0.45080575845E+02 -0.22823531044E+03  0.42050628752E+03  0.00000000000E+00 0. -1.
          2    1    6    6  503    0  0.83829206365E+01 -0.74227300922E+01  0.20514308752E+02  0.23371074943E+02  0.00000000000E+00 0. -1.
         -2    1    6    6    0  503  0.93426185939E+02 -0.23283045283E+03 -0.54198300272E+02  0.25666306266E+03  0.00000000000E+00 0.  1.
<mgrwt>
<rscale>  0 0.22513459E+04</rscale>
<asrwt>0</asrwt>
<pdfrwt beam="1">  1        1 0.94949463E-01 0.22513459E+04</pdfrwt>
<pdfrwt beam="2">  1       -2 0.31586770E+00 0.22513459E+04</pdfrwt>
<totfact> 0.66424112E-01</totfact>
</mgrwt>
</event>
<event>
12    4  0.4207946E-008  0.1476214E+04  0.7818608E-02  0.8900426E-01
         -2   -1    0    0    0  501 -0.00000000000E+00  0.00000000000E+00  0.20602342928E+03  0.20602342928E+03  0.00000000000E+00 0.  1.
          1   -1    0    0  501    0  0.00000000000E+00 -0.00000000000E+00 -0.26443691228E+04  0.26443691228E+04  0.00000000000E+00 0. -1.
        -24    2    1    2    0    0  0.17811965716E+03  0.21332425777E+02  0.46215922652E+02  0.20157314609E+03  0.79461544563E+02 0.  0.
        254    2    1    2    0    0 -0.17811965716E+03 -0.21332425777E+02 -0.24845616162E+04  0.26488194060E+04  0.90056434327E+03 0.  0.
         23    2    4    4    0    0 -0.42790017740E+03  0.93752860924E+02 -0.63520198646E+03  0.77695985923E+03  0.91087312498E+02 0.  0.
         23    2    4    4    0    0  0.24978052024E+03 -0.11508528670E+03 -0.18493596297E+04  0.18718595468E+04  0.89956607986E+02 0.  0.
          3    1    3    3  502    0  0.37354360769E+02  0.30776017779E+02 -0.10487531965E+02  0.49522720700E+02  0.00000000000E+00 0. -1.
         -4    1    3    3    0  502  0.14076529639E+03 -0.94435920018E+01  0.56703454617E+02  0.15205042539E+03  0.00000000000E+00 0.  1.
         11    1    5    5    0    0 -0.28948987455E+03  0.71466455015E+02 -0.50019889814E+03  0.58233218987E+03  0.00000000000E+00 0.  1.
        -11    1    5    5    0    0 -0.13841030285E+03  0.22286405909E+02 -0.13500308832E+03  0.19462766936E+03  0.00000000000E+00 0. -1.
          2    1    6    6  503    0  0.37926048113E+02 -0.22168127828E+02 -0.13513602967E+03  0.14209700043E+03  0.00000000000E+00 0. -1.
         -2    1    6    6    0  503  0.21185447212E+03 -0.92917158873E+02 -0.17142236001E+04  0.17297625463E+04  0.00000000000E+00 0.  1.
<mgrwt>
<rscale>  0 0.14762141E+04</rscale>
<asrwt>0</asrwt>
<pdfrwt beam="1">  1        1 0.40682601E+00 0.14762141E+04</pdfrwt>
<pdfrwt beam="2">  1       -2 0.31695913E-01 0.14762141E+04</pdfrwt>
<totfact> 0.84861903E+00</totfact>
</mgrwt>
</event>
<event>
12    4  0.4207946E-008  0.1552748E+04  0.7818608E-02  0.8850114E-01
          1   -1    0    0  501    0  0.00000000000E+00  0.00000000000E+00  0.13286559131E+04  0.13286559131E+04  0.00000000000E+00 0. -1.
         -2   -1    0    0    0  501 -0.00000000000E+00 -0.00000000000E+00 -0.45365899177E+03  0.45365899177E+03  0.00000000000E+00 0.  1.
        -24    2    1    2    0    0  0.47880655146E+03  0.16276394305E+03  0.39747159398E+03  0.64819319047E+03  0.80143179819E+02 0.  0.
        254    2    1    2    0    0 -0.47880655146E+03 -0.16276394305E+03  0.47752532734E+03  0.11341217144E+04  0.89579786220E+03 0.  0.
         23    2    4    4    0    0 -0.62071088735E+03 -0.11931103098E+03  0.63400038727E+03  0.89971642654E+03  0.89532280999E+02 0.  0.
         23    2    4    4    0    0  0.14190433589E+03 -0.43452912067E+02 -0.15647505994E+03  0.23440528785E+03  0.91849869236E+02 0.  0.
          3    1    3    3  502    0  0.39837530655E+03  0.12754132025E+03  0.36308080831E+03  0.55389290175E+03  0.00000000000E+00 0. -1.
         -4    1    3    3    0  502  0.80431244913E+02  0.35222622794E+02  0.34390785671E+02  0.94300288727E+02  0.00000000000E+00 0.  1.
         11    1    5    5    0    0 -0.42962581224E+03 -0.12159061439E+03  0.42323981055E+03  0.61521910998E+03  0.00000000000E+00 0. -1.
        -11    1    5    5    0    0 -0.19108507511E+03  0.22795834121E+01  0.21076057673E+03  0.28449731656E+03  0.00000000000E+00 0.  1.
          3    1    6    6  503    0  0.29208941084E+02 -0.11577372477E+02 -0.99154978471E+02  0.10401397766E+03  0.00000000000E+00 0. -1.
         -3    1    6    6    0  503  0.11269539480E+03 -0.31875539590E+02 -0.57320081465E+02  0.13039131019E+03  0.00000000000E+00 0.  1.
<mgrwt>
<rscale>  0 0.15527481E+04</rscale>
<asrwt>0</asrwt>
<pdfrwt beam="1">  1        1 0.20440860E+00 0.15527481E+04</pdfrwt>
<pdfrwt beam="2">  1       -2 0.69793692E-01 0.15527481E+04</pdfrwt>
<totfact> 0.13642782E+01</totfact>
</mgrwt>
</event>
<event>
12    4  0.4207946E-008  0.2135640E+04  0.7818608E-02  0.8545704E-01
         -2   -1    0    0    0  501 -0.00000000000E+00  0.00000000000E+00  0.78918819869E+03  0.78918819869E+03  0.00000000000E+00 0.  1.
          1   -1    0    0  501    0  0.00000000000E+00 -0.00000000000E+00 -0.14448255856E+04  0.14448255856E+04  0.00000000000E+00 0. -1.
        -24    2    1    2    0    0 -0.47313669628E+03 -0.62542444080E+03 -0.75940466615E+03  0.10949437641E+04  0.84807636071E+02 0.  0.
        254    2    1    2    0    0  0.47313669628E+03  0.62542444080E+03  0.10376727925E+03  0.11390700201E+04  0.81957232629E+03 0.  0.
         23    2    4    4    0    0  0.58109882284E+03  0.72567040697E+03  0.17746174684E+03  0.95087107886E+03  0.91595608840E+02 0.  0.
         23    2    4    4    0    0 -0.10796212656E+03 -0.10024596617E+03 -0.73694467589E+02  0.18819894128E+03  0.91010397432E+02 0.  0.
          3    1    3    3  502    0 -0.33393811799E+03 -0.39174211602E+03 -0.53371734012E+03  0.74150573245E+03  0.00000000000E+00 0. -1.
         -4    1    3    3    0  502 -0.13919857829E+03 -0.23368232478E+03 -0.22568732603E+03  0.35343803169E+03  0.00000000000E+00 0.  1.
         11    1    5    5    0    0  0.27249345489E+03  0.39569213637E+03  0.12191621788E+03  0.49566976297E+03  0.00000000000E+00 0.  1.
        -11    1    5    5    0    0  0.30860536795E+03  0.32997827060E+03  0.55545528961E+02  0.45520131589E+03  0.00000000000E+00 0. -1.
          3    1    6    6  503    0 -0.10606477568E+02 -0.53090598096E+02 -0.57226390554E+02  0.78777971213E+02  0.00000000000E+00 0. -1.
         -3    1    6    6    0  503 -0.97355648995E+02 -0.47155368072E+02 -0.16468077035E+02  0.10942097007E+03  0.00000000000E+00 0.  1.
<mgrwt>
<rscale>  0 0.21356398E+04</rscale>
<asrwt>0</asrwt>
<pdfrwt beam="1">  1        1 0.22228086E+00 0.21356398E+04</pdfrwt>
<pdfrwt beam="2">  1       -2 0.12141357E+00 0.21356398E+04</pdfrwt>
<totfact> 0.29662369E+00</totfact>
</mgrwt>
</event>
<event>
12    4  0.4207946E-008  0.2838996E+04  0.7818608E-02  0.8291263E-01
         -2   -1    0    0    0  501 -0.00000000000E+00  0.00000000000E+00  0.83489306575E+03  0.83489306575E+03  0.00000000000E+00 0.  1.
          1   -1    0    0  501    0  0.00000000000E+00 -0.00000000000E+00 -0.24134522286E+04  0.24134522286E+04  0.00000000000E+00 0. -1.
        -24    2    1    2    0    0  0.73392571328E+03 -0.24437708126E+03  0.44798549710E+03  0.89758156012E+03  0.81206779205E+02 0.  0.
        254    2    1    2    0    0 -0.73392571328E+03  0.24437708126E+03 -0.20265446599E+04  0.23507637342E+04  0.90600207778E+03 0.  0.
         23    2    4    4    0    0 -0.34424877956E+03  0.36538292258E+03 -0.18090724641E+04  0.18797592763E+04  0.93487187606E+02 0.  0.
         23    2    4    4    0    0 -0.38967693372E+03 -0.12100584132E+03 -0.21747219584E+03  0.47100445790E+03  0.89780382514E+02 0.  0.
          3    1    3    3  502    0  0.46254053912E+03 -0.11238994034E+03  0.27685134555E+03  0.55065589668E+03  0.00000000000E+00 0. -1.
         -4    1    3    3    0  502  0.27138517416E+03 -0.13198714091E+03  0.17113415155E+03  0.34692566343E+03  0.00000000000E+00 0.  1.
         11    1    5    5    0    0 -0.16504050140E+02 -0.30351754454E+01 -0.43605413200E+02  0.46722885413E+02  0.00000000000E+00 0.  1.
        -11    1    5    5    0    0 -0.32774472942E+03  0.36841809803E+03 -0.17654670509E+04  0.18330363909E+04  0.00000000000E+00 0. -1.
          4    1    6    6  503    0 -0.39228674318E+03 -0.11337684828E+03 -0.21806314067E+03  0.46291978994E+03  0.00000000000E+00 0. -1.
         -4    1    6    6    0  503  0.26098094548E+01 -0.76289930407E+01  0.59094482506E+00  0.80846679580E+01  0.00000000000E+00 0.  1.
<mgrwt>
<rscale>  0 0.28389960E+04</rscale>
<asrwt>0</asrwt>
<pdfrwt beam="1">  1        1 0.37130033E+00 0.28389960E+04</pdfrwt>
<pdfrwt beam="2">  1       -2 0.12844509E+00 0.28389960E+04</pdfrwt>
<totfact> 0.52824644E-01</totfact>
</mgrwt>
</event>
<event>
12    4  0.4207946E-008  0.2188039E+04  0.7818608E-02  0.8523423E-01
         -2   -1    0    0    0  501 -0.00000000000E+00  0.00000000000E+00  0.65337645696E+03  0.65337645696E+03  0.00000000000E+00 0.  1.
          1   -1    0    0  501    0  0.00000000000E+00 -0.00000000000E+00 -0.18318357210E+04  0.18318357210E+04  0.00000000000E+00 0. -1.
        -24    2    1    2    0    0 -0.48583252490E+03 -0.28927156168E+03 -0.13043347466E+04  0.14238727013E+04  0.80081581270E+02 0.  0.
        254    2    1    2    0    0  0.48583252490E+03  0.28927156168E+03  0.12587548252E+03  0.10613394767E+04  0.88931747371E+03 0.  0.
         23    2    4    4    0    0  0.42319722111E+03  0.33014739596E+03  0.45600900820E+03  0.71029152282E+03  0.92068674478E+02 0.  0.
         23    2    4    4    0    0  0.62635303797E+02 -0.40875834284E+02 -0.33013352568E+03  0.35104795387E+03  0.93018847707E+02 0.  0.
          3    1    3    3  502    0 -0.94282896525E+02 -0.75985201720E+02 -0.35406138519E+03  0.37419577755E+03  0.00000000000E+00 0. -1.
         -4    1    3    3    0  502 -0.39154962838E+03 -0.21328635996E+03 -0.95027336136E+03  0.10496769237E+04  0.00000000000E+00 0.  1.
         11    1    5    5    0    0  0.27767186568E+02  0.56579222480E+02  0.41602457866E+02  0.75518140648E+02  0.00000000000E+00 0. -1.
        -11    1    5    5    0    0  0.39543003454E+03  0.27356817348E+03  0.41440655034E+03  0.63477338218E+03  0.00000000000E+00 0.  1.
          2    1    6    6  503    0  0.16698953746E+02  0.24344421466E+02 -0.37443971908E+02  0.47681830344E+02  0.00000000000E+00 0. -1.
         -2    1    6    6    0  503  0.45936350051E+02 -0.65220255751E+02 -0.29268955378E+03  0.30336612353E+03  0.00000000000E+00 0.  1.
<mgrwt>
<rscale>  0 0.21880387E+04</rscale>
<asrwt>0</asrwt>
<pdfrwt beam="1">  1        1 0.28182087E+00 0.21880387E+04</pdfrwt>
<pdfrwt beam="2">  1       -2 0.10051946E+00 0.21880387E+04</pdfrwt>
<totfact> 0.25348463E+00</totfact>
</mgrwt>
</event>
<event>
12    4  0.4207946E-008  0.2582677E+04  0.7818608E-02  0.8374109E-01
          1   -1    0    0  501    0  0.00000000000E+00  0.00000000000E+00  0.48406123800E+04  0.48406123800E+04  0.00000000000E+00 0. -1.
         -2   -1    0    0    0  501 -0.00000000000E+00 -0.00000000000E+00 -0.34449248175E+03  0.34449248175E+03  0.00000000000E+00 0.  1.
        -24    2    1    2    0    0  0.13423234353E+03 -0.91548660129E+03  0.32395710136E+04  0.33700521644E+04  0.79354898528E+02 0.  0.
        254    2    1    2    0    0 -0.13423234353E+03  0.91548660129E+03  0.12565488846E+04  0.18150526973E+04  0.92702057971E+03 0.  0.
         23    2    4    4    0    0 -0.46086722191E+03  0.77263463576E+03  0.10762405827E+04  0.14057526375E+04  0.92107596809E+02 0.  0.
         23    2    4    4    0    0  0.32663487838E+03  0.14285196553E+03  0.18030830191E+03  0.40930005974E+03  0.88985545674E+02 0.  0.
          1    1    3    3  502    0  0.35535935108E+02 -0.31119951820E+03  0.12313225091E+04  0.12705365261E+04  0.00000000000E+00 0. -1.
         -2    1    3    3    0  502  0.98696408423E+02 -0.60428708309E+03  0.20082485045E+04  0.20995156384E+04  0.00000000000E+00 0.  1.
         11    1    5    5    0    0 -0.32255590175E+02  0.58450866404E+02  0.12244206985E+03  0.13945962623E+03  0.00000000000E+00 0. -1.
        -11    1    5    5    0    0 -0.42861163174E+03  0.71418376936E+03  0.95379851289E+03  0.12662930113E+04  0.00000000000E+00 0.  1.
          1    1    6    6  503    0  0.68064129131E+02  0.24420886344E+02  0.79726503001E+02  0.10763559191E+03  0.00000000000E+00 0. -1.
         -1    1    6    6    0  503  0.25857074925E+03  0.11843107918E+03  0.10058179891E+03  0.30166446784E+03  0.00000000000E+00 0.  1.
<mgrwt>
<rscale>  0 0.25826766E+04</rscale>
<asrwt>0</asrwt>
<pdfrwt beam="1">  1        1 0.74470955E+00 0.25826766E+04</pdfrwt>
<pdfrwt beam="2">  1       -2 0.52998847E-01 0.25826766E+04</pdfrwt>
<totfact> 0.35579046E-02</totfact>
</mgrwt>
</event>
<event>
12    4  0.4207946E-008  0.2008013E+04  0.7818608E-02  0.8602883E-01
         -2   -1    0    0    0  501 -0.00000000000E+00  0.00000000000E+00  0.68610561140E+03  0.68610561140E+03  0.00000000000E+00 0.  1.
          1   -1    0    0  501    0  0.00000000000E+00 -0.00000000000E+00 -0.14692043068E+04  0.14692043068E+04  0.00000000000E+00 0. -1.
        -24    2    1    2    0    0  0.38126171346E+03  0.65020788809E+03 -0.58793519158E+03  0.95904640861E+03  0.77275044413E+02 0.  0.
        254    2    1    2    0    0 -0.38126171346E+03 -0.65020788809E+03 -0.19516350380E+03  0.11962635096E+04  0.90819975734E+03 0.  0.
         23    2    4    4    0    0 -0.10635482889E+03 -0.39123151277E+03 -0.53713646575E+03  0.67856954475E+03  0.86991942170E+02 0.  0.
         23    2    4    4    0    0 -0.27490688457E+03 -0.25897637532E+03  0.34197296195E+03  0.51769396482E+03  0.91754979964E+02 0.  0.
          3    1    3    3  502    0  0.17316630150E+03  0.36430263801E+03 -0.33400325130E+03  0.52369948627E+03  0.00000000000E+00 0. -1.
         -4    1    3    3    0  502  0.20809541196E+03  0.28590525007E+03 -0.25393194029E+03  0.43534692235E+03  0.00000000000E+00 0.  1.
         11    1    5    5    0    0 -0.90522432989E+02 -0.27875284692E+03 -0.32284282858E+03  0.43603320115E+03  0.00000000000E+00 0. -1.
        -11    1    5    5    0    0 -0.15832395898E+02 -0.11247866585E+03 -0.21429363717E+03  0.24253634359E+03  0.00000000000E+00 0.  1.
          3    1    6    6  503    0 -0.27311328123E+03 -0.25492312100E+03  0.34775941321E+03  0.51040500731E+03  0.00000000000E+00 0. -1.
         -3    1    6    6    0  503 -0.17936033409E+01 -0.40532543135E+01 -0.57864512587E+01  0.72889575142E+01  0.00000000000E+00 0.  1.
<mgrwt>
<rscale>  0 0.20080133E+04</rscale>
<asrwt>0</asrwt>
<pdfrwt beam="1">  1        1 0.22603143E+00 0.20080133E+04</pdfrwt>
<pdfrwt beam="2">  1       -2 0.10555471E+00 0.20080133E+04</pdfrwt>
<totfact> 0.40585027E+00</totfact>
</mgrwt>
</event>
<event>
12    4  0.4207946E-008  0.3491256E+04  0.7818608E-02  0.8115865E-01
         -2   -1    0    0    0  501 -0.00000000000E+00  0.00000000000E+00  0.73657710556E+03  0.73657710556E+03  0.00000000000E+00 0.  1.
          1   -1    0    0  501    0  0.00000000000E+00 -0.00000000000E+00 -0.41369975436E+04  0.41369975436E+04  0.00000000000E+00 0. -1.
        -24    2    1    2    0    0 -0.10989138641E+04  0.11961703039E+04 -0.15587476933E+04  0.22526680243E+04  0.79898559694E+02 0.  0.
        254    2    1    2    0    0  0.10989138641E+04 -0.11961703039E+04 -0.18416727447E+04  0.26209066248E+04  0.91594648348E+03 0.  0.
         23    2    4    4    0    0  0.31037902224E+03 -0.89788939369E+03 -0.63559118049E+03  0.11464933932E+04  0.89053081195E+02 0.  0.
         23    2    4    4    0    0  0.78853484183E+03 -0.29828091024E+03 -0.12060815642E+04  0.14744132315E+04  0.92211385652E+02 0.  0.
          1    1    3    3  502    0 -0.78116958707E+02  0.85927306756E+02 -0.14164729997E+03  0.18316582343E+03  0.00000000000E+00 0. -1.
         -2    1    3    3    0  502 -0.10207969054E+04  0.11102429972E+04 -0.14171003933E+04  0.20695022009E+04  0.00000000000E+00 0.  1.
         11    1    5    5    0    0  0.30618225494E+03 -0.89726561068E+03 -0.62624388178E+03  0.11362282116E+04  0.00000000000E+00 0. -1.
        -11    1    5    5    0    0  0.41967672970E+01 -0.62378300920E+00 -0.93472987120E+01  0.10265181645E+02  0.00000000000E+00 0.  1.
          3    1    6    6  503    0  0.66651724913E+03 -0.28597271096E+03 -0.10207764714E+04  0.12522021559E+04  0.00000000000E+00 0. -1.
         -3    1    6    6    0  503  0.12201759270E+03 -0.12308199287E+02 -0.18530509280E+03  0.22221107559E+03  0.00000000000E+00 0.  1.
<mgrwt>
<rscale>  0 0.34912563E+04</rscale>
<asrwt>0</asrwt>
<pdfrwt beam="1">  1        1 0.63646115E+00 0.34912563E+04</pdfrwt>
<pdfrwt beam="2">  1       -2 0.11331956E+00 0.34912563E+04</pdfrwt>
<totfact> 0.31702077E-02</totfact>
</mgrwt>
</event>
<event>
12    4  0.4207946E-008  0.2222517E+04  0.7818608E-02  0.8509114E-01
          1   -1    0    0  501    0  0.00000000000E+00  0.00000000000E+00  0.12129154795E+04  0.12129154795E+04  0.00000000000E+00 0. -1.
         -2   -1    0    0    0  501 -0.00000000000E+00 -0.00000000000E+00 -0.10181215194E+04  0.10181215194E+04  0.00000000000E+00 0.  1.
        -24    2    1    2    0    0  0.44156749854E+03 -0.12952949420E+03  0.88056146284E+03  0.99756608663E+03  0.89386026465E+02 0.  0.
        254    2    1    2    0    0 -0.44156749854E+03  0.12952949420E+03 -0.68576750277E+03  0.12334709123E+04  0.91619521827E+03 0.  0.
         23    2    4    4    0    0  0.63969201397E+02 -0.25816837651E+03 -0.48289511428E+03  0.55869034617E+03  0.90577271720E+02 0.  0.
         23    2    4    4    0    0 -0.50553669994E+03  0.38769787071E+03 -0.20287238849E+03  0.67478056612E+03  0.91074763025E+02 0.  0.
          3    1    3    3  502    0  0.36889891014E+03 -0.72628594230E+02  0.68812717602E+03  0.78414305390E+03  0.00000000000E+00 0. -1.
         -4    1    3    3    0  502  0.72668588400E+02 -0.56900899966E+02  0.19243428681E+03  0.21342303272E+03  0.00000000000E+00 0.  1.
         11    1    5    5    0    0  0.43353491970E+01  0.53339522030E+00 -0.54679223999E+02  0.54853416486E+02  0.00000000000E+00 0.  1.
        -11    1    5    5    0    0  0.59633852200E+02 -0.25870177173E+03 -0.42821589028E+03  0.50383692968E+03  0.00000000000E+00 0. -1.
          1    1    6    6  503    0 -0.50401474183E+03  0.37009360124E+03 -0.19235542098E+03  0.65421765617E+03  0.00000000000E+00 0. -1.
         -1    1    6    6    0  503 -0.15219581109E+01  0.17604269467E+02 -0.10516967514E+02  0.20562909951E+02  0.00000000000E+00 0.  1.
<mgrwt>
<rscale>  0 0.22225169E+04</rscale>
<asrwt>0</asrwt>
<pdfrwt beam="1">  1        1 0.18660238E+00 0.22225169E+04</pdfrwt>
<pdfrwt beam="2">  1       -2 0.15663408E+00 0.22225169E+04</pdfrwt>
<totfact> 0.22275170E+00</totfact>
</mgrwt>
</event>
<event>
12    4  0.4207946E-008  0.1534679E+04  0.7818608E-02  0.8861714E-01
         -2   -1    0    0    0  501 -0.00000000000E+00  0.00000000000E+00  0.98987262379E+03  0.98987262379E+03  0.00000000000E+00 0.  1.
          1   -1    0    0  501    0  0.00000000000E+00 -0.00000000000E+00 -0.59483373275E+03  0.59483373275E+03  0.00000000000E+00 0. -1.
        -24    2    1    2    0    0  0.33301669336E+03  0.36715987586E+03  0.11031946403E+03  0.51411299750E+03  0.80220306407E+02 0.  0.
        254    2    1    2    0    0 -0.33301669336E+03 -0.36715987586E+03  0.28471942701E+03  0.10705933590E+04  0.90520632775E+03 0.  0.
         23    2    4    4    0    0 -0.27159602473E+03 -0.40449256740E+03  0.57309731130E+03  0.75759432337E+03  0.90166473057E+02 0.  0.
         23    2    4    4    0    0 -0.61420668635E+02  0.37332691539E+02 -0.28837788429E+03  0.31299903566E+03  0.98185354235E+02 0.  0.
          3    1    3    3  502    0  0.74550209560E+02  0.50012604111E+02  0.42786433446E+02  0.99446836060E+02  0.00000000000E+00 0. -1.
         -4    1    3    3    0  502  0.25846648380E+03  0.31714727175E+03  0.67533030579E+02  0.41466616144E+03  0.00000000000E+00 0.  1.
         11    1    5    5    0    0 -0.18973079655E+03 -0.34671705830E+03  0.45265590827E+03  0.60092251162E+03  0.00000000000E+00 0. -1.
        -11    1    5    5    0    0 -0.81865228178E+02 -0.57775509099E+02  0.12044140302E+03  0.15667181176E+03  0.00000000000E+00 0.  1.
          4    1    6    6  503    0 -0.62903504075E+02  0.13816238254E+02 -0.28103247181E+03  0.28831751503E+03  0.00000000000E+00 0. -1.
         -4    1    6    6    0  503  0.14828354404E+01  0.23516453285E+02 -0.73454124787E+01  0.24681520628E+02  0.00000000000E+00 0.  1.
<mgrwt>
<rscale>  0 0.15346786E+04</rscale>
<asrwt>0</asrwt>
<pdfrwt beam="1">  1        1 0.91512882E-01 0.15346786E+04</pdfrwt>
<pdfrwt beam="2">  1       -2 0.15228810E+00 0.15346786E+04</pdfrwt>
<totfact> 0.84191905E+00</totfact>
</mgrwt>
</event>
<event>
12    4  0.4207946E-008  0.1409450E+04  0.7818608E-02  0.8947007E-01
         -2   -1    0    0    0  501 -0.00000000000E+00  0.00000000000E+00  0.33237083123E+03  0.33237083123E+03  0.00000000000E+00 0.  1.
          1   -1    0    0  501    0  0.00000000000E+00 -0.00000000000E+00 -0.14942260171E+04  0.14942260171E+04  0.00000000000E+00 0. -1.
        -24    2    1    2    0    0 -0.28172094744E+03 -0.30026164395E+03 -0.28942515970E+03  0.50968469393E+03  0.80546986941E+02 0.  0.
        254    2    1    2    0    0  0.28172094744E+03  0.30026164395E+03 -0.87243002618E+03  0.13169121544E+04  0.89643723974E+03 0.  0.
         23    2    4    4    0    0  0.29958122324E+03  0.59423749008E+03 -0.66367113536E+03  0.94426357246E+03  0.91143921534E+02 0.  0.
         23    2    4    4    0    0 -0.17860275794E+02 -0.29397584612E+03 -0.20875889082E+03  0.37264858195E+03  0.92444056464E+02 0.  0.
          1    1    3    3  502    0 -0.17065713984E+02 -0.50325467917E+02 -0.56278303521E+02  0.77402446744E+02  0.00000000000E+00 0. -1.
         -2    1    3    3    0  502 -0.26465523346E+03 -0.24993617604E+03 -0.23314685617E+03  0.43228224719E+03  0.00000000000E+00 0.  1.
         11    1    5    5    0    0  0.11089180530E+03  0.17671300470E+03 -0.15665863530E+03  0.26089539384E+03  0.00000000000E+00 0. -1.
        -11    1    5    5    0    0  0.18868941794E+03  0.41752448538E+03 -0.50701250006E+03  0.68336817862E+03  0.00000000000E+00 0.  1.
          2    1    6    6  503    0 -0.37592763600E+02 -0.22568616301E+03 -0.19417251202E+03  0.30008402903E+03  0.00000000000E+00 0. -1.
         -2    1    6    6    0  503  0.19732487806E+02 -0.68289683109E+02 -0.14586378794E+02  0.72564552920E+02  0.00000000000E+00 0.  1.
<mgrwt>
<rscale>  0 0.14094497E+04</rscale>
<asrwt>0</asrwt>
<pdfrwt beam="1">  1        1 0.22988093E+00 0.14094497E+04</pdfrwt>
<pdfrwt beam="2">  1       -2 0.51133973E-01 0.14094497E+04</pdfrwt>
<totfact> 0.20401178E+01</totfact>
</mgrwt>
</event>
<event>
12    4  0.4207946E-008  0.2058003E+04  0.7818608E-02  0.8579972E-01
          1   -1    0    0  501    0  0.00000000000E+00  0.00000000000E+00  0.56187454383E+03  0.56187454383E+03  0.00000000000E+00 0. -1.
         -2   -1    0    0    0  501 -0.00000000000E+00 -0.00000000000E+00 -0.18844853735E+04  0.18844853735E+04  0.00000000000E+00 0.  1.
        -24    2    1    2    0    0 -0.12440086517E+01  0.22950723016E+03  0.40921395095E+03  0.47584833707E+03  0.79375474729E+02 0.  0.
        254    2    1    2    0    0  0.12440086517E+01 -0.22950723016E+03 -0.17318247806E+04  0.19705115802E+04  0.91160501366E+03 0.  0.
         23    2    4    4    0    0  0.33567802117E+03  0.18527041128E+03 -0.83894539538E+03  0.92681249962E+03  0.90261696331E+02 0.  0.
         23    2    4    4    0    0 -0.33443401251E+03 -0.41477764144E+03 -0.89287938521E+03  0.10436990806E+04  0.90485213113E+02 0.  0.
          3    1    3    3  502    0  0.11362054738E+02  0.22688443535E+03  0.40003138872E+03  0.46003342841E+03  0.00000000000E+00 0. -1.
         -2    1    3    3    0  502 -0.12606063390E+02  0.26227948033E+01  0.91825622251E+01  0.15814908656E+02  0.00000000000E+00 0.  1.
         11    1    5    5    0    0  0.20596978498E+02  0.43746898465E+02 -0.11119826324E+03  0.12125625921E+03  0.00000000000E+00 0.  1.
        -11    1    5    5    0    0  0.31508104267E+03  0.14152351282E+03 -0.72774713214E+03  0.80555624041E+03  0.00000000000E+00 0. -1.
          3    1    6    6  503    0 -0.29272660919E+03 -0.31187891798E+03 -0.67399546693E+03  0.79826512930E+03  0.00000000000E+00 0. -1.
         -3    1    6    6    0  503 -0.41707403327E+02 -0.10289872346E+03 -0.21888391828E+03  0.24543395132E+03  0.00000000000E+00 0.  1.
<mgrwt>
<rscale>  0 0.20580033E+04</rscale>
<asrwt>0</asrwt>
<pdfrwt beam="1">  1        1 0.86442240E-01 0.20580033E+04</pdfrwt>
<pdfrwt beam="2">  1       -2 0.28992082E+00 0.20580033E+04</pdfrwt>
<totfact> 0.11148875E+00</totfact>
</mgrwt>
</event>
<event>
12    4  0.4207946E-008  0.1405000E+04  0.7818608E-02  0.8950207E-01
         -2   -1    0    0    0  501 -0.00000000000E+00  0.00000000000E+00  0.33189006064E+03  0.33189006064E+03  0.00000000000E+00 0.  1.
          1   -1    0    0  501    0  0.00000000000E+00 -0.00000000000E+00 -0.14869563146E+04  0.14869563146E+04  0.00000000000E+00 0. -1.
        -24    2    1    2    0    0 -0.26483985754E+03  0.20803122675E+03 -0.63695200908E+03  0.72488939293E+03  0.79621785068E+02 0.  0.
        254    2    1    2    0    0  0.26483985754E+03 -0.20803122675E+03 -0.51811424492E+03  0.10939569823E+04  0.90270835102E+03 0.  0.
         23    2    4    4    0    0 -0.30382669925E+03  0.63711423809E+02 -0.21630032192E+03  0.38952479528E+03  0.92595508412E+02 0.  0.
         23    2    4    4    0    0  0.56866655679E+03 -0.27174265056E+03 -0.30181392300E+03  0.70443218707E+03  0.88923231597E+02 0.  0.
          1    1    3    3  502    0 -0.24540634708E+03  0.20147410544E+03 -0.62531163009E+03  0.70130644163E+03  0.00000000000E+00 0. -1.
         -2    1    3    3    0  502 -0.19433510458E+02  0.65571213095E+01 -0.11640378994E+02  0.23582951293E+02  0.00000000000E+00 0.  1.
         11    1    5    5    0    0 -0.24785207805E+03  0.57304537881E+02 -0.12799084261E+03  0.28477380225E+03  0.00000000000E+00 0. -1.
        -11    1    5    5    0    0 -0.55974621194E+02  0.64068859280E+01 -0.88309479308E+02  0.10475099303E+03  0.00000000000E+00 0.  1.
          2    1    6    6  503    0  0.39829949667E+03 -0.23356910296E+03 -0.22637060322E+03  0.51423794581E+03  0.00000000000E+00 0. -1.
         -2    1    6    6    0  503  0.17036706011E+03 -0.38173547602E+02 -0.75443319773E+02  0.19019424126E+03  0.00000000000E+00 0.  1.
<mgrwt>
<rscale>  0 0.14049997E+04</rscale>
<asrwt>0</asrwt>
<pdfrwt beam="1">  1        1 0.22876251E+00 0.14049997E+04</pdfrwt>
<pdfrwt beam="2">  1       -2 0.51060009E-01 0.14049997E+04</pdfrwt>
<totfact> 0.20708111E+01</totfact>
</mgrwt>
</event>
<event>
12    4  0.4207946E-008  0.1858534E+04  0.7818608E-02  0.8675776E-01
         -2   -1    0    0    0  501 -0.00000000000E+00  0.00000000000E+00  0.38776707801E+03  0.38776707801E+03  0.00000000000E+00 0.  1.
          1   -1    0    0  501    0  0.00000000000E+00 -0.00000000000E+00 -0.22269487945E+04  0.22269487945E+04  0.00000000000E+00 0. -1.
        -24    2    1    2    0    0  0.61136363715E+03 -0.12025329851E+03 -0.27627978210E+03  0.68669266214E+03  0.83605870623E+02 0.  0.
        254    2    1    2    0    0 -0.61136363715E+03  0.12025329851E+03 -0.15629019344E+04  0.19280232104E+04  0.94148005321E+03 0.  0.
         23    2    4    4    0    0  0.24038333388E+03 -0.15293402902E+02 -0.43943065380E+03  0.50879430166E+03  0.88058540335E+02 0.  0.
         23    2    4    4    0    0 -0.85174697103E+03  0.13554670141E+03 -0.11234712806E+04  0.14192289087E+04  0.90427684304E+02 0.  0.
          1    1    3    3  502    0  0.15773659506E+03 -0.63663744834E+02 -0.95724079935E+02  0.19518454167E+03  0.00000000000E+00 0. -1.
         -2    1    3    3    0  502  0.45362704209E+03 -0.56589553678E+02 -0.18055570217E+03  0.49150812047E+03  0.00000000000E+00 0.  1.
         11    1    5    5    0    0  0.22994953081E+03 -0.18928569311E+02 -0.44092539164E+03  0.49764473115E+03  0.00000000000E+00 0. -1.
        -11    1    5    5    0    0  0.10433803073E+02  0.36351664085E+01  0.14947378352E+01  0.11149570511E+02  0.00000000000E+00 0.  1.
          3    1    6    6  503    0 -0.45434865097E+03  0.32366423247E+02 -0.55482872006E+03  0.71785457482E+03  0.00000000000E+00 0. -1.
         -3    1    6    6    0  503 -0.39739832006E+03  0.10318027817E+03 -0.56864256056E+03  0.70137433391E+03  0.00000000000E+00 0.  1.
<mgrwt>
<rscale>  0 0.18585343E+04</rscale>
<asrwt>0</asrwt>
<pdfrwt beam="1">  1        1 0.34260751E+00 0.18585343E+04</pdfrwt>
<pdfrwt beam="2">  1       -2 0.59656473E-01 0.18585343E+04</pdfrwt>
<totfact> 0.45155373E+00</totfact>
</mgrwt>
</event>
<event>
12    4  0.4207946E-008  0.2329767E+04  0.7818608E-02  0.8466276E-01
          1   -1    0    0  501    0  0.00000000000E+00  0.00000000000E+00  0.76507031602E+03  0.76507031602E+03  0.00000000000E+00 0. -1.
         -2   -1    0    0    0  501 -0.00000000000E+00 -0.00000000000E+00 -0.17736321941E+04  0.17736321941E+04  0.00000000000E+00 0.  1.
        -24    2    1    2    0    0  0.65249008202E+03  0.48581054469E+03  0.19114090938E+03  0.83941496216E+03  0.79545200940E+02 0.  0.
        254    2    1    2    0    0 -0.65249008202E+03 -0.48581054469E+03 -0.11997027875E+04  0.16992875480E+04  0.88686876141E+03 0.  0.
         23    2    4    4    0    0 -0.42425499425E+03  0.13429190908E+03 -0.19761337586E+03  0.49545179121E+03  0.91623218130E+02 0.  0.
         23    2    4    4    0    0 -0.22823508777E+03 -0.62010245377E+03 -0.10020894116E+04  0.12038357568E+04  0.91755282996E+02 0.  0.
          1    1    3    3  502    0  0.50392694321E+03  0.35917243282E+03  0.11256826361E+03  0.62898236427E+03  0.00000000000E+00 0. -1.
         -2    1    3    3    0  502  0.14856313882E+03  0.12663811186E+03  0.78572645777E+02  0.21043259789E+03  0.00000000000E+00 0.  1.
         11    1    5    5    0    0 -0.14509279453E+03  0.65755416063E+02 -0.28150720246E+02  0.16176574673E+03  0.00000000000E+00 0. -1.
        -11    1    5    5    0    0 -0.27916219972E+03  0.68536493017E+02 -0.16946265562E+03  0.33368604447E+03  0.00000000000E+00 0.  1.
          4    1    6    6  503    0 -0.89128013057E+02 -0.33522066247E+03 -0.46439490327E+03  0.57963723263E+03  0.00000000000E+00 0.  1.
         -4    1    6    6    0  503 -0.13910707472E+03 -0.28488179129E+03 -0.53769450834E+03  0.62419852415E+03  0.00000000000E+00 0. -1.
<mgrwt>
<rscale>  0 0.23297668E+04</rscale>
<asrwt>0</asrwt>
<pdfrwt beam="1">  1        1 0.11770313E+00 0.23297668E+04</pdfrwt>
<pdfrwt beam="2">  1       -2 0.27286649E+00 0.23297668E+04</pdfrwt>
<totfact> 0.87333306E-01</totfact>
</mgrwt>
</event>
<event>
12    4  0.4207946E-008  0.1691681E+04  0.7818608E-02  0.8766123E-01
         -2   -1    0    0    0  501 -0.00000000000E+00  0.00000000000E+00  0.54645432504E+03  0.54645432504E+03  0.00000000000E+00 0.  1.
          1   -1    0    0  501    0  0.00000000000E+00 -0.00000000000E+00 -0.13092517236E+04  0.13092517236E+04  0.00000000000E+00 0. -1.
        -24    2    1    2    0    0 -0.15129146018E+03  0.23169231614E+03  0.33924636366E+03  0.44552890687E+03  0.82689033886E+02 0.  0.
        254    2    1    2    0    0  0.15129146018E+03 -0.23169231614E+03 -0.11020437622E+04  0.14101771418E+04  0.83518182576E+03 0.  0.
         23    2    4    4    0    0 -0.25577037924E+03 -0.34188251278E+03 -0.44429626896E+03  0.62329959009E+03  0.93813991219E+02 0.  0.
         23    2    4    4    0    0  0.40706183942E+03  0.11019019664E+03 -0.65774749328E+03  0.78687755171E+03  0.93291456844E+02 0.  0.
          1    1    3    3  502    0 -0.58968638807E+02  0.10852545424E+03  0.90927606990E+02  0.15337178454E+03  0.00000000000E+00 0. -1.
         -2    1    3    3    0  502 -0.92322821369E+02  0.12316686190E+03  0.24831875667E+03  0.29215712233E+03  0.00000000000E+00 0.  1.
         11    1    5    5    0    0 -0.59858225073E+02 -0.35611057506E+02 -0.10500357973E+03  0.12600359630E+03  0.00000000000E+00 0.  1.
        -11    1    5    5    0    0 -0.19591215417E+03 -0.30627145528E+03 -0.33929268923E+03  0.49729599378E+03  0.00000000000E+00 0. -1.
          2    1    6    6  503    0  0.25639199547E+03  0.92710739004E+02 -0.48984770065E+03  0.56060940618E+03  0.00000000000E+00 0. -1.
         -2    1    6    6    0  503  0.15066984395E+03  0.17479457639E+02 -0.16789979263E+03  0.22626814553E+03  0.00000000000E+00 0.  1.
<mgrwt>
<rscale>  0 0.16916811E+04</rscale>
<asrwt>0</asrwt>
<pdfrwt beam="1">  1        1 0.20142334E+00 0.16916811E+04</pdfrwt>
<pdfrwt beam="2">  1       -2 0.84069897E-01 0.16916811E+04</pdfrwt>
<totfact> 0.91950844E+00</totfact>
</mgrwt>
</event>
<event>
12    4  0.5137545E-008  0.1686074E+04  0.7818608E-02  0.8769347E-01
         -2   -1    0    0    0  501 -0.00000000000E+00  0.00000000000E+00  0.89047322986E+03  0.89047322986E+03  0.00000000000E+00 0.  1.
          1   -1    0    0  501    0  0.00000000000E+00 -0.00000000000E+00 -0.79812816923E+03  0.79812816923E+03  0.00000000000E+00 0. -1.
        -24    2    1    2    0    0  0.14248771166E+03 -0.13015609103E+03  0.61156211708E+03  0.64626237566E+03  0.80021741625E+02 0.  0.
        254    2    1    2    0    0 -0.14248771166E+03  0.13015609103E+03 -0.51921705646E+03  0.10423390234E+04  0.88297278103E+03 0.  0.
         23    2    4    4    0    0 -0.77152716931E+02  0.19449817631E+03  0.20460787365E+03  0.30663889873E+03  0.91547528305E+02 0.  0.
         23    2    4    4    0    0 -0.65334994730E+02 -0.64342085275E+02 -0.72382493011E+03  0.73570012470E+03  0.94464694756E+02 0.  0.
          3    1    3    3  502    0  0.31973970480E+02 -0.14552645935E+02  0.42424664361E+02  0.55081452760E+02  0.00000000000E+00 0. -1.
         -4    1    3    3    0  502  0.11051374118E+03 -0.11560344510E+03  0.56913745272E+03  0.59118092290E+03  0.00000000000E+00 0.  1.
         11    1    5    5    0    0  0.73303992954E+01  0.32088586044E+02  0.11389753741E+01  0.32934926341E+02  0.00000000000E+00 0. -1.
        -11    1    5    5    0    0 -0.84483116226E+02  0.16240959026E+03  0.20346889828E+03  0.27370397239E+03  0.00000000000E+00 0.  1.
          4    1    6    6  503    0 -0.30886193042E+02  0.46099935684E+01 -0.62186575090E+02  0.69587204878E+02  0.00000000000E+00 0. -1.
         -4    1    6    6    0  503 -0.34448801687E+02 -0.68952078843E+02 -0.66163835502E+03  0.66611291982E+03  0.00000000000E+00 0.  1.
<mgrwt>
<rscale>  0 0.16860745E+04</rscale>
<asrwt>0</asrwt>
<pdfrwt beam="1">  1        1 0.12278895E+00 0.16860745E+04</pdfrwt>
<pdfrwt beam="2">  1       -2 0.13699588E+00 0.16860745E+04</pdfrwt>
<totfact> 0.70349946E+00</totfact>
</mgrwt>
</event>
<event>
12    4  0.4207946E-008  0.1983371E+04  0.7818608E-02  0.8614435E-01
          1   -1    0    0  501    0  0.00000000000E+00  0.00000000000E+00  0.45111807639E+03  0.45111807639E+03  0.00000000000E+00 0. -1.
         -2   -1    0    0    0  501 -0.00000000000E+00 -0.00000000000E+00 -0.21800067424E+04  0.21800067424E+04  0.00000000000E+00 0.  1.
        -24    2    1    2    0    0 -0.52202266689E+03  0.58902854215E+03 -0.72463606894E+03  0.10727233814E+04  0.78585827543E+02 0.  0.
        254    2    1    2    0    0  0.52202266689E+03 -0.58902854215E+03 -0.10042525971E+04  0.15584014375E+04  0.89477900808E+03 0.  0.
         23    2    4    4    0    0 -0.83917362000E+02  0.14647899904E+03 -0.34818757267E+03  0.39784103766E+03  0.92437463628E+02 0.  0.
         23    2    4    4    0    0  0.60594002889E+03 -0.73550754118E+03 -0.65606502442E+03  0.11605603998E+04  0.91348035388E+02 0.  0.
          1    1    3    3  502    0 -0.17390281667E+03  0.24596773625E+03 -0.30254693843E+03  0.42693906694E+03  0.00000000000E+00 0. -1.
         -2    1    3    3    0  502 -0.34811985021E+03  0.34306080589E+03 -0.42208913051E+03  0.64578431441E+03  0.00000000000E+00 0.  1.
         11    1    5    5    0    0 -0.79210761129E+01  0.19809768046E+02 -0.14539473491E+03  0.14695169035E+03  0.00000000000E+00 0. -1.
        -11    1    5    5    0    0 -0.75996285887E+02  0.12666923099E+03 -0.20279283776E+03  0.25088934731E+03  0.00000000000E+00 0.  1.
          3    1    6    6  503    0  0.49277666985E+03 -0.62632134769E+03 -0.51154977638E+03  0.94699020620E+03  0.00000000000E+00 0. -1.
         -3    1    6    6    0  503  0.11316335904E+03 -0.10918619349E+03 -0.14451524805E+03  0.21357019360E+03  0.00000000000E+00 0.  1.
<mgrwt>
<rscale>  0 0.19833713E+04</rscale>
<asrwt>0</asrwt>
<pdfrwt beam="1">  1        1 0.69402779E-01 0.19833713E+04</pdfrwt>
<pdfrwt beam="2">  1       -2 0.33538566E+00 0.19833713E+04</pdfrwt>
<totfact> 0.79890025E-01</totfact>
</mgrwt>
</event>
<event>
12    4  0.4207946E-008  0.1517317E+04  0.7818608E-02  0.8873018E-01
         -4   -1    0    0    0  501 -0.00000000000E+00  0.00000000000E+00  0.40367290750E+03  0.40367290750E+03  0.00000000000E+00 0.  1.
          3   -1    0    0  501    0  0.00000000000E+00 -0.00000000000E+00 -0.14258148600E+04  0.14258148600E+04  0.00000000000E+00 0. -1.
        -24    2    1    2    0    0  0.10194542143E+03 -0.71928694508E+02 -0.90161557967E+03  0.91372199147E+03  0.80066335906E+02 0.  0.
        254    2    1    2    0    0 -0.10194542143E+03  0.71928694508E+02 -0.12052637279E+03  0.91576577599E+03  0.89918504430E+03 0.  0.
         23    2    4    4    0    0 -0.40719252137E+03 -0.19460718723E+03 -0.18686059985E+03  0.49609024376E+03  0.86665675982E+02 0.  0.
         23    2    4    4    0    0  0.30524709994E+03  0.26653588174E+03  0.66334227063E+02  0.41967553222E+03  0.86661146949E+02 0.  0.
          3    1    3    3  502    0  0.11024339170E+03 -0.49722517273E+02 -0.81487111143E+03  0.82379661470E+03  0.00000000000E+00 0. -1.
         -4    1    3    3    0  502 -0.82979702669E+01 -0.22206177235E+02 -0.86744468239E+02  0.89925376774E+02  0.00000000000E+00 0.  1.
         11    1    5    5    0    0 -0.93681937030E+02 -0.37497929842E+02 -0.82143049767E+02  0.13011487499E+03  0.00000000000E+00 0.  1.
        -11    1    5    5    0    0 -0.31351058434E+03 -0.15710925739E+03 -0.10471755009E+03  0.36597536877E+03  0.00000000000E+00 0. -1.
          4    1    6    6  503    0  0.13252278480E+03  0.66359729661E+02  0.51708736540E+01  0.14829915760E+03  0.00000000000E+00 0. -1.
         -4    1    6    6    0  503  0.17272431514E+03  0.20017615208E+03  0.61163353409E+02  0.27137637462E+03  0.00000000000E+00 0.  1.
<mgrwt>
<rscale>  0 0.15173171E+04</rscale>
<asrwt>0</asrwt>
<pdfrwt beam="1">  1        3 0.21935614E+00 0.15173171E+04</pdfrwt>
<pdfrwt beam="2">  1       -4 0.62103523E-01 0.15173171E+04</pdfrwt>
<totfact> 0.60289141E-01</totfact>
</mgrwt>
</event>
<event>
12    4  0.4207946E-008  0.1579705E+04  0.7818608E-02  0.8833114E-01
          1   -1    0    0  501    0  0.00000000000E+00  0.00000000000E+00  0.71737849131E+03  0.71737849131E+03  0.00000000000E+00 0. -1.
         -2   -1    0    0    0  501 -0.00000000000E+00 -0.00000000000E+00 -0.86964855280E+03  0.86964855280E+03  0.00000000000E+00 0.  1.
        -24    2    1    2    0    0 -0.29312899473E+03 -0.41473711717E+03  0.96699592135E+02  0.52311832538E+03  0.79815332620E+02 0.  0.
        254    2    1    2    0    0  0.29312899473E+03  0.41473711717E+03 -0.24896965363E+03  0.10639087187E+04  0.90110176421E+03 0.  0.
         23    2    4    4    0    0  0.56827732816E+03  0.41781813882E+03 -0.29443009966E+03  0.76967358528E+03  0.90538530320E+02 0.  0.
         23    2    4    4    0    0 -0.27514833343E+03 -0.30810216503E+01  0.45460446036E+02  0.29423513345E+03  0.93763337833E+02 0.  0.
          3    1    3    3  502    0 -0.19350558487E+03 -0.33077536827E+03  0.83092455252E+02  0.39212384747E+03  0.00000000000E+00 0. -1.
         -4    1    3    3    0  502 -0.99623409863E+02 -0.83961748894E+02  0.13607136883E+02  0.13099447791E+03  0.00000000000E+00 0.  1.
         11    1    5    5    0    0  0.50788689798E+02  0.25504967259E+02 -0.50357449450E+02  0.75933306799E+02  0.00000000000E+00 0. -1.
        -11    1    5    5    0    0  0.51748863836E+03  0.39231317156E+03 -0.24407265021E+03  0.69374027848E+03  0.00000000000E+00 0.  1.
          3    1    6    6  503    0 -0.33261004147E+02 -0.31767646176E+02 -0.21450197782E+01  0.46044313984E+02  0.00000000000E+00 0. -1.
         -3    1    6    6    0  503 -0.24188732928E+03  0.28686624525E+02  0.47605465814E+02  0.24819081947E+03  0.00000000000E+00 0.  1.
<mgrwt>
<rscale>  0 0.15797052E+04</rscale>
<asrwt>0</asrwt>
<pdfrwt beam="1">  1        1 0.11036592E+00 0.15797052E+04</pdfrwt>
<pdfrwt beam="2">  1       -2 0.13379208E+00 0.15797052E+04</pdfrwt>
<totfact> 0.89119814E+00</totfact>
</mgrwt>
</event>
<event>
12    4  0.4207946E-008  0.1335203E+04  0.7818608E-02  0.9002105E-01
          1   -1    0    0  501    0  0.00000000000E+00  0.00000000000E+00  0.15649631631E+04  0.15649631631E+04  0.00000000000E+00 0. -1.
         -2   -1    0    0    0  501 -0.00000000000E+00 -0.00000000000E+00 -0.28479386427E+03  0.28479386427E+03  0.00000000000E+00 0.  1.
        -24    2    1    2    0    0 -0.10003132611E+03  0.34771509066E+03  0.36210953719E+03  0.51790152718E+03  0.78655098118E+02 0.  0.
        254    2    1    2    0    0  0.10003132611E+03 -0.34771509066E+03  0.91805976162E+03  0.13318555002E+04  0.89447934406E+03 0.  0.
         23    2    4    4    0    0  0.43968997476E+03 -0.18048827752E+03  0.78106191499E+03  0.91913382273E+03  0.94053053183E+02 0.  0.
         23    2    4    4    0    0 -0.33965864865E+03 -0.16722681314E+03  0.13699784664E+03  0.41272167745E+03  0.90763254769E+02 0.  0.
          3    1    3    3  502    0 -0.62239602763E+02  0.28174648361E+03  0.32044195639E+03  0.43120516763E+03  0.00000000000E+00 0. -1.
         -4    1    3    3    0  502 -0.37791723347E+02  0.65968607051E+02  0.41667580800E+02  0.86696359551E+02  0.00000000000E+00 0.  1.
         11    1    5    5    0    0  0.39755880237E+03 -0.19080128233E+03  0.71765642970E+03  0.84231162984E+03  0.00000000000E+00 0.  1.
        -11    1    5    5    0    0  0.42131172387E+02  0.10313004809E+02  0.63405485290E+02  0.76822192886E+02  0.00000000000E+00 0. -1.
          2    1    6    6  503    0 -0.26780327627E+02  0.11243858452E+02  0.12376701562E+02  0.31572029429E+02  0.00000000000E+00 0. -1.
         -2    1    6    6    0  503 -0.31287832102E+03 -0.17847067159E+03  0.12462114507E+03  0.38114964802E+03  0.00000000000E+00 0.  1.
<mgrwt>
<rscale>  0 0.13352032E+04</rscale>
<asrwt>0</asrwt>
<pdfrwt beam="1">  1        1 0.24076356E+00 0.13352032E+04</pdfrwt>
<pdfrwt beam="2">  1       -2 0.43814442E-01 0.13352032E+04</pdfrwt>
<totfact> 0.25056952E+01</totfact>
</mgrwt>
</event>
<event>
12    4  0.4207946E-008  0.1701917E+04  0.7818608E-02  0.8760272E-01
          1   -1    0    0  501    0  0.00000000000E+00  0.00000000000E+00  0.76351194414E+03  0.76351194414E+03  0.00000000000E+00 0. -1.
         -2   -1    0    0    0  501 -0.00000000000E+00 -0.00000000000E+00 -0.94842007570E+03  0.94842007570E+03  0.00000000000E+00 0.  1.
        -24    2    1    2    0    0 -0.15926331013E+03  0.38573714162E+03  0.37981574749E+03  0.56991344334E+03  0.79896098027E+02 0.  0.
        254    2    1    2    0    0  0.15926331013E+03 -0.38573714162E+03 -0.56472387906E+03  0.11420185765E+04  0.90063057084E+03 0.  0.
         23    2    4    4    0    0  0.22168014000E+03 -0.35955707121E+03 -0.78353739034E+03  0.89502352937E+03  0.93342938328E+02 0.  0.
         23    2    4    4    0    0 -0.62416829878E+02 -0.26180070409E+02  0.21881351128E+03  0.24699504713E+03  0.92444274290E+02 0.  0.
          1    1    3    3  502    0 -0.15798093159E+03  0.36061354150E+03  0.32844775369E+03  0.51271632309E+03  0.00000000000E+00 0. -1.
         -2    1    3    3    0  502 -0.12823785358E+01  0.25123600121E+02  0.51367993802E+02  0.57197120250E+02  0.00000000000E+00 0.  1.
         11    1    5    5    0    0  0.18229828673E+02 -0.91599192453E+02 -0.21477067625E+03  0.23419902239E+03  0.00000000000E+00 0.  1.
        -11    1    5    5    0    0  0.20345031133E+03 -0.26795787875E+03 -0.56876671409E+03  0.66082450698E+03  0.00000000000E+00 0. -1.
          2    1    6    6  503    0 -0.80376938376E+02 -0.12556920350E+01  0.12823061528E+03  0.15134437446E+03  0.00000000000E+00 0. -1.
         -2    1    6    6    0  503  0.17960108498E+02 -0.24924378374E+02  0.90582896001E+02  0.95650672672E+02  0.00000000000E+00 0.  1.
<mgrwt>
<rscale>  0 0.17019166E+04</rscale>
<asrwt>0</asrwt>
<pdfrwt beam="1">  1        1 0.11746338E+00 0.17019166E+04</pdfrwt>
<pdfrwt beam="2">  1       -2 0.14591078E+00 0.17019166E+04</pdfrwt>
<totfact> 0.63945875E+00</totfact>
</mgrwt>
</event>
<event>
12    4  0.4207946E-008  0.2129089E+04  0.7818608E-02  0.8548537E-01
          1   -1    0    0  501    0  0.00000000000E+00  0.00000000000E+00  0.25856617045E+04  0.25856617045E+04  0.00000000000E+00 0. -1.
         -2   -1    0    0    0  501 -0.00000000000E+00 -0.00000000000E+00 -0.43828436084E+03  0.43828436084E+03  0.00000000000E+00 0.  1.
        -24    2    1    2    0    0 -0.57454702673E+03  0.21085057507E+03  0.34451792103E+01  0.61919933944E+03  0.93987774607E+02 0.  0.
        254    2    1    2    0    0  0.57454702673E+03 -0.21085057507E+03  0.21439321644E+04  0.24047467259E+04  0.90099913376E+03 0.  0.
         23    2    4    4    0    0  0.32464053687E+03 -0.34502227581E+03  0.37523160375E+03  0.61138632301E+03  0.92534482844E+02 0.  0.
         23    2    4    4    0    0  0.24990648985E+03  0.13417170075E+03  0.17687005606E+04  0.17933604028E+04  0.85933476112E+02 0.  0.
          3    1    3    3  502    0 -0.52105197043E+02  0.39067689257E+02  0.22523253803E+02  0.68909599220E+02  0.00000000000E+00 0. -1.
         -4    1    3    3    0  502 -0.52244182968E+03  0.17178288581E+03 -0.19078074593E+02  0.55028974022E+03  0.00000000000E+00 0.  1.
         11    1    5    5    0    0  0.29527342406E+03 -0.33040752689E+03  0.37173748779E+03  0.57839803649E+03  0.00000000000E+00 0. -1.
        -11    1    5    5    0    0  0.29367112813E+02 -0.14614748924E+02  0.34941159585E+01  0.32988286518E+02  0.00000000000E+00 0.  1.
          2    1    6    6  503    0  0.18110291109E+03  0.12974434431E+03  0.12009428489E+04  0.12214317769E+04  0.00000000000E+00 0. -1.
         -2    1    6    6    0  503  0.68803578768E+02  0.44273564385E+01  0.56775771175E+03  0.57192862596E+03  0.00000000000E+00 0.  1.
<mgrwt>
<rscale>  0 0.21290891E+04</rscale>
<asrwt>0</asrwt>
<pdfrwt beam="1">  1        1 0.39779410E+00 0.21290891E+04</pdfrwt>
<pdfrwt beam="2">  1       -2 0.67428365E-01 0.21290891E+04</pdfrwt>
<totfact> 0.19201708E+00</totfact>
</mgrwt>
</event>
<event>
12    4  0.4207946E-008  0.1347464E+04  0.7818608E-02  0.8992750E-01
          1   -1    0    0  501    0  0.00000000000E+00  0.00000000000E+00  0.94624561035E+03  0.94624561035E+03  0.00000000000E+00 0. -1.
         -2   -1    0    0    0  501 -0.00000000000E+00 -0.00000000000E+00 -0.47970075025E+03  0.47970075025E+03  0.00000000000E+00 0.  1.
        -24    2    1    2    0    0  0.30789691462E+03  0.42587008488E+02  0.31033024333E+03  0.44630782265E+03  0.79193745388E+02 0.  0.
        254    2    1    2    0    0 -0.30789691462E+03 -0.42587008488E+02  0.15621461677E+03  0.97963853795E+03  0.91579173135E+03 0.  0.
         23    2    4    4    0    0  0.14417933621E+03 -0.34307956157E+03 -0.60552361662E+02  0.38781159491E+03  0.90774325022E+02 0.  0.
         23    2    4    4    0    0 -0.45207625083E+03  0.30049255309E+03  0.21676697843E+03  0.59182694304E+03  0.92749644444E+02 0.  0.
          1    1    3    3  502    0  0.22146625820E+03  0.19269285287E+01  0.18402247047E+03  0.28795014536E+03  0.00000000000E+00 0. -1.
         -2    1    3    3    0  502  0.86430656417E+02  0.40660079959E+02  0.12630777286E+03  0.15835767729E+03  0.00000000000E+00 0.  1.
         11    1    5    5    0    0  0.13974412000E+03 -0.30740308058E+03 -0.79878473986E+02  0.34699516370E+03  0.00000000000E+00 0. -1.
        -11    1    5    5    0    0  0.44352162031E+01 -0.35676480999E+02  0.19326112324E+02  0.40816431211E+02  0.00000000000E+00 0.  1.
          3    1    6    6  503    0 -0.27095084419E+03  0.23180718155E+03  0.12951059359E+03  0.37937043010E+03  0.00000000000E+00 0. -1.
         -3    1    6    6    0  503 -0.18112540664E+03  0.68685371541E+02  0.87256384843E+02  0.21245651294E+03  0.00000000000E+00 0.  1.
<mgrwt>
<rscale>  0 0.13474639E+04</rscale>
<asrwt>0</asrwt>
<pdfrwt beam="1">  1        1 0.14557625E+00 0.13474639E+04</pdfrwt>
<pdfrwt beam="2">  1       -2 0.73800116E-01 0.13474639E+04</pdfrwt>
<totfact> 0.23704644E+01</totfact>
</mgrwt>
</event>
<event>
12    4  0.4207946E-008  0.2040536E+04  0.7818608E-02  0.8587900E-01
         -2   -1    0    0    0  501 -0.00000000000E+00  0.00000000000E+00  0.82245930442E+03  0.82245930442E+03  0.00000000000E+00 0.  1.
          1   -1    0    0  501    0  0.00000000000E+00 -0.00000000000E+00 -0.12656513954E+04  0.12656513954E+04  0.00000000000E+00 0. -1.
        -24    2    1    2    0    0 -0.78821714208E+03 -0.22866789049E+03 -0.22248844692E+03  0.85362854274E+03  0.74868636637E+02 0.  0.
        254    2    1    2    0    0  0.78821714208E+03  0.22866789049E+03 -0.22070364405E+03  0.12344821571E+04  0.89535514206E+03 0.  0.
         23    2    4    4    0    0  0.50366548568E+03  0.23699023981E+03  0.29582410766E+03  0.63691909203E+03  0.91163215709E+02 0.  0.
         23    2    4    4    0    0  0.28455165640E+03 -0.83223493127E+01 -0.51652775171E+03  0.59756306504E+03  0.96134238196E+02 0.  0.
          1    1    3    3  502    0 -0.10811374209E+03 -0.10798842700E+02 -0.13235243907E+02  0.10945486702E+03  0.00000000000E+00 0. -1.
         -2    1    3    3    0  502 -0.68010339999E+03 -0.21786904779E+03 -0.20925320302E+03  0.74417367572E+03  0.00000000000E+00 0.  1.
         11    1    5    5    0    0  0.41801540220E+03  0.18684538575E+03  0.20239062242E+03  0.50060966700E+03  0.00000000000E+00 0.  1.
        -11    1    5    5    0    0  0.85650083474E+02  0.50144854054E+02  0.93433485242E+02  0.13630942503E+03  0.00000000000E+00 0. -1.
          4    1    6    6  503    0  0.22038288359E+03  0.28959218753E+02 -0.34168556705E+03  0.40762271583E+03  0.00000000000E+00 0. -1.
         -4    1    6    6    0  503  0.64168772818E+02 -0.37281568065E+02 -0.17484218466E+03  0.18994034921E+03  0.00000000000E+00 0.  1.
<mgrwt>
<rscale>  0 0.20405360E+04</rscale>
<asrwt>0</asrwt>
<pdfrwt beam="1">  1        1 0.19471560E+00 0.20405360E+04</pdfrwt>
<pdfrwt beam="2">  1       -2 0.12653220E+00 0.20405360E+04</pdfrwt>
<totfact> 0.36109843E+00</totfact>
</mgrwt>
</event>
<event>
12    4  0.4207946E-008  0.2483518E+04  0.7818608E-02  0.8408881E-01
         -2   -1    0    0    0  501 -0.00000000000E+00  0.00000000000E+00  0.16826084799E+04  0.16826084799E+04  0.00000000000E+00 0.  1.
          1   -1    0    0  501    0  0.00000000000E+00 -0.00000000000E+00 -0.91641382467E+03  0.91641382467E+03  0.00000000000E+00 0. -1.
        -24    2    1    2    0    0 -0.27166631984E+03  0.80852866962E+03 -0.35399466263E+03  0.92693775176E+03  0.79876001036E+02 0.  0.
        254    2    1    2    0    0  0.27166631984E+03 -0.80852866962E+03  0.11201893179E+04  0.16720845528E+04  0.90195423662E+03 0.  0.
         23    2    4    4    0    0 -0.23700186766E+03 -0.53049945151E+03  0.28637181436E+03  0.65319355508E+03  0.83984826112E+02 0.  0.
         23    2    4    4    0    0  0.50866818749E+03 -0.27802921811E+03  0.83381750349E+03  0.10188909977E+04  0.82726446918E+02 0.  0.
          1    1    3    3  502    0 -0.21711211000E+03  0.70853103991E+03 -0.32630876870E+03  0.80971063680E+03  0.00000000000E+00 0. -1.
         -2    1    3    3    0  502 -0.54554209839E+02  0.99997629712E+02 -0.27685893929E+02  0.11722711496E+03  0.00000000000E+00 0.  1.
         11    1    5    5    0    0 -0.15307965711E+03 -0.41261393129E+03  0.19015512710E+03  0.47941903391E+03  0.00000000000E+00 0.  1.
        -11    1    5    5    0    0 -0.83922210544E+02 -0.11788552022E+03  0.96216687266E+02  0.17377452117E+03  0.00000000000E+00 0. -1.
          3    1    6    6  503    0  0.26624788915E+03 -0.17397844149E+03  0.39829229460E+03  0.50969911567E+03  0.00000000000E+00 0. -1.
         -3    1    6    6    0  503  0.24242029834E+03 -0.10405077662E+03  0.43552520889E+03  0.50919188205E+03  0.00000000000E+00 0.  1.
<mgrwt>
<rscale>  0 0.24835182E+04</rscale>
<asrwt>0</asrwt>
<pdfrwt beam="1">  1        1 0.14098674E+00 0.24835182E+04</pdfrwt>
<pdfrwt beam="2">  1       -2 0.25886284E+00 0.24835182E+04</pdfrwt>
<totfact> 0.78031713E-01</totfact>
</mgrwt>
</event>
<event>
12    4  0.4207946E-008  0.1956610E+04  0.7818608E-02  0.8627180E-01
         -2   -1    0    0    0  501 -0.00000000000E+00  0.00000000000E+00  0.46704668034E+03  0.46704668034E+03  0.00000000000E+00 0.  1.
          1   -1    0    0  501    0  0.00000000000E+00 -0.00000000000E+00 -0.20492193797E+04  0.20492193797E+04  0.00000000000E+00 0. -1.
        -24    2    1    2    0    0 -0.99761782864E+02 -0.32236674656E+03  0.26428127139E+03  0.43737019439E+03  0.87036566597E+02 0.  0.
        254    2    1    2    0    0  0.99761782864E+02  0.32236674656E+03 -0.18464539707E+04  0.20788958656E+04  0.89361234410E+03 0.  0.
         23    2    4    4    0    0  0.26176848156E+03  0.11791640715E+03 -0.10994334730E+03  0.32054006995E+03  0.90726951990E+02 0.  0.
         23    2    4    4    0    0 -0.16200669870E+03  0.20445033941E+03 -0.17365106234E+04  0.17583557957E+04  0.91103497300E+02 0.  0.
          3    1    3    3  502    0  0.84079166255E+01 -0.49782878395E+01  0.20797479463E+02  0.22978502209E+02  0.00000000000E+00 0. -1.
         -4    1    3    3    0  502 -0.10816969949E+03 -0.31738845872E+03  0.24348379193E+03  0.41439169218E+03  0.00000000000E+00 0.  1.
         11    1    5    5    0    0  0.24105876900E+03  0.12118690200E+03 -0.12226981837E+03  0.29621867567E+03  0.00000000000E+00 0.  1.
        -11    1    5    5    0    0  0.20709712555E+02 -0.32704948568E+01  0.12326471073E+02  0.24321394282E+02  0.00000000000E+00 0. -1.
          3    1    6    6  503    0 -0.79255178702E+02  0.11664031654E+03 -0.12103725138E+04  0.12185597930E+04  0.00000000000E+00 0. -1.
         -3    1    6    6    0  503 -0.82751519995E+02  0.87810022866E+02 -0.52613810957E+03  0.53979600269E+03  0.00000000000E+00 0.  1.
<mgrwt>
<rscale>  0 0.19566104E+04</rscale>
<asrwt>0</asrwt>
<pdfrwt beam="1">  1        1 0.31526451E+00 0.19566104E+04</pdfrwt>
<pdfrwt beam="2">  1       -2 0.71853337E-01 0.19566104E+04</pdfrwt>
<totfact> 0.39607939E+00</totfact>
</mgrwt>
</event>
<event>
12    4  0.4207946E-008  0.1616738E+04  0.7818608E-02  0.8810331E-01
          1   -1    0    0  501    0  0.00000000000E+00  0.00000000000E+00  0.16098399681E+04  0.16098399681E+04  0.00000000000E+00 0. -1.
         -2   -1    0    0    0  501 -0.00000000000E+00 -0.00000000000E+00 -0.40591614693E+03  0.40591614693E+03  0.00000000000E+00 0.  1.
        -24    2    1    2    0    0 -0.33390724761E+03  0.39092332966E+03  0.16089984266E+03  0.54476854938E+03  0.81048833065E+02 0.  0.
        254    2    1    2    0    0  0.33390724761E+03 -0.39092332966E+03  0.10430239785E+04  0.14709875657E+04  0.90088306616E+03 0.  0.
         23    2    4    4    0    0 -0.19996495936E+02  0.19541517317E+03  0.62990398087E+03  0.66593471126E+03  0.90017024975E+02 0.  0.
         23    2    4    4    0    0  0.35390374355E+03 -0.58633850283E+03  0.41311999766E+03  0.80505285442E+03  0.91658422134E+02 0.  0.
          3    1    3    3  502    0 -0.70124799987E+00  0.23270935226E+02  0.14555412353E+02  0.27457024672E+02  0.00000000000E+00 0. -1.
         -4    1    3    3    0  502 -0.33320599961E+03  0.36765239443E+03  0.14634443031E+03  0.51731152470E+03  0.00000000000E+00 0.  1.
         11    1    5    5    0    0 -0.47633386925E+01  0.19903246522E+03  0.60018488513E+03  0.63234366285E+03  0.00000000000E+00 0. -1.
        -11    1    5    5    0    0 -0.15233157244E+02 -0.36172920547E+01  0.29719095746E+02  0.33591048411E+02  0.00000000000E+00 0.  1.
          4    1    6    6  503    0  0.10095696745E+03 -0.21160951982E+03  0.98852109693E+02  0.25444574617E+03  0.00000000000E+00 0. -1.
         -4    1    6    6    0  503  0.25294677610E+03 -0.37472898301E+03  0.31426788797E+03  0.55060710825E+03  0.00000000000E+00 0.  1.
<mgrwt>
<rscale>  0 0.16167375E+04</rscale>
<asrwt>0</asrwt>
<pdfrwt beam="1">  1        1 0.24766768E+00 0.16167375E+04</pdfrwt>
<pdfrwt beam="2">  1       -2 0.62448639E-01 0.16167375E+04</pdfrwt>
<totfact> 0.10990316E+01</totfact>
</mgrwt>
</event>
<event>
12    4  0.4207946E-008  0.3156952E+04  0.7818608E-02  0.8200279E-01
         -2   -1    0    0    0  501 -0.00000000000E+00  0.00000000000E+00  0.20101242225E+04  0.20101242225E+04  0.00000000000E+00 0.  1.
          1   -1    0    0  501    0  0.00000000000E+00 -0.00000000000E+00 -0.12395187364E+04  0.12395187364E+04  0.00000000000E+00 0. -1.
        -24    2    1    2    0    0  0.70518634351E+03  0.44801894982E+03 -0.86783164804E+03  0.12073147980E+04  0.80426946294E+02 0.  0.
        254    2    1    2    0    0 -0.70518634351E+03 -0.44801894982E+03  0.16384371342E+04  0.20423281609E+04  0.88804240633E+03 0.  0.
         23    2    4    4    0    0 -0.75475388836E+03 -0.19455555518E+03  0.65482963072E+03  0.10219526565E+04  0.89889325109E+02 0.  0.
         23    2    4    4    0    0  0.49567544853E+02 -0.25346339464E+03  0.98360750352E+03  0.10203755044E+04  0.83557256387E+02 0.  0.
          3    1    3    3  502    0  0.68429867075E+03  0.41934251956E+03 -0.84344279152E+03  0.11642630983E+04  0.00000000000E+00 0. -1.
         -4    1    3    3    0  502  0.20887672758E+02  0.28676430255E+02 -0.24388856524E+02  0.43051699711E+02  0.00000000000E+00 0.  1.
         11    1    5    5    0    0 -0.27467263479E+03 -0.88224482721E+02  0.19098768656E+03  0.34598397661E+03  0.00000000000E+00 0. -1.
        -11    1    5    5    0    0 -0.48008125357E+03 -0.10633107246E+03  0.46384194416E+03  0.67596867987E+03  0.00000000000E+00 0.  1.
          2    1    6    6  503    0  0.21396994027E+02 -0.14806026322E+02  0.50374705576E+02  0.56697978189E+02  0.00000000000E+00 0. -1.
         -2    1    6    6    0  503  0.28170550826E+02 -0.23865736831E+03  0.93323279794E+03  0.96367752622E+03  0.00000000000E+00 0.  1.
<mgrwt>
<rscale>  0 0.31569521E+04</rscale>
<asrwt>0</asrwt>
<pdfrwt beam="1">  1        1 0.19069519E+00 0.31569521E+04</pdfrwt>
<pdfrwt beam="2">  1       -2 0.30924988E+00 0.31569521E+04</pdfrwt>
<totfact> 0.20557130E-01</totfact>
</mgrwt>
</event>
<event>
12    4  0.4207946E-008  0.2125436E+04  0.7818608E-02  0.8550120E-01
         -2   -1    0    0    0  501 -0.00000000000E+00  0.00000000000E+00  0.12050407931E+04  0.12050407931E+04  0.00000000000E+00 0.  1.
          1   -1    0    0  501    0  0.00000000000E+00 -0.00000000000E+00 -0.93720481672E+03  0.93720481672E+03  0.00000000000E+00 0. -1.
        -24    2    1    2    0    0 -0.41423298496E+03  0.44850917191E+02 -0.64749030496E+03  0.77389789908E+03  0.77933898739E+02 0.  0.
        254    2    1    2    0    0  0.41423298496E+03 -0.44850917191E+02  0.91532628136E+03  0.13683477108E+04  0.92787536103E+03 0.  0.
         23    2    4    4    0    0 -0.20641558488E+03 -0.13952480352E+03  0.12915361040E+02  0.26537671220E+03  0.90462303457E+02 0.  0.
         23    2    4    4    0    0  0.62064856985E+03  0.94673886325E+02  0.90241092032E+03  0.11029709986E+04  0.89620101336E+02 0.  0.
          1    1    3    3  502    0 -0.17678356783E+03  0.20118975699E+02 -0.20770683021E+03  0.27349466238E+03  0.00000000000E+00 0. -1.
         -2    1    3    3    0  502 -0.23744941714E+03  0.24731941492E+02 -0.43978347475E+03  0.50040323670E+03  0.00000000000E+00 0.  1.
         11    1    5    5    0    0 -0.37387314421E+02 -0.57364895904E+02  0.33656316397E+02  0.76297380001E+02  0.00000000000E+00 0.  1.
        -11    1    5    5    0    0 -0.16902827046E+03 -0.82159907612E+02 -0.20740955357E+02  0.18907933220E+03  0.00000000000E+00 0. -1.
          1    1    6    6  503    0  0.62640134887E+02 -0.17363133269E+02  0.88552424291E+02  0.10984897243E+03  0.00000000000E+00 0. -1.
         -1    1    6    6    0  503  0.55800843496E+03  0.11203701959E+03  0.81385849603E+03  0.99312202614E+03  0.00000000000E+00 0.  1.
<mgrwt>
<rscale>  0 0.21254365E+04</rscale>
<asrwt>0</asrwt>
<pdfrwt beam="1">  1        1 0.14418536E+00 0.21254365E+04</pdfrwt>
<pdfrwt beam="2">  1       -2 0.18539089E+00 0.21254365E+04</pdfrwt>
<totfact> 0.22729314E+00</totfact>
</mgrwt>
</event>
<event>
12    4  0.4207946E-008  0.1128421E+04  0.7818608E-02  0.9177925E-01
          1   -1    0    0  501    0  0.00000000000E+00  0.00000000000E+00  0.22171237429E+04  0.22171237429E+04  0.00000000000E+00 0. -1.
         -2   -1    0    0    0  501 -0.00000000000E+00 -0.00000000000E+00 -0.14357950409E+03  0.14357950409E+03  0.00000000000E+00 0.  1.
        -24    2    1    2    0    0  0.10985238693E+03  0.55669195735E+02  0.68417182744E+03  0.69971600529E+03  0.79654204664E+02 0.  0.
        254    2    1    2    0    0 -0.10985238693E+03 -0.55669195735E+02  0.13893724114E+04  0.16609872417E+04  0.90186269096E+03 0.  0.
         23    2    4    4    0    0  0.35567739875E+03  0.13856860376E+03  0.51595619124E+03  0.64817836088E+03  0.90646159913E+02 0.  0.
         23    2    4    4    0    0 -0.46552978568E+03 -0.19423779949E+03  0.87341622014E+03  0.10128088808E+04  0.92084913919E+02 0.  0.
          1    1    3    3  502    0  0.73927117959E+02  0.54871000969E+02  0.61414718061E+03  0.62100950474E+03  0.00000000000E+00 0. -1.
         -2    1    3    3    0  502  0.35925268969E+02  0.79819476576E+00  0.70024646830E+02  0.78706500552E+02  0.00000000000E+00 0.  1.
         11    1    5    5    0    0  0.24330256710E+03  0.10298170916E+03  0.28336714622E+03  0.38742523296E+03  0.00000000000E+00 0. -1.
        -11    1    5    5    0    0  0.11237483165E+03  0.35586894594E+02  0.23258904502E+03  0.26075312792E+03  0.00000000000E+00 0.  1.
          4    1    6    6  503    0 -0.57798425860E+02 -0.50500212263E+02  0.17971681114E+03  0.19542021819E+03  0.00000000000E+00 0. -1.
         -4    1    6    6    0  503 -0.40773135982E+03 -0.14373758723E+03  0.69369940900E+03  0.81738866264E+03  0.00000000000E+00 0.  1.
<mgrwt>
<rscale>  0 0.11284211E+04</rscale>
<asrwt>0</asrwt>
<pdfrwt beam="1">  1        1 0.34109594E+00 0.11284211E+04</pdfrwt>
<pdfrwt beam="2">  1       -2 0.22089156E-01 0.11284211E+04</pdfrwt>
<totfact> 0.33347897E+01</totfact>
</mgrwt>
</event>
<event>
12    4  0.4207946E-008  0.1290386E+04  0.7818608E-02  0.9037224E-01
         -2   -1    0    0    0  501 -0.00000000000E+00  0.00000000000E+00  0.93494703404E+03  0.93494703404E+03  0.00000000000E+00 0.  1.
          1   -1    0    0  501    0  0.00000000000E+00 -0.00000000000E+00 -0.44523801747E+03  0.44523801747E+03  0.00000000000E+00 0. -1.
        -24    2    1    2    0    0  0.13727777481E+03  0.15953564632E+03 -0.11895984835E+03  0.25432983971E+03  0.78964624627E+02 0.  0.
        254    2    1    2    0    0 -0.13727777481E+03 -0.15953564632E+03  0.60866886492E+03  0.11258552118E+04  0.92345836989E+03 0.  0.
         23    2    4    4    0    0  0.14277575661E+03  0.27448449781E+03 -0.93696947367E+00  0.32270028922E+03  0.91694833774E+02 0.  0.
         23    2    4    4    0    0 -0.28005353142E+03 -0.43402014413E+03  0.60960583439E+03  0.80315492258E+03  0.81456064032E+02 0.  0.
          3    1    3    3  502    0  0.73420487011E+02  0.13820426694E+03 -0.93814878897E+02  0.18246155435E+03  0.00000000000E+00 0. -1.
         -4    1    3    3    0  502  0.63857287801E+02  0.21331379382E+02 -0.25144969453E+02  0.71868285359E+02  0.00000000000E+00 0.  1.
         11    1    5    5    0    0  0.31368260733E+02  0.62500379552E+02  0.38763603686E+02  0.79955501351E+02  0.00000000000E+00 0. -1.
        -11    1    5    5    0    0  0.11140749587E+03  0.21198411825E+03 -0.39700573159E+02  0.24274478787E+03  0.00000000000E+00 0.  1.
          4    1    6    6  503    0 -0.45740534884E+02 -0.10687483768E+03  0.96546849233E+02  0.15111492831E+03  0.00000000000E+00 0. -1.
         -4    1    6    6    0  503 -0.23431299653E+03 -0.32714530645E+03  0.51305898516E+03  0.65203999427E+03  0.00000000000E+00 0.  1.
<mgrwt>
<rscale>  0 0.12903859E+04</rscale>
<asrwt>0</asrwt>
<pdfrwt beam="1">  1        1 0.68498157E-01 0.12903859E+04</pdfrwt>
<pdfrwt beam="2">  1       -2 0.14383800E+00 0.12903859E+04</pdfrwt>
<totfact> 0.14929022E+01</totfact>
</mgrwt>
</event>
<event>
12    4  0.4207946E-008  0.1255238E+04  0.7818608E-02  0.9065835E-01
          1   -1    0    0  501    0  0.00000000000E+00  0.00000000000E+00  0.81944972422E+03  0.81944972422E+03  0.00000000000E+00 0. -1.
         -2   -1    0    0    0  501 -0.00000000000E+00 -0.00000000000E+00 -0.48069509272E+03  0.48069509272E+03  0.00000000000E+00 0.  1.
        -24    2    1    2    0    0 -0.73616462089E+00 -0.10321489949E+03  0.33699719487E+03  0.36032718144E+03  0.74931374718E+02 0.  0.
        254    2    1    2    0    0  0.73616462089E+00  0.10321489949E+03  0.17574366224E+01  0.93981763551E+03  0.93413074139E+03 0.  0.
         23    2    4    4    0    0 -0.18243815084E+03 -0.29885570240E+03 -0.23325613520E+03  0.42997955110E+03  0.88744464710E+02 0.  0.
         23    2    4    4    0    0  0.18317431546E+03  0.40207060189E+03  0.23501357182E+03  0.50983808440E+03  0.97416090151E+02 0.  0.
          1    1    3    3  502    0 -0.15113941582E+01 -0.11265483646E+03  0.26852236659E+03  0.29120037405E+03  0.00000000000E+00 0. -1.
         -2    1    3    3    0  502  0.77522953728E+00  0.94399369725E+01  0.68474828283E+02  0.69126807385E+02  0.00000000000E+00 0.  1.
         11    1    5    5    0    0 -0.15188305885E+03 -0.27395955860E+03 -0.23327977989E+03  0.39056594708E+03  0.00000000000E+00 0.  1.
        -11    1    5    5    0    0 -0.30555091988E+02 -0.24896143808E+02  0.23644692363E-01  0.39413604022E+02  0.00000000000E+00 0. -1.
          1    1    6    6  503    0  0.11307184079E+03  0.13424324135E+03  0.86698530831E+02  0.19576292876E+03  0.00000000000E+00 0. -1.
         -1    1    6    6    0  503  0.70102474664E+02  0.26782736055E+03  0.14831504099E+03  0.31407515565E+03  0.00000000000E+00 0.  1.
<mgrwt>
<rscale>  0 0.12552378E+04</rscale>
<asrwt>0</asrwt>
<pdfrwt beam="1">  1        1 0.12606919E+00 0.12552378E+04</pdfrwt>
<pdfrwt beam="2">  1       -2 0.73953091E-01 0.12552378E+04</pdfrwt>
<totfact> 0.30265357E+01</totfact>
</mgrwt>
</event>
<event>
12    4  0.4207946E-008  0.1601085E+04  0.7818608E-02  0.8819882E-01
         -2   -1    0    0    0  501 -0.00000000000E+00  0.00000000000E+00  0.67094911724E+03  0.67094911724E+03  0.00000000000E+00 0.  1.
          1   -1    0    0  501    0  0.00000000000E+00 -0.00000000000E+00 -0.95516719634E+03  0.95516719634E+03  0.00000000000E+00 0. -1.
        -24    2    1    2    0    0  0.10967250471E+03 -0.52235884163E+03 -0.39751207634E+01  0.53977108418E+03  0.80313162113E+02 0.  0.
        254    2    1    2    0    0 -0.10967250471E+03  0.52235884163E+03 -0.28024295833E+03  0.10863452294E+04  0.90372729516E+03 0.  0.
         23    2    4    4    0    0  0.29343000947E+03  0.11045206916E+03 -0.37515293619E+03  0.49521959762E+03  0.78752106637E+02 0.  0.
         23    2    4    4    0    0 -0.40310251418E+03  0.41190677247E+03  0.94909977857E+02  0.59112563178E+03  0.90899848736E+02 0.  0.
          3    1    3    3  502    0  0.69452206680E+02 -0.26537716871E+03 -0.39865714945E+02  0.27719654744E+03  0.00000000000E+00 0. -1.
         -4    1    3    3    0  502  0.40220298026E+02 -0.25698167292E+03  0.35890594182E+02  0.26257453674E+03  0.00000000000E+00 0.  1.
         11    1    5    5    0    0  0.49148114335E-01  0.11412108864E+02 -0.26860538601E+02  0.29184365304E+02  0.00000000000E+00 0. -1.
        -11    1    5    5    0    0  0.29338086136E+03  0.99039960299E+02 -0.34829239759E+03  0.46603523232E+03  0.00000000000E+00 0.  1.
          3    1    6    6  503    0 -0.17733641248E+03  0.12646391047E+03  0.57511173389E+02  0.22527507387E+03  0.00000000000E+00 0. -1.
         -3    1    6    6    0  503 -0.22576610170E+03  0.28544286200E+03  0.37398804468E+02  0.36585055791E+03  0.00000000000E+00 0.  1.
<mgrwt>
<rscale>  0 0.16010854E+04</rscale>
<asrwt>0</asrwt>
<pdfrwt beam="1">  1        1 0.14694880E+00 0.16010854E+04</pdfrwt>
<pdfrwt beam="2">  1       -2 0.10322294E+00 0.16010854E+04</pdfrwt>
<totfact> 0.10573480E+01</totfact>
</mgrwt>
</event>
<event>
12    4  0.4207946E-008  0.2771611E+04  0.7818608E-02  0.8312137E-01
          1   -1    0    0  501    0  0.00000000000E+00  0.00000000000E+00  0.13851356362E+04  0.13851356362E+04  0.00000000000E+00 0. -1.
         -2   -1    0    0    0  501 -0.00000000000E+00 -0.00000000000E+00 -0.13864752209E+04  0.13864752209E+04  0.00000000000E+00 0.  1.
        -24    2    1    2    0    0 -0.10791897445E+04  0.51684092483E+02  0.60726403172E+03  0.12419976188E+04  0.80415986834E+02 0.  0.
        254    2    1    2    0    0  0.10791897445E+04 -0.51684092483E+02 -0.60860361640E+03  0.15296132383E+04  0.89554259921E+03 0.  0.
         23    2    4    4    0    0  0.18701539665E+03 -0.28609303079E+03  0.95804227416E+02  0.36550518074E+03  0.87129824447E+02 0.  0.
         23    2    4    4    0    0  0.89217434783E+03  0.23440893830E+03 -0.70440784382E+03  0.11641080576E+04  0.89635607057E+02 0.  0.
          1    1    3    3  502    0 -0.10344963858E+04  0.58902376810E+02  0.59596923830E+03  0.11953374399E+04  0.00000000000E+00 0. -1.
         -2    1    3    3    0  502 -0.44693358695E+02 -0.72182843268E+01  0.11294793420E+02  0.46660178938E+02  0.00000000000E+00 0.  1.
         11    1    5    5    0    0  0.18171815401E+03 -0.22940385558E+03  0.61548088109E+02  0.29905816090E+03  0.00000000000E+00 0.  1.
        -11    1    5    5    0    0  0.52972426389E+01 -0.56689175204E+02  0.34256139308E+02  0.66447019837E+02  0.00000000000E+00 0. -1.
          4    1    6    6  503    0  0.41876093842E+03  0.12420617167E+03 -0.28004788343E+03  0.51885904987E+03  0.00000000000E+00 0. -1.
         -4    1    6    6    0  503  0.47341340941E+03  0.11020276663E+03 -0.42435996039E+03  0.64524900772E+03  0.00000000000E+00 0.  1.
<mgrwt>
<rscale>  0 0.27716105E+04</rscale>
<asrwt>0</asrwt>
<pdfrwt beam="1">  1        1 0.21309779E+00 0.27716105E+04</pdfrwt>
<pdfrwt beam="2">  1       -2 0.21330388E+00 0.27716105E+04</pdfrwt>
<totfact> 0.65390054E-01</totfact>
</mgrwt>
</event>
<event>
12    4  0.4207946E-008  0.1660301E+04  0.7818608E-02  0.8784336E-01
          1   -1    0    0  501    0  0.00000000000E+00  0.00000000000E+00  0.22601451361E+04  0.22601451361E+04  0.00000000000E+00 0. -1.
         -2   -1    0    0    0  501 -0.00000000000E+00 -0.00000000000E+00 -0.30491391836E+03  0.30491391836E+03  0.00000000000E+00 0.  1.
        -24    2    1    2    0    0  0.21425698958E+03 -0.45825739058E+03  0.11472460864E+04  0.12565399893E+04  0.82542524466E+02 0.  0.
        254    2    1    2    0    0 -0.21425698958E+03  0.45825739058E+03  0.80798513139E+03  0.13085190652E+04  0.89636838289E+03 0.  0.
         23    2    4    4    0    0  0.71451152618E+02 -0.18253247955E+03 -0.21720394008E+02  0.21796952217E+03  0.92820061290E+02 0.  0.
         23    2    4    4    0    0 -0.28570814220E+03  0.64078987013E+03  0.82970552540E+03  0.10905495430E+04  0.92985196413E+02 0.  0.
          3    1    3    3  502    0  0.20035231606E+03 -0.39650411597E+03  0.10544327649E+04  0.11441962333E+04  0.00000000000E+00 0. -1.
         -4    1    3    3    0  502  0.13904673523E+02 -0.61753274610E+02  0.92813321465E+02  0.11234375600E+03  0.00000000000E+00 0.  1.
         11    1    5    5    0    0  0.92608864979E+02 -0.12592861559E+03 -0.19178311356E+02  0.15748722400E+03  0.00000000000E+00 0.  1.
        -11    1    5    5    0    0 -0.21157712361E+02 -0.56603863960E+02 -0.25420826525E+01  0.60482298169E+02  0.00000000000E+00 0. -1.
          4    1    6    6  503    0 -0.18961643375E+03  0.31233345933E+03  0.43863930366E+03  0.57088617121E+03  0.00000000000E+00 0. -1.
         -4    1    6    6    0  503 -0.96091708454E+02  0.32845641080E+03  0.39106622175E+03  0.51966337183E+03  0.00000000000E+00 0.  1.
<mgrwt>
<rscale>  0 0.16603008E+04</rscale>
<asrwt>0</asrwt>
<pdfrwt beam="1">  1        1 0.34771463E+00 0.16603008E+04</pdfrwt>
<pdfrwt beam="2">  1       -2 0.46909835E-01 0.16603008E+04</pdfrwt>
<totfact> 0.71639404E+00</totfact>
</mgrwt>
</event>
<event>
12    4  0.4207946E-008  0.1851498E+04  0.7818608E-02  0.8679383E-01
          1   -1    0    0  501    0  0.00000000000E+00  0.00000000000E+00  0.14699865422E+04  0.14699865422E+04  0.00000000000E+00 0. -1.
         -2   -1    0    0    0  501 -0.00000000000E+00 -0.00000000000E+00 -0.58300620827E+03  0.58300620827E+03  0.00000000000E+00 0.  1.
        -24    2    1    2    0    0 -0.15288745594E+02  0.49945911163E+03 -0.21462759069E+03  0.54951148917E+03  0.78770071190E+02 0.  0.
        254    2    1    2    0    0  0.15288745594E+02 -0.49945911163E+03  0.11016079246E+04  0.15034812613E+04  0.89287330206E+03 0.  0.
         23    2    4    4    0    0  0.67495838639E+02 -0.60092501880E+03  0.28730576209E+03  0.67588330316E+03  0.92774307392E+02 0.  0.
         23    2    4    4    0    0 -0.52207093046E+02  0.10146590717E+03  0.81430216252E+03  0.82759795812E+03  0.93858710394E+02 0.  0.
          1    1    3    3  502    0 -0.10535463897E+02  0.11659604420E+03 -0.15982102703E+02  0.11815693433E+03  0.00000000000E+00 0. -1.
         -2    1    3    3    0  502 -0.47532816967E+01  0.38286306743E+03 -0.19864548799E+03  0.43135455485E+03  0.00000000000E+00 0.  1.
         11    1    5    5    0    0  0.49104497183E+02 -0.45819255543E+03  0.17344912247E+03  0.49237817537E+03  0.00000000000E+00 0. -1.
        -11    1    5    5    0    0  0.18391341456E+02 -0.14273246337E+03  0.11385663963E+03  0.18350512779E+03  0.00000000000E+00 0.  1.
          3    1    6    6  503    0 -0.79170081404E+02  0.74196070561E+02  0.55918877664E+03  0.56961833415E+03  0.00000000000E+00 0. -1.
         -3    1    6    6    0  503  0.26962988358E+02  0.27269836607E+02  0.25511338588E+03  0.25797962397E+03  0.00000000000E+00 0.  1.
<mgrwt>
<rscale>  0 0.18514981E+04</rscale>
<asrwt>0</asrwt>
<pdfrwt beam="1">  1        1 0.22615177E+00 0.18514981E+04</pdfrwt>
<pdfrwt beam="2">  1       -2 0.89693264E-01 0.18514981E+04</pdfrwt>
<totfact> 0.60275940E+00</totfact>
</mgrwt>
</event>
<event>
12    4  0.4207946E-008  0.2162536E+04  0.7818608E-02  0.8534185E-01
          1   -1    0    0  501    0  0.00000000000E+00  0.00000000000E+00  0.87805730810E+03  0.87805730810E+03  0.00000000000E+00 0. -1.
         -2   -1    0    0    0  501 -0.00000000000E+00 -0.00000000000E+00 -0.13315080307E+04  0.13315080307E+04  0.00000000000E+00 0.  1.
        -24    2    1    2    0    0 -0.43720488474E+03 -0.66102520596E+03 -0.60246748163E+03  0.99872742423E+03  0.79918504305E+02 0.  0.
        254    2    1    2    0    0  0.43720488474E+03  0.66102520596E+03  0.14901675908E+03  0.12108379145E+04  0.90322756081E+03 0.  0.
         23    2    4    4    0    0  0.32661249358E+03  0.80487773172E+03  0.33471620664E+03  0.93531671376E+03  0.90986438995E+02 0.  0.
         23    2    4    4    0    0  0.11059239115E+03 -0.14385252576E+03 -0.18569944756E+03  0.27552120076E+03  0.92213996194E+02 0.  0.
          1    1    3    3  502    0 -0.11486514595E+03 -0.17385818513E+03 -0.11566602910E+03  0.23832603840E+03  0.00000000000E+00 0. -1.
         -2    1    3    3    0  502 -0.32233973878E+03 -0.48716702083E+03 -0.48680145253E+03  0.76040138583E+03  0.00000000000E+00 0.  1.
         11    1    5    5    0    0  0.57683005211E+02  0.19458758223E+03  0.43369881975E+02  0.20753940087E+03  0.00000000000E+00 0. -1.
        -11    1    5    5    0    0  0.26892948837E+03  0.61029014948E+03  0.29134632466E+03  0.72777731290E+03  0.00000000000E+00 0.  1.
          4    1    6    6  503    0  0.81094684804E+02 -0.14944849681E+03 -0.13721289855E+03  0.21849160311E+03  0.00000000000E+00 0.  1.
         -4    1    6    6    0  503  0.29497706348E+02  0.55959710576E+01 -0.48486549017E+02  0.57029597644E+02  0.00000000000E+00 0. -1.
<mgrwt>
<rscale>  0 0.21625359E+04</rscale>
<asrwt>0</asrwt>
<pdfrwt beam="1">  1        1 0.13508574E+00 0.21625359E+04</pdfrwt>
<pdfrwt beam="2">  1       -2 0.20484739E+00 0.21625359E+04</pdfrwt>
<totfact> 0.18801252E+00</totfact>
</mgrwt>
</event>
<event>
12    4  0.4207946E-008  0.2084808E+04  0.7818608E-02  0.8567965E-01
          1   -1    0    0  501    0  0.00000000000E+00  0.00000000000E+00  0.26847164258E+04  0.26847164258E+04  0.00000000000E+00 0. -1.
         -4   -1    0    0    0  501 -0.00000000000E+00 -0.00000000000E+00 -0.40473787872E+03  0.40473787872E+03  0.00000000000E+00 0.  1.
        -24    2    1    2    0    0 -0.16361094439E+03  0.51764888518E+03 -0.35342888752E+02  0.55001055234E+03  0.80830553953E+02 0.  0.
        254    2    1    2    0    0  0.16361094439E+03 -0.51764888518E+03  0.23153214358E+04  0.25394437522E+04  0.89069203983E+03 0.  0.
         23    2    4    4    0    0 -0.20221488460E+03 -0.31544411718E+03  0.32614191848E+03  0.50521998992E+03  0.92102315949E+02 0.  0.
         23    2    4    4    0    0  0.36582582899E+03 -0.20220476799E+03  0.19891795173E+04  0.20342237622E+04  0.80720860640E+02 0.  0.
          3    1    3    3  502    0 -0.43516626620E+02  0.19590754878E+03  0.21806425642E+02  0.20186377748E+03  0.00000000000E+00 0. -1.
         -4    1    3    3    0  502 -0.12009431777E+03  0.32174133640E+03 -0.57149314394E+02  0.34814677486E+03  0.00000000000E+00 0.  1.
         11    1    5    5    0    0  0.24412970565E+01 -0.41940734057E+02  0.54319900374E+02  0.68670493526E+02  0.00000000000E+00 0. -1.
        -11    1    5    5    0    0 -0.20465618166E+03 -0.27350338313E+03  0.27182201811E+03  0.43654949639E+03  0.00000000000E+00 0.  1.
          1    1    6    6  503    0  0.22782010820E+02 -0.36815140036E+01  0.51655140653E+02  0.56575852784E+02  0.00000000000E+00 0. -1.
         -1    1    6    6    0  503  0.34304381817E+03 -0.19852325399E+03  0.19375243767E+04  0.19776479095E+04  0.00000000000E+00 0.  1.
<mgrwt>
<rscale>  0 0.20848083E+04</rscale>
<asrwt>0</asrwt>
<pdfrwt beam="1">  1        1 0.41303329E+00 0.20848083E+04</pdfrwt>
<pdfrwt beam="2">  1       -4 0.62267368E-01 0.20848083E+04</pdfrwt>
<totfact> 0.11123948E+00</totfact>
</mgrwt>
</event>
<event>
12    4  0.4207946E-008  0.1198836E+04  0.7818608E-02  0.9113876E-01
          1   -1    0    0  501    0  0.00000000000E+00  0.00000000000E+00  0.33748313983E+03  0.33748313983E+03  0.00000000000E+00 0. -1.
         -2   -1    0    0    0  501 -0.00000000000E+00 -0.00000000000E+00 -0.10646519938E+04  0.10646519938E+04  0.00000000000E+00 0.  1.
        -24    2    1    2    0    0 -0.19600958269E+03 -0.27586952357E+02 -0.26042978055E+03  0.33676533213E+03  0.80040126668E+02 0.  0.
        254    2    1    2    0    0  0.19600958269E+03  0.27586952357E+02 -0.46673907339E+03  0.10653698015E+04  0.93700942088E+03 0.  0.
         23    2    4    4    0    0  0.45041382924E+03 -0.64389946603E+02  0.58325048454E+02  0.46753920990E+03  0.90401430942E+02 0.  0.
         23    2    4    4    0    0 -0.25440424655E+03  0.91976898959E+02 -0.52506412184E+03  0.59783059158E+03  0.92346161689E+02 0.  0.
          3    1    3    3  502    0 -0.14775742044E+02 -0.13900745221E+01  0.37678454864E+01  0.15311809812E+02  0.00000000000E+00 0. -1.
         -4    1    3    3    0  502 -0.18123384065E+03 -0.26196877835E+02 -0.26419762604E+03  0.32145352231E+03  0.00000000000E+00 0.  1.
         11    1    5    5    0    0  0.44657942448E+03 -0.60006188504E+02  0.44801228150E+02  0.45281461447E+03  0.00000000000E+00 0. -1.
        -11    1    5    5    0    0  0.38344047589E+01 -0.43837580984E+01  0.13523820304E+02  0.14724595429E+02  0.00000000000E+00 0.  1.
          1    1    6    6  503    0 -0.26113772458E+03  0.86818399985E+02 -0.49238495075E+03  0.56406851135E+03  0.00000000000E+00 0. -1.
         -1    1    6    6    0  503  0.67334780297E+01  0.51584989740E+01 -0.32679171091E+02  0.33762080226E+02  0.00000000000E+00 0.  1.
<mgrwt>
<rscale>  0 0.11988363E+04</rscale>
<asrwt>0</asrwt>
<pdfrwt beam="1">  1        1 0.51920483E-01 0.11988363E+04</pdfrwt>
<pdfrwt beam="2">  1       -2 0.16379262E+00 0.11988363E+04</pdfrwt>
<totfact> 0.15322639E+01</totfact>
</mgrwt>
</event>
<event>
12    4  0.4207946E-008  0.1602466E+04  0.7818608E-02  0.8819035E-01
          1   -1    0    0  501    0  0.00000000000E+00  0.00000000000E+00  0.64743736798E+03  0.64743736798E+03  0.00000000000E+00 0. -1.
         -2   -1    0    0    0  501 -0.00000000000E+00 -0.00000000000E+00 -0.99156156745E+03  0.99156156745E+03  0.00000000000E+00 0.  1.
        -24    2    1    2    0    0 -0.15286707869E+03  0.28302032187E+03 -0.56650920122E+03  0.65637667321E+03  0.80179896102E+02 0.  0.
        254    2    1    2    0    0  0.15286707869E+03 -0.28302032187E+03  0.22238500174E+03  0.98262226222E+03  0.90145580861E+03 0.  0.
         23    2    4    4    0    0 -0.14578185845E+03  0.38227585880E+02  0.44724276046E+03  0.48096541983E+03  0.92671191357E+02 0.  0.
         23    2    4    4    0    0  0.29864893713E+03 -0.32124790775E+03 -0.22485775872E+03  0.50165684239E+03  0.93312217727E+02 0.  0.
          3    1    3    3  502    0 -0.11703656941E+03  0.16242124084E+03 -0.28772430232E+03  0.35051888993E+03  0.00000000000E+00 0. -1.
         -4    1    3    3    0  502 -0.35830509278E+02  0.12059908103E+03 -0.27878489890E+03  0.30585778328E+03  0.00000000000E+00 0.  1.
         11    1    5    5    0    0 -0.31990402565E+02 -0.25496139346E+02  0.16581815995E+03  0.17078964005E+03  0.00000000000E+00 0. -1.
        -11    1    5    5    0    0 -0.11379145588E+03  0.63723725226E+02  0.28142460051E+03  0.31017577978E+03  0.00000000000E+00 0.  1.
          3    1    6    6  503    0  0.13429084166E+03 -0.13242920149E+03 -0.14815865250E+03  0.23983850790E+03  0.00000000000E+00 0. -1.
         -3    1    6    6    0  503  0.16435809548E+03 -0.18881870626E+03 -0.76699106225E+02  0.26181833450E+03  0.00000000000E+00 0.  1.
<mgrwt>
<rscale>  0 0.16024656E+04</rscale>
<asrwt>0</asrwt>
<pdfrwt beam="1">  1        1 0.99605750E-01 0.16024656E+04</pdfrwt>
<pdfrwt beam="2">  1       -2 0.15254793E+00 0.16024656E+04</pdfrwt>
<totfact> 0.73658330E+00</totfact>
</mgrwt>
</event>
<event>
12    4  0.4207946E-008  0.1991934E+04  0.7818608E-02  0.8610401E-01
          1   -1    0    0  501    0  0.00000000000E+00  0.00000000000E+00  0.11742155648E+04  0.11742155648E+04  0.00000000000E+00 0. -1.
         -2   -1    0    0    0  501 -0.00000000000E+00 -0.00000000000E+00 -0.84477658899E+03  0.84477658899E+03  0.00000000000E+00 0.  1.
        -24    2    1    2    0    0 -0.57134691327E+03  0.92536508933E+02 -0.41936160537E+03  0.71901045209E+03  0.78176552587E+02 0.  0.
        254    2    1    2    0    0  0.57134691327E+03 -0.92536508933E+02  0.74880058120E+03  0.12999817017E+04  0.89120694206E+03 0.  0.
         23    2    4    4    0    0  0.80003354662E+03 -0.39398087075E+02  0.61519871331E+03  0.10140023045E+04  0.90140621369E+02 0.  0.
         23    2    4    4    0    0 -0.22868663335E+03 -0.53138421858E+02  0.13360186789E+03  0.28597939724E+03  0.93880181037E+02 0.  0.
          1    1    3    3  502    0 -0.25782202385E+02  0.20192508792E+02 -0.33704306222E+02  0.46994038228E+02  0.00000000000E+00 0. -1.
         -2    1    3    3    0  502 -0.54556471089E+03  0.72344000141E+02 -0.38565729915E+03  0.67201641387E+03  0.00000000000E+00 0.  1.
         11    1    5    5    0    0  0.77095880868E+03 -0.41420706727E+02  0.56787280351E+03  0.95842197418E+03  0.00000000000E+00 0. -1.
        -11    1    5    5    0    0  0.29074737945E+02  0.20226196523E+01  0.47325909790E+02  0.55580330282E+02  0.00000000000E+00 0.  1.
          3    1    6    6  503    0 -0.15038749362E+03 -0.22321132276E+02  0.34365480171E+02  0.15587051489E+03  0.00000000000E+00 0. -1.
         -3    1    6    6    0  503 -0.78299139730E+02 -0.30817289581E+02  0.99236387721E+02  0.13010888235E+03  0.00000000000E+00 0.  1.
<mgrwt>
<rscale>  0 0.19919336E+04</rscale>
<asrwt>0</asrwt>
<pdfrwt beam="1">  1        1 0.18064855E+00 0.19919336E+04</pdfrwt>
<pdfrwt beam="2">  1       -2 0.12996563E+00 0.19919336E+04</pdfrwt>
<totfact> 0.39498549E+00</totfact>
</mgrwt>
</event>
<event>
12    4  0.4207946E-008  0.1750395E+04  0.7818608E-02  0.8733133E-01
         -2   -1    0    0    0  501 -0.00000000000E+00  0.00000000000E+00  0.20550553931E+03  0.20550553931E+03  0.00000000000E+00 0.  1.
          1   -1    0    0  501    0  0.00000000000E+00 -0.00000000000E+00 -0.37272509573E+04  0.37272509573E+04  0.00000000000E+00 0. -1.
        -24    2    1    2    0    0  0.21304279987E+03  0.59514555506E+03 -0.10581055583E+04  0.12351439558E+04  0.80048440185E+02 0.  0.
        254    2    1    2    0    0 -0.21304279987E+03 -0.59514555506E+03 -0.24636398597E+04  0.26976125408E+04  0.89889187100E+03 0.  0.
         23    2    4    4    0    0 -0.32508814198E+03 -0.57793583253E+03 -0.87397641496E+03  0.11009907960E+04  0.93025977361E+02 0.  0.
         23    2    4    4    0    0  0.11204534211E+03 -0.17209722531E+02 -0.15896634447E+04  0.15966217447E+04  0.96544265065E+02 0.  0.
          3    1    3    3  502    0  0.88906697022E+02  0.25891674587E+03 -0.53590205027E+03  0.60177511543E+03  0.00000000000E+00 0. -1.
         -4    1    3    3    0  502  0.12413610285E+03  0.33622880920E+03 -0.52220350801E+03  0.63336884036E+03  0.00000000000E+00 0.  1.
         11    1    5    5    0    0 -0.30498152155E+03 -0.53701453437E+03 -0.76716849800E+03  0.98485828571E+03  0.00000000000E+00 0.  1.
        -11    1    5    5    0    0 -0.20106620424E+02 -0.40921298168E+02 -0.10680791696E+03  0.11613251032E+03  0.00000000000E+00 0. -1.
          2    1    6    6  503    0  0.11190105311E+03  0.15909057348E+02 -0.10845236428E+04  0.10903973934E+04  0.00000000000E+00 0.  1.
         -2    1    6    6    0  503  0.14428899819E+00 -0.33118779878E+02 -0.50513980194E+03  0.50622435135E+03  0.00000000000E+00 0. -1.
<mgrwt>
<rscale>  0 0.17503951E+04</rscale>
<asrwt>0</asrwt>
<pdfrwt beam="1">  1        1 0.57342315E+00 0.17503951E+04</pdfrwt>
<pdfrwt beam="2">  1       -2 0.31616241E-01 0.17503951E+04</pdfrwt>
<totfact> 0.12794176E+00</totfact>
</mgrwt>
</event>
<event>
12    4  0.4207946E-008  0.1606449E+04  0.7818608E-02  0.8816596E-01
         -2   -1    0    0    0  501 -0.00000000000E+00  0.00000000000E+00  0.75453478016E+03  0.75453478016E+03  0.00000000000E+00 0.  1.
          1   -1    0    0  501    0  0.00000000000E+00 -0.00000000000E+00 -0.85505579940E+03  0.85505579940E+03  0.00000000000E+00 0. -1.
        -24    2    1    2    0    0  0.41689983524E+03  0.29902417881E+03  0.16039750208E+03  0.54385343935E+03  0.82633363005E+02 0.  0.
        254    2    1    2    0    0 -0.41689983524E+03 -0.29902417881E+03 -0.26091852132E+03  0.10657371402E+04  0.89693714670E+03 0.  0.
         23    2    4    4    0    0 -0.57359630168E+03 -0.39914981608E+03  0.34162273515E+02  0.70485761762E+03  0.85579829466E+02 0.  0.
         23    2    4    4    0    0  0.15669646644E+03  0.10012563726E+03 -0.29508079484E+03  0.36087952260E+03  0.92641397429E+02 0.  0.
          3    1    3    3  502    0  0.21539631075E+03  0.17743217466E+03  0.48460365083E+02  0.28324221838E+03  0.00000000000E+00 0. -1.
         -4    1    3    3    0  502  0.20150352449E+03  0.12159200415E+03  0.11193713700E+03  0.26061122097E+03  0.00000000000E+00 0.  1.
         11    1    5    5    0    0 -0.24618023553E+03 -0.12049461190E+03  0.13685730406E+02  0.27442842251E+03  0.00000000000E+00 0.  1.
        -11    1    5    5    0    0 -0.32741606614E+03 -0.27865520418E+03  0.20476543108E+02  0.43042919511E+03  0.00000000000E+00 0. -1.
          1    1    6    6  503    0  0.39783729673E+02  0.79579444712E+02 -0.13135201103E+03  0.15864735727E+03  0.00000000000E+00 0. -1.
         -1    1    6    6    0  503  0.11691273676E+03  0.20546192553E+02 -0.16372878380E+03  0.20223216532E+03  0.00000000000E+00 0.  1.
<mgrwt>
<rscale>  0 0.16064487E+04</rscale>
<asrwt>0</asrwt>
<pdfrwt beam="1">  1        1 0.13154705E+00 0.16064487E+04</pdfrwt>
<pdfrwt beam="2">  1       -2 0.11608227E+00 0.16064487E+04</pdfrwt>
<totfact> 0.96028598E+00</totfact>
</mgrwt>
</event>
<event>
12    4  0.4207946E-008  0.1772670E+04  0.7818608E-02  0.8720970E-01
          1   -1    0    0  501    0  0.00000000000E+00  0.00000000000E+00  0.49202630771E+03  0.49202630771E+03  0.00000000000E+00 0. -1.
         -2   -1    0    0    0  501 -0.00000000000E+00 -0.00000000000E+00 -0.15966416903E+04  0.15966416903E+04  0.00000000000E+00 0.  1.
        -24    2    1    2    0    0 -0.40993830484E+03 -0.16403000020E+03 -0.98630633720E+03  0.10841010031E+04  0.86715278011E+02 0.  0.
        254    2    1    2    0    0  0.40993830484E+03  0.16403000020E+03 -0.11830904540E+03  0.10045669949E+04  0.89454041958E+03 0.  0.
         23    2    4    4    0    0  0.42400939577E+02 -0.33294389049E+03  0.65337965330E+02  0.35371636431E+03  0.90535864604E+02 0.  0.
         23    2    4    4    0    0  0.36753736527E+03  0.49697389068E+03 -0.18364701073E+03  0.65085063058E+03  0.88394320450E+02 0.  0.
          3    1    3    3  502    0 -0.67317146661E+02 -0.15858120309E+02 -0.92662581140E+02  0.11562626068E+03  0.00000000000E+00 0. -1.
         -2    1    3    3    0  502 -0.34262115818E+03 -0.14817187989E+03 -0.89364375606E+03  0.96847474245E+03  0.00000000000E+00 0.  1.
         11    1    5    5    0    0  0.39262965867E+02 -0.33409355954E+03  0.52517626809E+02  0.34046760219E+03  0.00000000000E+00 0.  1.
        -11    1    5    5    0    0  0.31379737109E+01  0.11496690559E+01  0.12820338521E+02  0.13248762121E+02  0.00000000000E+00 0. -1.
          3    1    6    6  503    0  0.11120320265E+03  0.15043670181E+03 -0.98715174658E+02  0.21152314114E+03  0.00000000000E+00 0. -1.
         -3    1    6    6    0  503  0.25633416261E+03  0.34653718887E+03 -0.84931836071E+02  0.43932748944E+03  0.00000000000E+00 0.  1.
<mgrwt>
<rscale>  0 0.17726700E+04</rscale>
<asrwt>0</asrwt>
<pdfrwt beam="1">  1        1 0.75696355E-01 0.17726700E+04</pdfrwt>
<pdfrwt beam="2">  1       -2 0.24563718E+00 0.17726700E+04</pdfrwt>
<totfact> 0.25635367E+00</totfact>
</mgrwt>
</event>
<event>
12    4  0.4207946E-008  0.2470423E+04  0.7818608E-02  0.8413599E-01
          1   -1    0    0  501    0  0.00000000000E+00  0.00000000000E+00  0.16726583020E+04  0.16726583020E+04  0.00000000000E+00 0. -1.
         -2   -1    0    0    0  501 -0.00000000000E+00 -0.00000000000E+00 -0.91216940042E+03  0.91216940042E+03  0.00000000000E+00 0.  1.
        -24    2    1    2    0    0 -0.95469022718E+03 -0.37667184991E+03  0.13386368779E+02  0.10294527386E+04  0.79237830548E+02 0.  0.
        254    2    1    2    0    0  0.95469022718E+03  0.37667184991E+03  0.74710253275E+03  0.15553749638E+04  0.89872908657E+03 0.  0.
         23    2    4    4    0    0  0.96308141304E+03  0.57973986356E+03  0.70353399945E+03  0.13289780775E+04  0.87169516399E+02 0.  0.
         23    2    4    4    0    0 -0.83911858591E+01 -0.20306801366E+03  0.43568533298E+02  0.22639688624E+03  0.89723479842E+02 0.  0.
          1    1    3    3  502    0 -0.21323077096E+03 -0.11134645240E+03  0.25143866190E+02  0.24186278786E+03  0.00000000000E+00 0. -1.
         -2    1    3    3    0  502 -0.74145945622E+03 -0.26532539750E+03 -0.11757497411E+02  0.78758995075E+03  0.00000000000E+00 0.  1.
         11    1    5    5    0    0  0.44119883031E+02  0.22332510907E+02  0.11861114894E+02  0.50852641707E+02  0.00000000000E+00 0.  1.
        -11    1    5    5    0    0  0.91896153001E+03  0.55740735266E+03  0.69167288456E+03  0.12781254358E+04  0.00000000000E+00 0. -1.
          3    1    6    6  503    0 -0.35327813545E+02 -0.14333950347E+03 -0.15011076865E+00  0.14762889351E+03  0.00000000000E+00 0. -1.
         -3    1    6    6    0  503  0.26936627686E+02 -0.59728510188E+02  0.43718644067E+02  0.78767992735E+02  0.00000000000E+00 0.  1.
<mgrwt>
<rscale>  0 0.24704232E+04</rscale>
<asrwt>0</asrwt>
<pdfrwt beam="1">  1        1 0.25733205E+00 0.24704232E+04</pdfrwt>
<pdfrwt beam="2">  1       -2 0.14033375E+00 0.24704232E+04</pdfrwt>
<totfact> 0.13894264E+00</totfact>
</mgrwt>
</event>
<event>
12    4  0.4207946E-008  0.2041636E+04  0.7818608E-02  0.8587398E-01
         -2   -1    0    0    0  501 -0.00000000000E+00  0.00000000000E+00  0.94506587221E+03  0.94506587221E+03  0.00000000000E+00 0.  1.
          1   -1    0    0  501    0  0.00000000000E+00 -0.00000000000E+00 -0.11026420640E+04  0.11026420640E+04  0.00000000000E+00 0. -1.
        -24    2    1    2    0    0  0.14198854191E+03  0.66131204024E+03  0.40431379229E+03  0.79197633946E+03  0.79136079253E+02 0.  0.
        254    2    1    2    0    0 -0.14198854191E+03 -0.66131204024E+03 -0.56188998403E+03  0.12557315967E+04  0.89646367924E+03 0.  0.
         23    2    4    4    0    0  0.87716428984E+02  0.15890997602E+03  0.47711065423E+02  0.20431561509E+03  0.80758729642E+02 0.  0.
         23    2    4    4    0    0 -0.22970497090E+03 -0.82022201626E+03 -0.60960104945E+03  0.10514159816E+04  0.91288538592E+02 0.  0.
          3    1    3    3  502    0  0.12184984731E+03  0.44276891389E+03  0.24266494513E+03  0.51940155178E+03  0.00000000000E+00 0. -1.
         -2    1    3    3    0  502  0.20138694608E+02  0.21854312634E+03  0.16164884715E+03  0.27257478768E+03  0.00000000000E+00 0.  1.
         11    1    5    5    0    0  0.99655044905E+01  0.37711081079E+02 -0.21514158081E+02  0.44545436510E+02  0.00000000000E+00 0. -1.
        -11    1    5    5    0    0  0.77750924493E+02  0.12119889494E+03  0.69225223504E+02  0.15977017858E+03  0.00000000000E+00 0.  1.
          3    1    6    6  503    0 -0.17561070193E+03 -0.69908844974E+03 -0.48034740119E+03  0.86619709364E+03  0.00000000000E+00 0. -1.
         -3    1    6    6    0  503 -0.54094268967E+02 -0.12113356652E+03 -0.12925364826E+03  0.18521888797E+03  0.00000000000E+00 0.  1.
<mgrwt>
<rscale>  0 0.20416360E+04</rscale>
<asrwt>0</asrwt>
<pdfrwt beam="1">  1        1 0.16963724E+00 0.20416360E+04</pdfrwt>
<pdfrwt beam="2">  1       -2 0.14539475E+00 0.20416360E+04</pdfrwt>
<totfact> 0.33282748E+00</totfact>
</mgrwt>
</event>
<event>
12    4  0.4207946E-008  0.1745823E+04  0.7818608E-02  0.8735653E-01
         -4   -1    0    0    0  501 -0.00000000000E+00  0.00000000000E+00  0.58086952280E+03  0.58086952280E+03  0.00000000000E+00 0.  1.
          3   -1    0    0  501    0  0.00000000000E+00 -0.00000000000E+00 -0.13117820303E+04  0.13117820303E+04  0.00000000000E+00 0. -1.
        -24    2    1    2    0    0  0.15994233766E+03  0.54433726715E+03  0.50182276736E+02  0.57525206034E+03  0.80697337222E+02 0.  0.
        254    2    1    2    0    0 -0.15994233766E+03 -0.54433726715E+03 -0.78109478427E+03  0.13173994928E+04  0.89640824952E+03 0.  0.
         23    2    4    4    0    0 -0.32242418430E+02 -0.56319121787E+03 -0.93546049605E+03  0.10961650335E+04  0.90925900965E+02 0.  0.
         23    2    4    4    0    0 -0.12769991923E+03  0.18853950721E+02  0.15436571178E+03  0.22123445934E+03  0.91941134393E+02 0.  0.
          3    1    3    3  502    0  0.44234073898E+02  0.14222670161E+03 -0.22258208265E+02  0.15060051720E+03  0.00000000000E+00 0. -1.
         -4    1    3    3    0  502  0.11570826376E+03  0.40211056554E+03  0.72440485002E+02  0.42465154314E+03  0.00000000000E+00 0.  1.
         11    1    5    5    0    0 -0.36048810599E+02 -0.20481414405E+03 -0.27563701260E+03  0.34528844907E+03  0.00000000000E+00 0.  1.
        -11    1    5    5    0    0  0.38063921690E+01 -0.35837707383E+03 -0.65982348345E+03  0.75087658438E+03  0.00000000000E+00 0. -1.
          2    1    6    6  503    0 -0.12228320486E+03 -0.13341066730E+02  0.10332850830E+03  0.16064851969E+03  0.00000000000E+00 0. -1.
         -2    1    6    6    0  503 -0.54167143775E+01  0.32195017451E+02  0.51037203486E+02  0.60585939648E+02  0.00000000000E+00 0.  1.
<mgrwt>
<rscale>  0 0.17458227E+04</rscale>
<asrwt>0</asrwt>
<pdfrwt beam="1">  1        3 0.20181262E+00 0.17458227E+04</pdfrwt>
<pdfrwt beam="2">  1       -4 0.89364543E-01 0.17458227E+04</pdfrwt>
<totfact> 0.33541100E-01</totfact>
</mgrwt>
</event>
<event>
12    4  0.4207946E-008  0.1634244E+04  0.7818608E-02  0.8799783E-01
          1   -1    0    0  501    0  0.00000000000E+00  0.00000000000E+00  0.12615242162E+04  0.12615242162E+04  0.00000000000E+00 0. -1.
         -2   -1    0    0    0  501 -0.00000000000E+00 -0.00000000000E+00 -0.52927095200E+03  0.52927095200E+03  0.00000000000E+00 0.  1.
        -24    2    1    2    0    0 -0.30683617111E+03  0.33796751921E+03  0.58753923523E+03  0.74830399012E+03  0.79912631997E+02 0.  0.
        254    2    1    2    0    0  0.30683617111E+03 -0.33796751921E+03  0.14471402898E+03  0.10424911781E+04  0.92599958221E+03 0.  0.
         23    2    4    4    0    0 -0.22824371602E+03  0.38941241917E+02 -0.17939175345E+03  0.30638744977E+03  0.89890232791E+02 0.  0.
         23    2    4    4    0    0  0.53507988713E+03 -0.37690876112E+03  0.32410578242E+03  0.73610372831E+03  0.91833767260E+02 0.  0.
          3    1    3    3  502    0 -0.21514699489E+03  0.28576762687E+03  0.46298108310E+03  0.58506653407E+03  0.00000000000E+00 0. -1.
         -4    1    3    3    0  502 -0.91689176221E+02  0.52199892335E+02  0.12455815213E+03  0.16323745605E+03  0.00000000000E+00 0.  1.
         11    1    5    5    0    0 -0.45693994680E+01 -0.46087946789E+01  0.87407793634E+01  0.10886763696E+02  0.00000000000E+00 0. -1.
        -11    1    5    5    0    0 -0.22367431655E+03  0.43550036596E+02 -0.18813253281E+03  0.29550068608E+03  0.00000000000E+00 0.  1.
          2    1    6    6  503    0  0.49427763404E+02 -0.60306704408E+02  0.16072731989E+02  0.79613661550E+02  0.00000000000E+00 0. -1.
         -2    1    6    6    0  503  0.48565212372E+03 -0.31660205672E+03  0.30803305043E+03  0.65649006676E+03  0.00000000000E+00 0.  1.
<mgrwt>
<rscale>  0 0.16342437E+04</rscale>
<asrwt>0</asrwt>
<pdfrwt beam="1">  1        1 0.19408065E+00 0.16342437E+04</pdfrwt>
<pdfrwt beam="2">  1       -2 0.81426301E-01 0.16342437E+04</pdfrwt>
<totfact> 0.10747451E+01</totfact>
</mgrwt>
</event>
<event>
12    4  0.4207946E-008  0.2236129E+04  0.7818608E-02  0.8503539E-01
         -2   -1    0    0    0  501 -0.00000000000E+00  0.00000000000E+00  0.95053345314E+03  0.95053345314E+03  0.00000000000E+00 0.  1.
          1   -1    0    0  501    0  0.00000000000E+00 -0.00000000000E+00 -0.13151222933E+04  0.13151222933E+04  0.00000000000E+00 0. -1.
        -24    2    1    2    0    0 -0.98448396418E+02  0.12727267782E+03  0.77965890695E+03  0.80105533646E+03  0.89057395045E+02 0.  0.
        254    2    1    2    0    0  0.98448396418E+02 -0.12727267782E+03 -0.11442477471E+04  0.14646004100E+04  0.89992279272E+03 0.  0.
         23    2    4    4    0    0 -0.38785093567E+03 -0.12903507523E+03 -0.51288699084E+03  0.66237967569E+03  0.92819019835E+02 0.  0.
         23    2    4    4    0    0  0.48629933209E+03  0.17623974128E+01 -0.63136075630E+03  0.80222073431E+03  0.91932342138E+02 0.  0.
          1    1    3    3  502    0 -0.66168760630E+02  0.20615090126E+02  0.37409105125E+03  0.38045683257E+03  0.00000000000E+00 0. -1.
         -2    1    3    3    0  502 -0.32279635788E+02  0.10665758769E+03  0.40556785570E+03  0.42059850389E+03  0.00000000000E+00 0.  1.
         11    1    5    5    0    0 -0.37475734728E+03 -0.10686689079E+03 -0.45531102065E+03  0.59930937521E+03  0.00000000000E+00 0. -1.
        -11    1    5    5    0    0 -0.13093588391E+02 -0.22168184442E+02 -0.57575970195E+02  0.63070300477E+02  0.00000000000E+00 0.  1.
          2    1    6    6  503    0  0.13390334731E+03 -0.38190433170E+02 -0.20172914403E+03  0.24511887557E+03  0.00000000000E+00 0. -1.
         -2    1    6    6    0  503  0.35239598478E+03  0.39952830583E+02 -0.42963161226E+03  0.55710185874E+03  0.00000000000E+00 0.  1.
<mgrwt>
<rscale>  0 0.22361286E+04</rscale>
<asrwt>0</asrwt>
<pdfrwt beam="1">  1        1 0.20232651E+00 0.22361286E+04</pdfrwt>
<pdfrwt beam="2">  1       -2 0.14623592E+00 0.22361286E+04</pdfrwt>
<totfact> 0.22551547E+00</totfact>
</mgrwt>
</event>
<event>
12    4  0.4207946E-008  0.1421086E+04  0.7818608E-02  0.8938695E-01
          1   -1    0    0  501    0  0.00000000000E+00  0.00000000000E+00  0.59107825030E+03  0.59107825030E+03  0.00000000000E+00 0. -1.
         -2   -1    0    0    0  501 -0.00000000000E+00 -0.00000000000E+00 -0.85415365774E+03  0.85415365774E+03  0.00000000000E+00 0.  1.
        -24    2    1    2    0    0  0.20272007918E+03  0.71021204325E+01  0.29582106930E+03  0.36769817217E+03  0.80907169961E+02 0.  0.
        254    2    1    2    0    0 -0.20272007918E+03 -0.71021204325E+01 -0.55889647675E+03  0.10775337359E+04  0.89864776726E+03 0.  0.
         23    2    4    4    0    0 -0.39863040298E+01 -0.13455235422E+03  0.21100680099E+03  0.26666470663E+03  0.92010700751E+02 0.  0.
         23    2    4    4    0    0 -0.19873377515E+03  0.12745023379E+03 -0.76990327774E+03  0.81086902924E+03  0.94967626237E+02 0.  0.
          3    1    3    3  502    0  0.89860323751E+02  0.37461621884E+02  0.17050021081E+03  0.19633790461E+03  0.00000000000E+00 0. -1.
         -4    1    3    3    0  502  0.11285975543E+03 -0.30359501451E+02  0.12532085850E+03  0.17136026756E+03  0.00000000000E+00 0.  1.
         11    1    5    5    0    0 -0.24782015966E+02 -0.34904560933E+02  0.12909097146E+03  0.13600351320E+03  0.00000000000E+00 0.  1.
        -11    1    5    5    0    0  0.20795711936E+02 -0.99647793289E+02  0.81915829528E+02  0.13066119343E+03  0.00000000000E+00 0. -1.
          2    1    6    6  503    0 -0.48024286836E+02  0.19749303670E+02 -0.71808430150E+02  0.88616125859E+02  0.00000000000E+00 0. -1.
         -2    1    6    6    0  503 -0.15070948832E+03  0.10770093012E+03 -0.69809484759E+03  0.72225290339E+03  0.00000000000E+00 0.  1.
<mgrwt>
<rscale>  0 0.14210864E+04</rscale>
<asrwt>0</asrwt>
<pdfrwt beam="1">  1        1 0.90935115E-01 0.14210864E+04</pdfrwt>
<pdfrwt beam="2">  1       -2 0.13140826E+00 0.14210864E+04</pdfrwt>
<totfact> 0.12592413E+01</totfact>
</mgrwt>
</event>
<event>
12    4  0.4207946E-008  0.1657602E+04  0.7818608E-02  0.8785922E-01
          1   -1    0    0  501    0  0.00000000000E+00  0.00000000000E+00  0.16229280423E+04  0.16229280423E+04  0.00000000000E+00 0. -1.
         -2   -1    0    0    0  501 -0.00000000000E+00 -0.00000000000E+00 -0.42325442667E+03  0.42325442667E+03  0.00000000000E+00 0.  1.
        -24    2    1    2    0    0  0.60904595079E+02 -0.46784688859E+03 -0.12584390931E+02  0.47857181101E+03  0.79262415618E+02 0.  0.
        254    2    1    2    0    0 -0.60904595079E+02  0.46784688859E+03  0.12122580066E+04  0.15676106580E+04  0.87478204121E+03 0.  0.
         23    2    4    4    0    0  0.12296229072E+03  0.46579092697E+03  0.19146824582E+03  0.52645127932E+03  0.91705767301E+02 0.  0.
         23    2    4    4    0    0 -0.18386688580E+03  0.20559616266E+01  0.10207897608E+04  0.10411593787E+04  0.90497830991E+02 0.  0.
          1    1    3    3  502    0 -0.17349066210E+02 -0.66094655081E+02  0.77055127883E+01  0.68766768544E+02  0.00000000000E+00 0. -1.
         -2    1    3    3    0  502  0.78253661289E+02 -0.40175223351E+03 -0.20289903719E+02  0.40980504247E+03  0.00000000000E+00 0.  1.
         11    1    5    5    0    0  0.13520758940E+03  0.45060992627E+03  0.17932432175E+03  0.50347553094E+03  0.00000000000E+00 0.  1.
        -11    1    5    5    0    0 -0.12245298679E+02  0.15181000703E+02  0.12143924067E+02  0.22975748384E+02  0.00000000000E+00 0. -1.
          2    1    6    6  503    0 -0.16561548697E+03  0.32923861235E+02  0.85981932196E+03  0.87624296663E+03  0.00000000000E+00 0.  1.
         -2    1    6    6    0  503 -0.18251398834E+02 -0.30867899609E+02  0.16097043882E+03  0.16491641204E+03  0.00000000000E+00 0. -1.
<mgrwt>
<rscale>  0 0.16576025E+04</rscale>
<asrwt>0</asrwt>
<pdfrwt beam="1">  1        1 0.24968123E+00 0.16576025E+04</pdfrwt>
<pdfrwt beam="2">  1       -2 0.65116066E-01 0.16576025E+04</pdfrwt>
<totfact> 0.98090556E+00</totfact>
</mgrwt>
</event>
<event>
12    4  0.4207946E-008  0.2516737E+04  0.7818608E-02  0.8397047E-01
          1   -1    0    0  501    0  0.00000000000E+00  0.00000000000E+00  0.15685009984E+04  0.15685009984E+04  0.00000000000E+00 0. -1.
         -2   -1    0    0    0  501 -0.00000000000E+00 -0.00000000000E+00 -0.10095572088E+04  0.10095572088E+04  0.00000000000E+00 0.  1.
        -24    2    1    2    0    0  0.83190917867E+03  0.16368146074E+03 -0.46760694740E+03  0.97154296600E+03  0.79843442860E+02 0.  0.
        254    2    1    2    0    0 -0.83190917867E+03 -0.16368146074E+03  0.10265507370E+04  0.16065152412E+04  0.89901073545E+03 0.  0.
         23    2    4    4    0    0  0.60330796704E+02  0.10830502528E+03 -0.63971909091E+02  0.16850460463E+03  0.94507211874E+02 0.  0.
         23    2    4    4    0    0 -0.89223997538E+03 -0.27198648602E+03  0.10905226461E+04  0.14380106366E+04  0.92553374023E+02 0.  0.
          1    1    3    3  502    0  0.37088261975E+03  0.11092437201E+03 -0.19680757484E+03  0.43427106219E+03  0.00000000000E+00 0. -1.
         -2    1    3    3    0  502  0.46102655893E+03  0.52757088730E+02 -0.27079937256E+03  0.53727190381E+03  0.00000000000E+00 0.  1.
         11    1    5    5    0    0 -0.25676380629E+02  0.19397746981E+02 -0.13937598324E+02  0.35068586472E+02  0.00000000000E+00 0.  1.
        -11    1    5    5    0    0  0.86007177333E+02  0.88907278300E+02 -0.50034310768E+02  0.13343601816E+03  0.00000000000E+00 0. -1.
          1    1    6    6  503    0 -0.64403730104E+03 -0.17220586819E+03  0.72308240945E+03  0.98350753786E+03  0.00000000000E+00 0. -1.
         -1    1    6    6    0  503 -0.24820267433E+03 -0.99780617831E+02  0.36744023667E+03  0.45450309874E+03  0.00000000000E+00 0.  1.
<mgrwt>
<rscale>  0 0.25167372E+04</rscale>
<asrwt>0</asrwt>
<pdfrwt beam="1">  1        1 0.24130785E+00 0.25167372E+04</pdfrwt>
<pdfrwt beam="2">  1       -2 0.15531649E+00 0.25167372E+04</pdfrwt>
<totfact> 0.12477165E+00</totfact>
</mgrwt>
</event>
<event>
12    4  0.4207946E-008  0.1612617E+04  0.7818608E-02  0.8812834E-01
          1   -1    0    0  501    0  0.00000000000E+00  0.00000000000E+00  0.75997120054E+03  0.75997120054E+03  0.00000000000E+00 0. -1.
         -2   -1    0    0    0  501 -0.00000000000E+00 -0.00000000000E+00 -0.85547075442E+03  0.85547075442E+03  0.00000000000E+00 0.  1.
        -24    2    1    2    0    0  0.33073995816E+03  0.41693931160E+03 -0.19835620832E+03  0.57350775715E+03  0.79615655830E+02 0.  0.
        254    2    1    2    0    0 -0.33073995816E+03 -0.41693931160E+03  0.10285665444E+03  0.10419341978E+04  0.88984272303E+03 0.  0.
         23    2    4    4    0    0 -0.36218687151E+03  0.19240195803E+03  0.48827124843E+02  0.42254289367E+03  0.89222001333E+02 0.  0.
         23    2    4    4    0    0  0.31446913350E+02 -0.60934126963E+03  0.54029529596E+02  0.61939130414E+03  0.91873316819E+02 0.  0.
          3    1    3    3  502    0  0.20461207016E+03  0.22853122975E+03 -0.15095482944E+03  0.34187714571E+03  0.00000000000E+00 0. -1.
         -4    1    3    3    0  502  0.12612788800E+03  0.18840808185E+03 -0.47401378879E+02  0.23163061145E+03  0.00000000000E+00 0.  1.
         11    1    5    5    0    0 -0.34569528031E+03  0.15550849028E+03  0.48307626687E+02  0.38212791598E+03  0.00000000000E+00 0. -1.
        -11    1    5    5    0    0 -0.16491591198E+02  0.36893467750E+02  0.51949815517E+00  0.40414977684E+02  0.00000000000E+00 0.  1.
          4    1    6    6  503    0  0.25929597307E+01 -0.21466532556E+03 -0.24079235321E+02  0.21602716267E+03  0.00000000000E+00 0. -1.
         -4    1    6    6    0  503  0.28853953619E+02 -0.39467594407E+03  0.78108764917E+02  0.40336414147E+03  0.00000000000E+00 0.  1.
<mgrwt>
<rscale>  0 0.16126167E+04</rscale>
<asrwt>0</asrwt>
<pdfrwt beam="1">  1        1 0.11691865E+00 0.16126167E+04</pdfrwt>
<pdfrwt beam="2">  1       -2 0.13161089E+00 0.16126167E+04</pdfrwt>
<totfact> 0.84755017E+00</totfact>
</mgrwt>
</event>
<event>
12    4  0.4207946E-008  0.1324348E+04  0.7818608E-02  0.9010477E-01
         -2   -1    0    0    0  501 -0.00000000000E+00  0.00000000000E+00  0.53933946827E+03  0.53933946827E+03  0.00000000000E+00 0.  1.
          1   -1    0    0  501    0  0.00000000000E+00 -0.00000000000E+00 -0.81298409130E+03  0.81298409130E+03  0.00000000000E+00 0. -1.
        -24    2    1    2    0    0  0.30240880292E+03 -0.39870259997E+02  0.78757709039E+02  0.33287865798E+03  0.10753930674E+03 0.  0.
        254    2    1    2    0    0 -0.30240880292E+03  0.39870259997E+02 -0.35240233208E+03  0.10194449016E+04  0.90666409546E+03 0.  0.
         23    2    4    4    0    0 -0.45730088473E+03  0.35742649342E+03 -0.17298106628E+03  0.61242503350E+03  0.90907507914E+02 0.  0.
         23    2    4    4    0    0  0.15489208182E+03 -0.31755623342E+03 -0.17942126580E+03  0.40701986808E+03  0.92949792896E+02 0.  0.
          3    1    3    3  502    0  0.16176308898E+03  0.63354587514E+01 -0.65458854911E+01  0.16201939270E+03  0.00000000000E+00 0. -1.
         -4    1    3    3    0  502  0.14064571394E+03 -0.46205718748E+02  0.85303594530E+02  0.17085926529E+03  0.00000000000E+00 0.  1.
         11    1    5    5    0    0 -0.26580707633E+03  0.23913163099E+03 -0.14411850065E+03  0.38549640854E+03  0.00000000000E+00 0. -1.
        -11    1    5    5    0    0 -0.19149380840E+03  0.11829486243E+03 -0.28862565631E+02  0.22692862496E+03  0.00000000000E+00 0.  1.
          4    1    6    6  503    0  0.14041620090E+03 -0.22915238316E+03 -0.16743137180E+03  0.31663984027E+03  0.00000000000E+00 0.  1.
         -4    1    6    6    0  503  0.14475880920E+02 -0.88403850265E+02 -0.11989893996E+02  0.90380027817E+02  0.00000000000E+00 0. -1.
<mgrwt>
<rscale>  0 0.13243480E+04</rscale>
<asrwt>0</asrwt>
<pdfrwt beam="1">  1        1 0.12507448E+00 0.13243480E+04</pdfrwt>
<pdfrwt beam="2">  1       -2 0.82975302E-01 0.13243480E+04</pdfrwt>
<totfact> 0.23563175E+01</totfact>
</mgrwt>
</event>
<event>
12    4  0.4207946E-008  0.1624056E+04  0.7818608E-02  0.8805904E-01
         -2   -1    0    0    0  501 -0.00000000000E+00  0.00000000000E+00  0.91052690076E+03  0.91052690076E+03  0.00000000000E+00 0.  1.
          1   -1    0    0  501    0  0.00000000000E+00 -0.00000000000E+00 -0.72418458576E+03  0.72418458576E+03  0.00000000000E+00 0. -1.
        -24    2    1    2    0    0 -0.20321906468E+03 -0.53589823130E+02  0.57644098003E+03  0.62273612806E+03  0.10651865721E+03 0.  0.
        254    2    1    2    0    0  0.20321906468E+03  0.53589823130E+02 -0.39009866503E+03  0.10119753585E+04  0.90980618831E+03 0.  0.
         23    2    4    4    0    0 -0.12847269120E+03 -0.20217068900E+03  0.16973703130E+03  0.30569442591E+03  0.85206821095E+02 0.  0.
         23    2    4    4    0    0  0.33169175587E+03  0.25576051213E+03 -0.55983569633E+03  0.70628093256E+03  0.99919409200E+02 0.  0.
          3    1    3    3  502    0 -0.41642972250E+02 -0.27779929667E+01  0.32100518026E+02  0.52652612853E+02  0.00000000000E+00 0. -1.
         -4    1    3    3    0  502 -0.16157609242E+03 -0.50811830163E+02  0.54434046201E+03  0.57008351520E+03  0.00000000000E+00 0.  1.
         11    1    5    5    0    0 -0.37439918803E+02 -0.13672789734E+03  0.86621518002E+02  0.16613113137E+03  0.00000000000E+00 0.  1.
        -11    1    5    5    0    0 -0.91032772393E+02 -0.65442791666E+02  0.83115513295E+02  0.13956329453E+03  0.00000000000E+00 0. -1.
          3    1    6    6  503    0  0.15239710373E+03  0.60113091140E+02 -0.24176681543E+03  0.29204392477E+03  0.00000000000E+00 0. -1.
         -3    1    6    6    0  503  0.17929465214E+03  0.19564742099E+03 -0.31806888090E+03  0.41423700780E+03  0.00000000000E+00 0.  1.
<mgrwt>
<rscale>  0 0.16240561E+04</rscale>
<asrwt>0</asrwt>
<pdfrwt beam="1">  1        1 0.11141301E+00 0.16240561E+04</pdfrwt>
<pdfrwt beam="2">  1       -2 0.14008106E+00 0.16240561E+04</pdfrwt>
<totfact> 0.77744861E+00</totfact>
</mgrwt>
</event>
<event>
12    4  0.4207946E-008  0.1529613E+04  0.7818608E-02  0.8864996E-01
          1   -1    0    0  501    0  0.00000000000E+00  0.00000000000E+00  0.33446218249E+04  0.33446218249E+04  0.00000000000E+00 0. -1.
         -2   -1    0    0    0  501 -0.00000000000E+00 -0.00000000000E+00 -0.17488639110E+03  0.17488639110E+03  0.00000000000E+00 0.  1.
        -24    2    1    2    0    0  0.17163578116E+03 -0.14146703102E+03  0.18619820942E+02  0.23659788997E+03  0.78486314519E+02 0.  0.
        254    2    1    2    0    0 -0.17163578116E+03  0.14146703102E+03  0.31511156128E+04  0.32829103260E+04  0.89358762350E+03 0.  0.
         23    2    4    4    0    0 -0.26128290640E+02  0.33807502943E+03  0.28988769257E+04  0.29200631884E+04  0.91127277992E+02 0.  0.
         23    2    4    4    0    0 -0.14550749052E+03 -0.19660799841E+03  0.25223868716E+03  0.36284713763E+03  0.90590038906E+02 0.  0.
          3    1    3    3  502    0 -0.12151471014E+01 -0.28897252795E+02  0.81869277126E+01  0.30059168101E+02  0.00000000000E+00 0. -1.
         -4    1    3    3    0  502  0.17285092826E+03 -0.11256977823E+03  0.10432893230E+02  0.20653872187E+03  0.00000000000E+00 0.  1.
         11    1    5    5    0    0 -0.46714828858E+01  0.27813374328E+02  0.98146875738E+02  0.10211863572E+03  0.00000000000E+00 0. -1.
        -11    1    5    5    0    0 -0.21456807754E+02  0.31026165510E+03  0.28007300499E+04  0.28179445526E+04  0.00000000000E+00 0.  1.
          3    1    6    6  503    0 -0.83857002795E+01 -0.79796527131E+02  0.87910420013E+02  0.11902120676E+03  0.00000000000E+00 0. -1.
         -3    1    6    6    0  503 -0.13712179024E+03 -0.11681147128E+03  0.16432826715E+03  0.24382593087E+03  0.00000000000E+00 0.  1.
<mgrwt>
<rscale>  0 0.15296128E+04</rscale>
<asrwt>0</asrwt>
<pdfrwt beam="1">  1        1 0.51455716E+00 0.15296128E+04</pdfrwt>
<pdfrwt beam="2">  1       -2 0.26905601E-01 0.15296128E+04</pdfrwt>
<totfact> 0.35423349E+00</totfact>
</mgrwt>
</event>
<event>
12    4  0.4207946E-008  0.2241400E+04  0.7818608E-02  0.8501391E-01
          1   -1    0    0  501    0  0.00000000000E+00  0.00000000000E+00  0.10883812176E+04  0.10883812176E+04  0.00000000000E+00 0. -1.
         -2   -1    0    0    0  501 -0.00000000000E+00 -0.00000000000E+00 -0.11539788113E+04  0.11539788113E+04  0.00000000000E+00 0.  1.
        -24    2    1    2    0    0  0.72718834536E+02  0.41972030912E+03  0.81037410152E+03  0.91866031390E+03  0.76009348961E+02 0.  0.
        254    2    1    2    0    0 -0.72718834536E+02 -0.41972030912E+03 -0.87597169515E+03  0.13236997150E+04  0.89632659116E+03 0.  0.
         23    2    4    4    0    0  0.91968176042E+02 -0.66788617596E+03 -0.58400525961E+03  0.89668959440E+03  0.91978236621E+02 0.  0.
         23    2    4    4    0    0 -0.16468701058E+03  0.24816586684E+03 -0.29196643554E+03  0.42701012061E+03  0.91570381139E+02 0.  0.
          1    1    3    3  502    0  0.47230082798E+02  0.30347612447E+03  0.65046395324E+03  0.71932732001E+03  0.00000000000E+00 0. -1.
         -2    1    3    3    0  502  0.25488751738E+02  0.11624418465E+03  0.15991014828E+03  0.19933299389E+03  0.00000000000E+00 0.  1.
         11    1    5    5    0    0  0.36793272489E+02 -0.42294692309E+03 -0.41739018343E+03  0.59535905962E+03  0.00000000000E+00 0.  1.
        -11    1    5    5    0    0  0.55174903554E+02 -0.24493925287E+03 -0.16661507618E+03  0.30133053477E+03  0.00000000000E+00 0. -1.
          1    1    6    6  503    0 -0.12704909684E+03  0.11196021055E+03 -0.17563332391E+03  0.24397464258E+03  0.00000000000E+00 0. -1.
         -1    1    6    6    0  503 -0.37637913738E+02  0.13620565628E+03 -0.11633311163E+03  0.18303547803E+03  0.00000000000E+00 0.  1.
<mgrwt>
<rscale>  0 0.22414003E+04</rscale>
<asrwt>0</asrwt>
<pdfrwt beam="1">  1        1 0.16744326E+00 0.22414003E+04</pdfrwt>
<pdfrwt beam="2">  1       -2 0.17753520E+00 0.22414003E+04</pdfrwt>
<totfact> 0.19441048E+00</totfact>
</mgrwt>
</event>
<event>
12    4  0.4207946E-008  0.1602440E+04  0.7818608E-02  0.8819050E-01
         -2   -1    0    0    0  501 -0.00000000000E+00  0.00000000000E+00  0.49935571250E+03  0.49935571250E+03  0.00000000000E+00 0.  1.
          1   -1    0    0  501    0  0.00000000000E+00 -0.00000000000E+00 -0.12855635365E+04  0.12855635365E+04  0.00000000000E+00 0. -1.
        -24    2    1    2    0    0 -0.37665857075E+02  0.49988933306E+03 -0.51217564635E+03  0.72096689576E+03  0.78494012287E+02 0.  0.
        254    2    1    2    0    0  0.37665857075E+02 -0.49988933306E+03 -0.27403217768E+03  0.10639523533E+04  0.89754827922E+03 0.  0.
         23    2    4    4    0    0  0.70466587359E+02  0.10016914797E+03 -0.41244172959E+03  0.44003503055E+03  0.92321447468E+02 0.  0.
         23    2    4    4    0    0 -0.32800730285E+02 -0.60005848103E+03  0.13840955191E+03  0.62391732272E+03  0.94707723893E+02 0.  0.
          1    1    3    3  502    0 -0.14349877431E+02  0.46177558503E+03 -0.45535872321E+03  0.64868650111E+03  0.00000000000E+00 0. -1.
         -2    1    3    3    0  502 -0.23315979644E+02  0.38113748026E+02 -0.56816923143E+02  0.72280394650E+02  0.00000000000E+00 0.  1.
         11    1    5    5    0    0  0.48079138533E+02  0.19631742473E+02 -0.67817822960E+02  0.85418182992E+02  0.00000000000E+00 0. -1.
        -11    1    5    5    0    0  0.22387448826E+02  0.80537405500E+02 -0.34462390663E+03  0.35461684756E+03  0.00000000000E+00 0.  1.
          3    1    6    6  503    0 -0.24157172261E+02 -0.26313877711E+03  0.13857136740E+02  0.26460839977E+03  0.00000000000E+00 0. -1.
         -3    1    6    6    0  503 -0.86435580233E+01 -0.33691970393E+03  0.12455241517E+03  0.35930892295E+03  0.00000000000E+00 0.  1.
<mgrwt>
<rscale>  0 0.16024400E+04</rscale>
<asrwt>0</asrwt>
<pdfrwt beam="1">  1        1 0.19777901E+00 0.16024400E+04</pdfrwt>
<pdfrwt beam="2">  1       -2 0.76823956E-01 0.16024400E+04</pdfrwt>
<totfact> 0.11800277E+01</totfact>
</mgrwt>
</event>
<event>
12    4  0.4207946E-008  0.3602695E+04  0.7818608E-02  0.8089875E-01
         -2   -1    0    0    0  501 -0.00000000000E+00  0.00000000000E+00  0.96578033957E+03  0.96578033957E+03  0.00000000000E+00 0.  1.
          1   -1    0    0  501    0  0.00000000000E+00 -0.00000000000E+00 -0.33598255987E+04  0.33598255987E+04  0.00000000000E+00 0. -1.
        -24    2    1    2    0    0  0.15626104996E+03  0.93228072214E+03 -0.27936834713E+04  0.29504507302E+04  0.83230482716E+02 0.  0.
        254    2    1    2    0    0 -0.15626104996E+03 -0.93228072214E+03  0.39963821213E+03  0.13751552080E+04  0.91530119905E+03 0.  0.
         23    2    4    4    0    0 -0.42952453169E+03 -0.85637000615E+03  0.46567695791E+03  0.10694303648E+04  0.94685613157E+02 0.  0.
         23    2    4    4    0    0  0.27326348173E+03 -0.75910715994E+02 -0.66038745778E+02  0.30572484321E+03  0.93119259899E+02 0.  0.
          3    1    3    3  502    0  0.15015855965E+03  0.90472260360E+03 -0.26552112285E+04  0.28091310490E+04  0.00000000000E+00 0. -1.
         -4    1    3    3    0  502  0.61024903139E+01  0.27558118547E+02 -0.13847224275E+03  0.14131968122E+03  0.00000000000E+00 0.  1.
         11    1    5    5    0    0 -0.29317452019E+03 -0.67374565699E+03  0.35955399792E+03  0.81802419709E+03  0.00000000000E+00 0. -1.
        -11    1    5    5    0    0 -0.13635001150E+03 -0.18262434916E+03  0.10612296000E+03  0.25140616774E+03  0.00000000000E+00 0.  1.
          1    1    6    6  503    0  0.10664237642E+03  0.14438853604E+02 -0.37968487170E+02  0.11411697051E+03  0.00000000000E+00 0. -1.
         -1    1    6    6    0  503  0.16662110531E+03 -0.90349569598E+02 -0.28070258608E+02  0.19160787270E+03  0.00000000000E+00 0.  1.
<mgrwt>
<rscale>  0 0.36026954E+04</rscale>
<asrwt>0</asrwt>
<pdfrwt beam="1">  1        1 0.51689625E+00 0.36026954E+04</pdfrwt>
<pdfrwt beam="2">  1       -2 0.14858159E+00 0.36026954E+04</pdfrwt>
<totfact> 0.70264871E-02</totfact>
</mgrwt>
</event>
<event>
12    4  0.4207946E-008  0.1417271E+04  0.7818608E-02  0.8941411E-01
         -2   -1    0    0    0  501 -0.00000000000E+00  0.00000000000E+00  0.15375923322E+04  0.15375923322E+04  0.00000000000E+00 0.  1.
          1   -1    0    0  501    0  0.00000000000E+00 -0.00000000000E+00 -0.32659122069E+03  0.32659122069E+03  0.00000000000E+00 0. -1.
        -24    2    1    2    0    0 -0.30784477612E+03 -0.22431719448E+03  0.12903112871E+03  0.40993860390E+03  0.79460788257E+02 0.  0.
        254    2    1    2    0    0  0.30784477612E+03  0.22431719448E+03  0.10819699828E+04  0.14542449490E+04  0.89391426770E+03 0.  0.
         23    2    4    4    0    0  0.61394700291E+03  0.18074677991E+03  0.77321846183E+03  0.10078900654E+04  0.91516519839E+02 0.  0.
         23    2    4    4    0    0 -0.30610222680E+03  0.43570414572E+02  0.30875152094E+03  0.44635488354E+03  0.91149471206E+02 0.  0.
          3    1    3    3  502    0 -0.30460134010E+03 -0.20617642941E+03  0.13292972973E+03  0.39110230053E+03  0.00000000000E+00 0. -1.
         -4    1    3    3    0  502 -0.32434360169E+01 -0.18140765071E+02 -0.38986010288E+01  0.18836303367E+02  0.00000000000E+00 0.  1.
         11    1    5    5    0    0  0.19591639449E+03  0.18520044980E+02  0.20685307211E+03  0.28550730137E+03  0.00000000000E+00 0.  1.
        -11    1    5    5    0    0  0.41803060842E+03  0.16222673493E+03  0.56636538972E+03  0.72238276404E+03  0.00000000000E+00 0. -1.
          2    1    6    6  503    0 -0.30880131819E+03  0.32065753400E+02  0.29905376557E+03  0.43106800086E+03  0.00000000000E+00 0. -1.
         -2    1    6    6    0  503  0.26990913954E+01  0.11504661172E+02  0.96977553698E+01  0.15286882686E+02  0.00000000000E+00 0.  1.
<mgrwt>
<rscale>  0 0.14172708E+04</rscale>
<asrwt>0</asrwt>
<pdfrwt beam="1">  1        1 0.50244804E-01 0.14172708E+04</pdfrwt>
<pdfrwt beam="2">  1       -2 0.23655266E+00 0.14172708E+04</pdfrwt>
<totfact> 0.51929807E+00</totfact>
</mgrwt>
</event>
<event>
12    4  0.4207946E-008  0.1872130E+04  0.7818608E-02  0.8668855E-01
          1   -1    0    0  501    0  0.00000000000E+00  0.00000000000E+00  0.58589787485E+03  0.58589787485E+03  0.00000000000E+00 0. -1.
         -2   -1    0    0    0  501 -0.00000000000E+00 -0.00000000000E+00 -0.14955130282E+04  0.14955130282E+04  0.00000000000E+00 0.  1.
        -24    2    1    2    0    0  0.22965784248E+03 -0.93558424649E+02  0.39790024672E+03  0.47559143884E+03  0.79791646961E+02 0.  0.
        254    2    1    2    0    0 -0.22965784248E+03  0.93558424649E+02 -0.13075154001E+04  0.16058194642E+04  0.89864549562E+03 0.  0.
         23    2    4    4    0    0  0.18551190347E+03 -0.14674517587E+03 -0.99238878529E+03  0.10244197976E+04  0.93014017983E+02 0.  0.
         23    2    4    4    0    0 -0.41516974595E+03  0.24030360052E+03 -0.31512661479E+03  0.58139966664E+03  0.92784969929E+02 0.  0.
          1    1    3    3  502    0  0.15722566945E+03 -0.74123847840E+02  0.33620423661E+03  0.37848057370E+03  0.00000000000E+00 0. -1.
         -2    1    3    3    0  502  0.72432173028E+02 -0.19434576809E+02  0.61696010111E+02  0.97110865143E+02  0.00000000000E+00 0.  1.
         11    1    5    5    0    0  0.66166721348E+02 -0.15205763838E+02 -0.40889288411E+03  0.41449082131E+03  0.00000000000E+00 0.  1.
        -11    1    5    5    0    0  0.11934518212E+03 -0.13153941203E+03 -0.58349590117E+03  0.60992897628E+03  0.00000000000E+00 0. -1.
          3    1    6    6  503    0 -0.27808123840E+03  0.20859509432E+03 -0.21565198313E+03  0.40908051328E+03  0.00000000000E+00 0. -1.
         -3    1    6    6    0  503 -0.13708850755E+03  0.31708506201E+02 -0.99474631661E+02  0.17231915335E+03  0.00000000000E+00 0.  1.
<mgrwt>
<rscale>  0 0.18721302E+04</rscale>
<asrwt>0</asrwt>
<pdfrwt beam="1">  1        1 0.90138136E-01 0.18721302E+04</pdfrwt>
<pdfrwt beam="2">  1       -2 0.23007892E+00 0.18721302E+04</pdfrwt>
<totfact> 0.24841056E+00</totfact>
</mgrwt>
</event>
<event>
12    4  0.4207946E-008  0.1556017E+04  0.7818608E-02  0.8848034E-01
          1   -1    0    0  501    0  0.00000000000E+00  0.00000000000E+00  0.57270520523E+03  0.57270520523E+03  0.00000000000E+00 0. -1.
         -2   -1    0    0    0  501 -0.00000000000E+00 -0.00000000000E+00 -0.10569087080E+04  0.10569087080E+04  0.00000000000E+00 0.  1.
        -24    2    1    2    0    0  0.83218412449E+02 -0.43517699427E+03 -0.42544900250E+03  0.61923176479E+03  0.78337757684E+02 0.  0.
        254    2    1    2    0    0 -0.83218412449E+02  0.43517699427E+03 -0.58754500234E+02  0.10103821484E+04  0.90615433233E+03 0.  0.
         23    2    4    4    0    0 -0.51775081297E+00 -0.27369297064E+03 -0.32164842207E+02  0.29041539606E+03  0.91642866333E+02 0.  0.
         23    2    4    4    0    0 -0.82700661636E+02  0.70886996491E+03 -0.26589658028E+02  0.71996675234E+03  0.91154198901E+02 0.  0.
          3    1    3    3  502    0  0.37657127253E+02 -0.75412866176E+02 -0.11007114930E+03  0.13863916303E+03  0.00000000000E+00 0. -1.
         -4    1    3    3    0  502  0.45561285196E+02 -0.35976412810E+03 -0.31537785320E+03  0.48059260176E+03  0.00000000000E+00 0.  1.
         11    1    5    5    0    0  0.40484801250E+02 -0.19157001396E+03 -0.10381915340E+02  0.19607619322E+03  0.00000000000E+00 0.  1.
        -11    1    5    5    0    0 -0.41002552062E+02 -0.82122956674E+02 -0.21782926866E+02  0.94339202835E+02  0.00000000000E+00 0. -1.
          3    1    6    6  503    0 -0.39034089989E+01  0.15190659441E+03 -0.40584224157E+02  0.15728295927E+03  0.00000000000E+00 0. -1.
         -3    1    6    6    0  503 -0.78797252637E+02  0.55696337050E+03  0.13994566129E+02  0.56268379307E+03  0.00000000000E+00 0.  1.
<mgrwt>
<rscale>  0 0.15560169E+04</rscale>
<asrwt>0</asrwt>
<pdfrwt beam="1">  1        1 0.88108495E-01 0.15560169E+04</pdfrwt>
<pdfrwt beam="2">  1       -2 0.16260134E+00 0.15560169E+04</pdfrwt>
<totfact> 0.74315151E+00</totfact>
</mgrwt>
</event>
<event>
12    4  0.4207946E-008  0.1784788E+04  0.7818608E-02  0.8714431E-01
          3   -1    0    0  501    0  0.00000000000E+00  0.00000000000E+00  0.23819087876E+04  0.23819087876E+04  0.00000000000E+00 0. -1.
         -2   -1    0    0    0  501 -0.00000000000E+00 -0.00000000000E+00 -0.33433993257E+03  0.33433993257E+03  0.00000000000E+00 0.  1.
        -24    2    1    2    0    0 -0.16141568649E+03 -0.14179299552E+03 -0.20023367100E+03  0.30420986865E+03  0.79308535214E+02 0.  0.
        254    2    1    2    0    0  0.16141568649E+03  0.14179299552E+03  0.22478025260E+04  0.24120388515E+04  0.84803003947E+03 0.  0.
         23    2    4    4    0    0  0.23791415826E+03 -0.24409817953E+03  0.46856787212E+03  0.58727244959E+03  0.95634780874E+02 0.  0.
         23    2    4    4    0    0 -0.76498471770E+02  0.38589117505E+03  0.17792346539E+04  0.18247664019E+04  0.96604621047E+02 0.  0.
          3    1    3    3  502    0 -0.21614216747E+02  0.89007872763E+01 -0.17934235375E+02  0.29462436732E+02  0.00000000000E+00 0. -1.
         -4    1    3    3    0  502 -0.13980146974E+03 -0.15069378279E+03 -0.18229943563E+03  0.27474743192E+03  0.00000000000E+00 0.  1.
         11    1    5    5    0    0  0.12626102114E+03 -0.19010033674E+03  0.33105787389E+03  0.40209364501E+03  0.00000000000E+00 0.  1.
        -11    1    5    5    0    0  0.11165313712E+03 -0.53997842791E+02  0.13750999823E+03  0.18517880459E+03  0.00000000000E+00 0. -1.
          2    1    6    6  503    0 -0.38374223785E+01  0.18929867288E+03  0.68750610388E+03  0.71310122440E+03  0.00000000000E+00 0. -1.
         -2    1    6    6    0  503 -0.72661049391E+02  0.19659250217E+03  0.10917285500E+04  0.11116651775E+04  0.00000000000E+00 0.  1.
<mgrwt>
<rscale>  0 0.17847882E+04</rscale>
<asrwt>0</asrwt>
<pdfrwt beam="1">  1        3 0.36644750E+00 0.17847882E+04</pdfrwt>
<pdfrwt beam="2">  1       -2 0.51436914E-01 0.17847882E+04</pdfrwt>
<totfact> 0.23173719E-01</totfact>
</mgrwt>
</event>
<event>
12    4  0.4207946E-008  0.1817122E+04  0.7818608E-02  0.8697247E-01
         -2   -1    0    0    0  501 -0.00000000000E+00  0.00000000000E+00  0.82770231813E+03  0.82770231813E+03  0.00000000000E+00 0.  1.
          1   -1    0    0  501    0  0.00000000000E+00 -0.00000000000E+00 -0.99731893504E+03  0.99731893504E+03  0.00000000000E+00 0. -1.
        -24    2    1    2    0    0  0.50377051362E+02  0.21760752977E+02 -0.74711101597E+03  0.75334000175E+03  0.79592150257E+02 0.  0.
        254    2    1    2    0    0 -0.50377051362E+02 -0.21760752977E+02  0.57749439905E+03  0.10716812514E+04  0.90110462546E+03 0.  0.
         23    2    4    4    0    0 -0.41266896005E+03 -0.11170751558E+03  0.81256988648E+02  0.44437055480E+03  0.89934710447E+02 0.  0.
         23    2    4    4    0    0  0.36229190869E+03  0.89946762608E+02  0.49623741040E+03  0.62731069661E+03  0.89001659508E+02 0.  0.
          3    1    3    3  502    0  0.19216431018E+02  0.23594830885E+02 -0.66177502742E+03  0.66247428191E+03  0.00000000000E+00 0. -1.
         -4    1    3    3    0  502  0.31160620344E+02 -0.18340779086E+01 -0.85335988547E+02  0.90865719847E+02  0.00000000000E+00 0.  1.
         11    1    5    5    0    0 -0.38273687533E+03 -0.96726995354E+02  0.98278252375E+02  0.40681966798E+03  0.00000000000E+00 0. -1.
        -11    1    5    5    0    0 -0.29932084726E+02 -0.14980520231E+02 -0.17021263727E+02  0.37550886824E+02  0.00000000000E+00 0.  1.
          4    1    6    6  503    0  0.24202572693E+03  0.64758338645E+02  0.26024029575E+03  0.36124106418E+03  0.00000000000E+00 0. -1.
         -4    1    6    6    0  503  0.12026618176E+03  0.25188423964E+02  0.23599711465E+03  0.26606963243E+03  0.00000000000E+00 0.  1.
<mgrwt>
<rscale>  0 0.18171221E+04</rscale>
<asrwt>0</asrwt>
<pdfrwt beam="1">  1        1 0.15343368E+00 0.18171221E+04</pdfrwt>
<pdfrwt beam="2">  1       -2 0.12733882E+00 0.18171221E+04</pdfrwt>
<totfact> 0.57467591E+00</totfact>
</mgrwt>
</event>
<event>
12    4  0.4207946E-008  0.1608180E+04  0.7818608E-02  0.8815538E-01
         -2   -1    0    0    0  501 -0.00000000000E+00  0.00000000000E+00  0.49865347916E+03  0.49865347916E+03  0.00000000000E+00 0.  1.
          1   -1    0    0  501    0  0.00000000000E+00 -0.00000000000E+00 -0.12966134113E+04  0.12966134113E+04  0.00000000000E+00 0. -1.
        -24    2    1    2    0    0  0.22063662595E+03 -0.29421921560E+03 -0.72322837655E+03  0.81790769943E+03  0.10328723346E+03 0.  0.
        254    2    1    2    0    0 -0.22063662595E+03  0.29421921560E+03 -0.74731555595E+02  0.97735919104E+03  0.90244153017E+03 0.  0.
         23    2    4    4    0    0 -0.19489090478E+03 -0.30154861261E+03 -0.46786224996E+02  0.37339969792E+03  0.91237892464E+02 0.  0.
         23    2    4    4    0    0 -0.25745721172E+02  0.59576782821E+03 -0.27945330599E+02  0.60395949312E+03  0.91564078854E+02 0.  0.
          1    1    3    3  502    0  0.22530897969E+03 -0.29953333009E+03 -0.71215601939E+03  0.80476738758E+03  0.00000000000E+00 0. -1.
         -2    1    3    3    0  502 -0.46723537431E+01  0.53141144867E+01 -0.11072357161E+02  0.13140311845E+02  0.00000000000E+00 0.  1.
         11    1    5    5    0    0 -0.38462423290E+02 -0.14140316047E+03 -0.15536141348E+02  0.14736208293E+03  0.00000000000E+00 0.  1.
        -11    1    5    5    0    0 -0.15642848149E+03 -0.16014545214E+03 -0.31250083648E+02  0.22603761499E+03  0.00000000000E+00 0. -1.
          2    1    6    6  503    0  0.10659598772E+02  0.45699397972E+03 -0.45693065013E+02  0.45939632208E+03  0.00000000000E+00 0. -1.
         -2    1    6    6    0  503 -0.36405319944E+02  0.13877384849E+03  0.17747734414E+02  0.14456317104E+03  0.00000000000E+00 0.  1.
<mgrwt>
<rscale>  0 0.16081801E+04</rscale>
<asrwt>0</asrwt>
<pdfrwt beam="1">  1        1 0.19947899E+00 0.16081801E+04</pdfrwt>
<pdfrwt beam="2">  1       -2 0.76715920E-01 0.16081801E+04</pdfrwt>
<totfact> 0.11618132E+01</totfact>
</mgrwt>
</event>
<event>
12    4  0.4207946E-008  0.1366306E+04  0.7818608E-02  0.8978576E-01
          1   -1    0    0  501    0  0.00000000000E+00  0.00000000000E+00  0.90030736920E+03  0.90030736920E+03  0.00000000000E+00 0. -1.
         -2   -1    0    0    0  501 -0.00000000000E+00 -0.00000000000E+00 -0.51837646444E+03  0.51837646444E+03  0.00000000000E+00 0.  1.
        -24    2    1    2    0    0 -0.90872349315E+02 -0.24797335716E+03 -0.17401729717E+03  0.32577941032E+03  0.78112961417E+02 0.  0.
        254    2    1    2    0    0  0.90872349315E+02  0.24797335716E+03  0.55594820192E+03  0.10929044233E+04  0.90311300819E+03 0.  0.
         23    2    4    4    0    0 -0.30966419673E+03 -0.87641563655E+02  0.43651069108E+03  0.54923421880E+03  0.86854391125E+02 0.  0.
         23    2    4    4    0    0  0.40053654605E+03  0.33561492081E+03  0.11943751085E+03  0.54367020452E+03  0.90802381553E+02 0.  0.
          1    1    3    3  502    0 -0.22147433853E+02 -0.21259801674E+02 -0.49240677904E+02  0.58026996768E+02  0.00000000000E+00 0. -1.
         -2    1    3    3    0  502 -0.68724915462E+02 -0.22671355548E+03 -0.12477661927E+03  0.26775241355E+03  0.00000000000E+00 0.  1.
         11    1    5    5    0    0  0.49777898622E+01 -0.68425591278E+01  0.12261864143E+02  0.14898064290E+02  0.00000000000E+00 0.  1.
        -11    1    5    5    0    0 -0.31464198660E+03 -0.80799004527E+02  0.42424882694E+03  0.53433615451E+03  0.00000000000E+00 0. -1.
          2    1    6    6  503    0  0.21947423761E+03  0.15825483108E+03  0.10354656261E+03  0.28971610787E+03  0.00000000000E+00 0. -1.
         -2    1    6    6    0  503  0.18106230844E+03  0.17736008974E+03  0.15890948235E+02  0.25395409665E+03  0.00000000000E+00 0.  1.
<mgrwt>
<rscale>  0 0.13663062E+04</rscale>
<asrwt>0</asrwt>
<pdfrwt beam="1">  1        1 0.13850883E+00 0.13663062E+04</pdfrwt>
<pdfrwt beam="2">  1       -2 0.79750225E-01 0.13663062E+04</pdfrwt>
<totfact> 0.21692719E+01</totfact>
</mgrwt>
</event>
<event>
12    4  0.4207946E-008  0.1478541E+04  0.7818608E-02  0.8898849E-01
          1   -1    0    0  501    0  0.00000000000E+00  0.00000000000E+00  0.13593126859E+04  0.13593126859E+04  0.00000000000E+00 0. -1.
         -2   -1    0    0    0  501 -0.00000000000E+00 -0.00000000000E+00 -0.40205704065E+03  0.40205704065E+03  0.00000000000E+00 0.  1.
        -24    2    1    2    0    0  0.35836387709E+03 -0.28356508520E+03  0.38073864476E+03  0.60034900852E+03  0.81382986401E+02 0.  0.
        254    2    1    2    0    0 -0.35836387709E+03  0.28356508520E+03  0.57651700054E+03  0.11610207181E+04  0.89820010573E+03 0.  0.
         23    2    4    4    0    0  0.22437661078E+03  0.33650107432E+03  0.20925836961E+03  0.46389230383E+03  0.88482584816E+02 0.  0.
         23    2    4    4    0    0 -0.58274048787E+03 -0.52935989123E+02  0.36725863093E+03  0.69712841424E+03  0.93383236203E+02 0.  0.
          3    1    3    3  502    0  0.35131283474E+03 -0.26603224878E+03  0.37923993774E+03  0.58139211864E+03  0.00000000000E+00 0. -1.
         -4    1    3    3    0  502  0.70510423472E+01 -0.17532836422E+02  0.14987070193E+01  0.18956889880E+02  0.00000000000E+00 0.  1.
         11    1    5    5    0    0  0.16789381002E+01  0.55166186481E+02  0.26651399286E+02  0.61289673257E+02  0.00000000000E+00 0.  1.
        -11    1    5    5    0    0  0.22269767268E+03  0.28133488784E+03  0.18260697033E+03  0.40260263058E+03  0.00000000000E+00 0. -1.
          3    1    6    6  503    0 -0.35005837938E+03  0.64147804972E+01  0.24769907623E+03  0.42887859675E+03  0.00000000000E+00 0. -1.
         -3    1    6    6    0  503 -0.23268210849E+03 -0.59350769620E+02  0.11955955470E+03  0.26824981749E+03  0.00000000000E+00 0.  1.
<mgrwt>
<rscale>  0 0.14785415E+04</rscale>
<asrwt>0</asrwt>
<pdfrwt beam="1">  1        1 0.20912503E+00 0.14785415E+04</pdfrwt>
<pdfrwt beam="2">  1       -2 0.61854930E-01 0.14785415E+04</pdfrwt>
<totfact> 0.16939423E+01</totfact>
</mgrwt>
</event>
<event>
12    4  0.4207946E-008  0.1334030E+04  0.7818608E-02  0.9003006E-01
          1   -1    0    0  501    0  0.00000000000E+00  0.00000000000E+00  0.21655345443E+04  0.21655345443E+04  0.00000000000E+00 0. -1.
         -2   -1    0    0    0  501 -0.00000000000E+00 -0.00000000000E+00 -0.20544983637E+03  0.20544983637E+03  0.00000000000E+00 0.  1.
        -24    2    1    2    0    0 -0.18797042541E+03 -0.33788613748E+02  0.54328027244E+01  0.20699567808E+03  0.79643858208E+02 0.  0.
        254    2    1    2    0    0  0.18797042541E+03  0.33788613748E+02  0.19546519052E+04  0.21639887026E+04  0.90868502967E+03 0.  0.
         23    2    4    4    0    0  0.20197096309E+03 -0.10247088575E+03  0.45818660502E+02  0.24801410857E+03  0.90106026680E+02 0.  0.
         23    2    4    4    0    0 -0.14000537677E+02  0.13625949949E+03  0.19088332447E+04  0.19159745940E+04  0.92474983448E+02 0.  0.
          3    1    3    3  502    0 -0.12704829165E+02  0.65897662923E+01 -0.20787209269E+02  0.25237784631E+02  0.00000000000E+00 0. -1.
         -4    1    3    3    0  502 -0.17526559625E+03 -0.40378380040E+02  0.26220011993E+02  0.18175789345E+03  0.00000000000E+00 0.  1.
         11    1    5    5    0    0  0.19772042963E+03 -0.11591395725E+03  0.39533329585E+02  0.23257750950E+03  0.00000000000E+00 0.  1.
        -11    1    5    5    0    0  0.42505334614E+01  0.13443071504E+02  0.62853309172E+01  0.15436599072E+02  0.00000000000E+00 0. -1.
          3    1    6    6  503    0  0.23708391608E+02  0.11431528050E+02  0.14820900485E+03  0.15052799336E+03  0.00000000000E+00 0. -1.
         -3    1    6    6    0  503 -0.37708929285E+02  0.12482797144E+03  0.17606242398E+04  0.17654466006E+04  0.00000000000E+00 0.  1.
<mgrwt>
<rscale>  0 0.13340296E+04</rscale>
<asrwt>0</asrwt>
<pdfrwt beam="1">  1        1 0.33315914E+00 0.13340296E+04</pdfrwt>
<pdfrwt beam="2">  1       -2 0.31607669E-01 0.13340296E+04</pdfrwt>
<totfact> 0.18432881E+01</totfact>
</mgrwt>
</event>
<event>
12    4  0.4207946E-008  0.2428160E+04  0.7818608E-02  0.8429036E-01
         -2   -1    0    0    0  501 -0.00000000000E+00  0.00000000000E+00  0.14402445677E+04  0.14402445677E+04  0.00000000000E+00 0.  1.
          1   -1    0    0  501    0  0.00000000000E+00 -0.00000000000E+00 -0.10234305462E+04  0.10234305462E+04  0.00000000000E+00 0. -1.
        -24    2    1    2    0    0  0.31116258352E+03  0.82607315431E+02  0.11889725471E+04  0.12342666710E+04  0.78181683066E+02 0.  0.
        254    2    1    2    0    0 -0.31116258352E+03 -0.82607315431E+02 -0.77215852557E+03  0.12294084428E+04  0.90087191584E+03 0.  0.
         23    2    4    4    0    0  0.25780843931E+03  0.15101130613E+03 -0.38923483648E+03  0.49903236173E+03  0.90884179953E+02 0.  0.
         23    2    4    4    0    0 -0.56897102283E+03 -0.23361862156E+03 -0.38292368909E+03  0.73037608110E+03  0.92265827999E+02 0.  0.
          1    1    3    3  502    0  0.16111543416E+03  0.55432969724E+02  0.48769310370E+03  0.51660000063E+03  0.00000000000E+00 0. -1.
         -2    1    3    3    0  502  0.15004714935E+03  0.27174345706E+02  0.70127944337E+03  0.71766667039E+03  0.00000000000E+00 0.  1.
         11    1    5    5    0    0  0.23464773357E+03  0.97846421131E+02 -0.32114392324E+03  0.40959357958E+03  0.00000000000E+00 0. -1.
        -11    1    5    5    0    0  0.23160705746E+02  0.53164884997E+02 -0.68090913232E+02  0.89438782148E+02  0.00000000000E+00 0.  1.
          3    1    6    6  503    0 -0.24841007089E+03 -0.55701703759E+02 -0.17457672624E+03  0.30868637234E+03  0.00000000000E+00 0. -1.
         -3    1    6    6    0  503 -0.32056095194E+03 -0.17791691780E+03 -0.20834696285E+03  0.42168970877E+03  0.00000000000E+00 0.  1.
<mgrwt>
<rscale>  0 0.24281600E+04</rscale>
<asrwt>0</asrwt>
<pdfrwt beam="1">  1        1 0.15745085E+00 0.24281600E+04</pdfrwt>
<pdfrwt beam="2">  1       -2 0.22157609E+00 0.24281600E+04</pdfrwt>
<totfact> 0.10985491E+00</totfact>
</mgrwt>
</event>
<event>
12    4  0.4207946E-008  0.2473615E+04  0.7818608E-02  0.8412446E-01
         -2   -1    0    0    0  501 -0.00000000000E+00  0.00000000000E+00  0.16845955308E+04  0.16845955308E+04  0.00000000000E+00 0.  1.
          1   -1    0    0  501    0  0.00000000000E+00 -0.00000000000E+00 -0.90804738330E+03  0.90804738330E+03  0.00000000000E+00 0. -1.
        -24    2    1    2    0    0 -0.98881854064E+02 -0.76994384696E+03 -0.43220923218E+03  0.89205515587E+03  0.79789925424E+02 0.  0.
        254    2    1    2    0    0  0.98881854064E+02  0.76994384696E+03  0.12087573797E+04  0.17005877582E+04  0.91011711992E+03 0.  0.
         23    2    4    4    0    0 -0.35776112022E+03  0.43143594209E+03  0.84896171123E+03  0.10215131248E+04  0.92860571666E+02 0.  0.
         23    2    4    4    0    0  0.45664297428E+03  0.33850790487E+03  0.35979566847E+03  0.67907463343E+03  0.92623037585E+02 0.  0.
          1    1    3    3  502    0 -0.54429189071E+02 -0.59091937098E+03 -0.35923369055E+03  0.69368370606E+03  0.00000000000E+00 0. -1.
         -2    1    3    3    0  502 -0.44452664994E+02 -0.17902447598E+03 -0.72975541628E+02  0.19837144982E+03  0.00000000000E+00 0.  1.
         11    1    5    5    0    0 -0.26802799019E+02  0.84443389120E+02  0.13304678405E+03  0.15984530881E+03  0.00000000000E+00 0. -1.
        -11    1    5    5    0    0 -0.33095832120E+03  0.34699255297E+03  0.71591492718E+03  0.86166781601E+03  0.00000000000E+00 0.  1.
          2    1    6    6  503    0  0.16387351098E+03  0.94297309452E+02  0.75901343649E+02  0.20373395431E+03  0.00000000000E+00 0. -1.
         -2    1    6    6    0  503  0.29276946330E+03  0.24421059542E+03  0.28389432482E+03  0.47534067912E+03  0.00000000000E+00 0.  1.
<mgrwt>
<rscale>  0 0.24736148E+04</rscale>
<asrwt>0</asrwt>
<pdfrwt beam="1">  1        1 0.13969960E+00 0.24736148E+04</pdfrwt>
<pdfrwt beam="2">  1       -2 0.25916854E+00 0.24736148E+04</pdfrwt>
<totfact> 0.78992836E-01</totfact>
</mgrwt>
</event>
<event>
12    4  0.4207946E-008  0.1045568E+04  0.7818608E-02  0.9259932E-01
          1   -1    0    0  501    0  0.00000000000E+00  0.00000000000E+00  0.14243301564E+04  0.14243301564E+04  0.00000000000E+00 0. -1.
         -4   -1    0    0    0  501 -0.00000000000E+00 -0.00000000000E+00 -0.19188193743E+03  0.19188193743E+03  0.00000000000E+00 0.  1.
        -24    2    1    2    0    0  0.19631730184E+03 -0.74524651161E+02  0.23792427096E+03  0.32710037347E+03  0.79323949621E+02 0.  0.
        254    2    1    2    0    0 -0.19631730184E+03  0.74524651161E+02  0.99452394801E+03  0.12891117204E+04  0.79286615375E+03 0.  0.
         23    2    4    4    0    0 -0.14176526488E+03  0.24059568944E+03  0.10420309807E+04  0.10825432517E+04  0.89931368643E+02 0.  0.
         23    2    4    4    0    0 -0.54552036963E+02 -0.16607103828E+03 -0.47507032648E+02  0.20656846865E+03  0.99287962991E+02 0.  0.
          3    1    3    3  502    0  0.33735951102E+02 -0.18708271659E+02  0.98450613212E+02  0.10573853161E+03  0.00000000000E+00 0. -1.
         -4    1    3    3    0  502  0.16258135074E+03 -0.55816379501E+02  0.13947365775E+03  0.22136184187E+03  0.00000000000E+00 0.  1.
         11    1    5    5    0    0 -0.14165056631E+03  0.16367774897E+03  0.76951445678E+03  0.79937962674E+03  0.00000000000E+00 0. -1.
        -11    1    5    5    0    0 -0.11469856199E+00  0.76917940467E+02  0.27251652388E+03  0.28316362497E+03  0.00000000000E+00 0.  1.
          1    1    6    6  503    0 -0.27071912889E-01 -0.13952207992E+03 -0.41833223521E+02  0.14565860808E+03  0.00000000000E+00 0. -1.
         -1    1    6    6    0  503 -0.54524965050E+02 -0.26548958360E+02 -0.56738091265E+01  0.60909860562E+02  0.00000000000E+00 0.  1.
<mgrwt>
<rscale>  0 0.10455682E+04</rscale>
<asrwt>0</asrwt>
<pdfrwt beam="1">  1        1 0.21912771E+00 0.10455682E+04</pdfrwt>
<pdfrwt beam="2">  1       -4 0.29520299E-01 0.10455682E+04</pdfrwt>
<totfact> 0.40426627E+01</totfact>
</mgrwt>
</event>
<event>
12    4  0.4207946E-008  0.1351830E+04  0.7818608E-02  0.8989444E-01
         -2   -1    0    0    0  501 -0.00000000000E+00  0.00000000000E+00  0.29470966249E+03  0.29470966249E+03  0.00000000000E+00 0.  1.
          1   -1    0    0  501    0  0.00000000000E+00 -0.00000000000E+00 -0.15502072296E+04  0.15502072296E+04  0.00000000000E+00 0. -1.
        -24    2    1    2    0    0  0.33962730872E+02  0.36688379012E+03 -0.39073628733E+03  0.54300462809E+03  0.80137365516E+02 0.  0.
        254    2    1    2    0    0 -0.33962730872E+02 -0.36688379012E+03 -0.86476127980E+03  0.13019122640E+04  0.90078093321E+03 0.  0.
         23    2    4    4    0    0 -0.79229104990E+02 -0.39808348113E+03  0.14440199073E+02  0.41737167911E+03  0.96139950869E+02 0.  0.
         23    2    4    4    0    0  0.45266374117E+02  0.31199691007E+02 -0.87920147887E+03  0.88454058491E+03  0.79964620685E+02 0.  0.
          3    1    3    3  502    0  0.31282515423E+02  0.34005041455E+03 -0.32278053871E+03  0.46989377138E+03  0.00000000000E+00 0. -1.
         -4    1    3    3    0  502  0.26802154495E+01  0.26833375567E+02 -0.67955748619E+02  0.73110856714E+02  0.00000000000E+00 0.  1.
         11    1    5    5    0    0 -0.94186779521E+02 -0.37833139402E+03  0.25447081373E+01  0.38988750772E+03  0.00000000000E+00 0. -1.
        -11    1    5    5    0    0  0.14957674531E+02 -0.19752087103E+02  0.11895490935E+02  0.27484171389E+02  0.00000000000E+00 0.  1.
          3    1    6    6  503    0  0.22255041678E+02 -0.26489228220E+02 -0.35055668942E+03  0.35225978849E+03  0.00000000000E+00 0. -1.
         -3    1    6    6    0  503  0.23011332440E+02  0.57688919227E+02 -0.52864478945E+03  0.53228079642E+03  0.00000000000E+00 0.  1.
<mgrwt>
<rscale>  0 0.13518299E+04</rscale>
<asrwt>0</asrwt>
<pdfrwt beam="1">  1        1 0.23849342E+00 0.13518299E+04</pdfrwt>
<pdfrwt beam="2">  1       -2 0.45339949E-01 0.13518299E+04</pdfrwt>
<totfact> 0.23923636E+01</totfact>
</mgrwt>
</event>
<event>
12    4  0.4207946E-008  0.1920729E+04  0.7818608E-02  0.8644607E-01
         -2   -1    0    0    0  501 -0.00000000000E+00  0.00000000000E+00  0.32422733490E+03  0.32422733490E+03  0.00000000000E+00 0.  1.
          1   -1    0    0  501    0  0.00000000000E+00 -0.00000000000E+00 -0.28446075168E+04  0.28446075168E+04  0.00000000000E+00 0. -1.
        -24    2    1    2    0    0 -0.33081712041E+02  0.24842049385E+03 -0.21376188485E+04  0.21537385491E+04  0.79801344818E+02 0.  0.
        254    2    1    2    0    0  0.33081712041E+02 -0.24842049385E+03 -0.38276133336E+03  0.10150963026E+04  0.90614961452E+03 0.  0.
         23    2    4    4    0    0  0.17633217378E+03 -0.35052426050E+03  0.16288814360E+03  0.43443822598E+03  0.90795000759E+02 0.  0.
         23    2    4    4    0    0 -0.14325046174E+03  0.10210376665E+03 -0.54564947695E+03  0.58065807666E+03  0.92111760044E+02 0.  0.
          1    1    3    3  502    0 -0.12420891240E+02  0.23556755767E+03 -0.18265809593E+04  0.18417503506E+04  0.00000000000E+00 0. -1.
         -2    1    3    3    0  502 -0.20660820800E+02  0.12852936177E+02 -0.31103788919E+03  0.31198819849E+03  0.00000000000E+00 0.  1.
         11    1    5    5    0    0 -0.78577639448E+01 -0.14355441799E+02 -0.32106433552E+01  0.16677271785E+02  0.00000000000E+00 0.  1.
        -11    1    5    5    0    0  0.18418993772E+03 -0.33616881870E+03  0.16609878695E+03  0.41776095420E+03  0.00000000000E+00 0. -1.
          2    1    6    6  503    0 -0.43165813038E+02 -0.13735173605E+02 -0.11432395512E+03  0.12297117192E+03  0.00000000000E+00 0.  1.
         -2    1    6    6    0  503 -0.10008464870E+03  0.11583894026E+03 -0.43132552184E+03  0.45768690474E+03  0.00000000000E+00 0. -1.
<mgrwt>
<rscale>  0 0.19207285E+04</rscale>
<asrwt>0</asrwt>
<pdfrwt beam="1">  1        1 0.43763190E+00 0.19207285E+04</pdfrwt>
<pdfrwt beam="2">  1       -2 0.49881131E-01 0.19207285E+04</pdfrwt>
<totfact> 0.24200994E+00</totfact>
</mgrwt>
</event>
<event>
12    4  0.4207946E-008  0.2007954E+04  0.7818608E-02  0.8602911E-01
          1   -1    0    0  501    0  0.00000000000E+00  0.00000000000E+00  0.11343888855E+04  0.11343888855E+04  0.00000000000E+00 0. -1.
         -2   -1    0    0    0  501 -0.00000000000E+00 -0.00000000000E+00 -0.88855730325E+03  0.88855730325E+03  0.00000000000E+00 0.  1.
        -24    2    1    2    0    0  0.19646230545E+01  0.57303510099E+03 -0.45941139741E+03  0.73877065865E+03  0.79687936966E+02 0.  0.
        254    2    1    2    0    0 -0.19646230545E+01 -0.57303510099E+03  0.70524297962E+03  0.12841755301E+04  0.90739519779E+03 0.  0.
         23    2    4    4    0    0  0.18656040498E+03 -0.42192796409E+03 -0.62295049295E+02  0.47438550977E+03  0.91284977526E+02 0.  0.
         23    2    4    4    0    0 -0.18852502803E+03 -0.15110713690E+03  0.76753802891E+03  0.80979002029E+03  0.90940629622E+02 0.  0.
          3    1    3    3  502    0 -0.11121556794E+02  0.15150029151E+02 -0.26556072569E+02  0.32533634889E+02  0.00000000000E+00 0. -1.
         -4    1    3    3    0  502  0.13086179849E+02  0.55788507184E+03 -0.43285532484E+03  0.70623702376E+03  0.00000000000E+00 0.  1.
         11    1    5    5    0    0  0.83753687998E+02 -0.14196767583E+03 -0.62111081515E+02  0.17614564338E+03  0.00000000000E+00 0.  1.
        -11    1    5    5    0    0  0.10280671698E+03 -0.27996028826E+03 -0.18396777910E+00  0.29823986639E+03  0.00000000000E+00 0. -1.
          3    1    6    6  503    0 -0.16540424713E+03 -0.86230138442E+02  0.60929127256E+03  0.63720487801E+03  0.00000000000E+00 0. -1.
         -3    1    6    6    0  503 -0.23120780901E+02 -0.64876998461E+02  0.15824675635E+03  0.17258514227E+03  0.00000000000E+00 0.  1.
<mgrwt>
<rscale>  0 0.20079537E+04</rscale>
<asrwt>0</asrwt>
<pdfrwt beam="1">  1        1 0.17452137E+00 0.20079537E+04</pdfrwt>
<pdfrwt beam="2">  1       -2 0.13670112E+00 0.20079537E+04</pdfrwt>
<totfact> 0.37111765E+00</totfact>
</mgrwt>
</event>
<event>
12    4  0.4207946E-008  0.1501799E+04  0.7818608E-02  0.8883257E-01
          1   -1    0    0  501    0  0.00000000000E+00  0.00000000000E+00  0.18829041198E+04  0.18829041198E+04  0.00000000000E+00 0. -1.
         -2   -1    0    0    0  501 -0.00000000000E+00 -0.00000000000E+00 -0.29945767289E+03  0.29945767289E+03  0.00000000000E+00 0.  1.
        -24    2    1    2    0    0  0.21684136958E+03 -0.19694953756E+03 -0.62319914370E+02  0.31019534192E+03  0.80796525378E+02 0.  0.
        254    2    1    2    0    0 -0.21684136958E+03  0.19694953756E+03  0.16457663613E+04  0.18721664508E+04  0.84300118836E+03 0.  0.
         23    2    4    4    0    0  0.12901450517E+02 -0.30584723254E+03  0.75071930689E+03  0.81577429734E+03  0.90549706700E+02 0.  0.
         23    2    4    4    0    0 -0.22974282010E+03  0.50279677010E+03  0.89504705438E+03  0.10563921534E+04  0.96274590923E+02 0.  0.
          1    1    3    3  502    0  0.56126294873E+02 -0.68944593551E+02 -0.55129293256E+02  0.10460763324E+03  0.00000000000E+00 0. -1.
         -2    1    3    3    0  502  0.16071507471E+03 -0.12800494401E+03 -0.71906211135E+01  0.20558770868E+03  0.00000000000E+00 0.  1.
         11    1    5    5    0    0  0.32960178146E+02 -0.28526867072E+03  0.64157959108E+03  0.70291461752E+03  0.00000000000E+00 0. -1.
        -11    1    5    5    0    0 -0.20058727628E+02 -0.20578561814E+02  0.10913971581E+03  0.11285967981E+03  0.00000000000E+00 0.  1.
          1    1    6    6  503    0 -0.12982954206E+03  0.35844122303E+03  0.67122819585E+03  0.77193465479E+03  0.00000000000E+00 0. -1.
         -1    1    6    6    0  503 -0.99913278037E+02  0.14435554707E+03  0.22381885853E+03  0.28445749864E+03  0.00000000000E+00 0.  1.
<mgrwt>
<rscale>  0 0.15017990E+04</rscale>
<asrwt>0</asrwt>
<pdfrwt beam="1">  1        1 0.28967755E+00 0.15017990E+04</pdfrwt>
<pdfrwt beam="2">  1       -2 0.46070412E-01 0.15017990E+04</pdfrwt>
<totfact> 0.13577781E+01</totfact>
</mgrwt>
</event>
<event>
12    4  0.4207946E-008  0.1598971E+04  0.7818608E-02  0.8821180E-01
         -2   -1    0    0    0  501 -0.00000000000E+00  0.00000000000E+00  0.10959788616E+04  0.10959788616E+04  0.00000000000E+00 0.  1.
          1   -1    0    0  501    0  0.00000000000E+00 -0.00000000000E+00 -0.58320209206E+03  0.58320209206E+03  0.00000000000E+00 0. -1.
        -24    2    1    2    0    0 -0.36353206775E+03  0.36435666712E+03  0.33684427891E+03  0.62030568357E+03  0.80023294575E+02 0.  0.
        254    2    1    2    0    0  0.36353206775E+03 -0.36435666712E+03  0.17593249064E+03  0.10588752701E+04  0.90848954380E+03 0.  0.
         23    2    4    4    0    0 -0.19468750467E+03  0.84777782042E+02 -0.14220704287E+03  0.26953612281E+03  0.85652680387E+02 0.  0.
         23    2    4    4    0    0  0.55821957242E+03 -0.44913444917E+03  0.31813953351E+03  0.78933914728E+03  0.92264197778E+02 0.  0.
          3    1    3    3  502    0 -0.24994448540E+02  0.25695619498E+01  0.20754117231E+02  0.32589238844E+02  0.00000000000E+00 0. -1.
         -4    1    3    3    0  502 -0.33853761921E+03  0.36178710517E+03  0.31609016168E+03  0.58771644473E+03  0.00000000000E+00 0.  1.
         11    1    5    5    0    0 -0.90164731375E+02  0.85743272380E+02 -0.75650668198E+02  0.14561803165E+03  0.00000000000E+00 0. -1.
        -11    1    5    5    0    0 -0.10452277329E+03 -0.96549033767E+00 -0.66556374667E+02  0.12391809116E+03  0.00000000000E+00 0.  1.
          2    1    6    6  503    0  0.35420388937E+03 -0.22758907078E+03  0.17639033444E+03  0.45647642926E+03  0.00000000000E+00 0.  1.
         -2    1    6    6    0  503  0.20401568305E+03 -0.22154537839E+03  0.14174919906E+03  0.33286271802E+03  0.00000000000E+00 0. -1.
<mgrwt>
<rscale>  0 0.15989711E+04</rscale>
<asrwt>0</asrwt>
<pdfrwt beam="1">  1        1 0.89723399E-01 0.15989711E+04</pdfrwt>
<pdfrwt beam="2">  1       -2 0.16861213E+00 0.15989711E+04</pdfrwt>
<totfact> 0.65279325E+00</totfact>
</mgrwt>
</event>
<event>
12    4  0.4207946E-008  0.1878593E+04  0.7818608E-02  0.8665586E-01
          1   -1    0    0  501    0  0.00000000000E+00  0.00000000000E+00  0.26250621078E+04  0.26250621078E+04  0.00000000000E+00 0. -1.
         -2   -1    0    0    0  501 -0.00000000000E+00 -0.00000000000E+00 -0.33609787339E+03  0.33609787339E+03  0.00000000000E+00 0.  1.
        -24    2    1    2    0    0 -0.20340236477E+03  0.50120701727E+03  0.11880747008E+03  0.55952505124E+03  0.79825258334E+02 0.  0.
        254    2    1    2    0    0  0.20340236477E+03 -0.50120701727E+03  0.21701567643E+04  0.24016349299E+04  0.87503654713E+03 0.  0.
         23    2    4    4    0    0 -0.15762767425E+03 -0.56575141461E+03  0.16851056796E+04  0.17868657698E+04  0.91580460443E+02 0.  0.
         23    2    4    4    0    0  0.36103003901E+03  0.64544397341E+02  0.48505108467E+03  0.61476916018E+03  0.90321078745E+02 0.  0.
          1    1    3    3  502    0 -0.19090962515E+02  0.11902538916E+02  0.13251129178E+02  0.26109915872E+02  0.00000000000E+00 0. -1.
         -2    1    3    3    0  502 -0.18431140225E+03  0.48930447836E+03  0.10555634090E+03  0.53341513537E+03  0.00000000000E+00 0.  1.
         11    1    5    5    0    0 -0.62904232352E+02 -0.93206107717E+02  0.32157117276E+03  0.34066455659E+03  0.00000000000E+00 0.  1.
        -11    1    5    5    0    0 -0.94723441894E+02 -0.47254530690E+03  0.13635345069E+04  0.14462012132E+04  0.00000000000E+00 0. -1.
          1    1    6    6  503    0  0.36577795731E+03  0.59775456928E+02  0.47952348049E+03  0.60606054784E+03  0.00000000000E+00 0. -1.
         -1    1    6    6    0  503 -0.47479182996E+01  0.47689404137E+01  0.55276041810E+01  0.87086123367E+01  0.00000000000E+00 0.  1.
<mgrwt>
<rscale>  0 0.18785929E+04</rscale>
<asrwt>0</asrwt>
<pdfrwt beam="1">  1        1 0.40385570E+00 0.18785929E+04</pdfrwt>
<pdfrwt beam="2">  1       -2 0.51707367E-01 0.18785929E+04</pdfrwt>
<totfact> 0.32266222E+00</totfact>
</mgrwt>
</event>
<event>
12    4  0.4207946E-008  0.3063304E+04  0.7818608E-02  0.8225882E-01
          1   -1    0    0  501    0  0.00000000000E+00  0.00000000000E+00  0.17970577395E+04  0.17970577395E+04  0.00000000000E+00 0. -1.
         -2   -1    0    0    0  501 -0.00000000000E+00 -0.00000000000E+00 -0.13054437412E+04  0.13054437412E+04  0.00000000000E+00 0.  1.
        -24    2    1    2    0    0 -0.62357336163E+03  0.20653960352E+03  0.14716159758E+04  0.16136502769E+04  0.81922468819E+02 0.  0.
        254    2    1    2    0    0  0.62357336163E+03 -0.20653960352E+03 -0.98000197746E+03  0.14888512038E+04  0.90816941490E+03 0.  0.
         23    2    4    4    0    0  0.23564093826E+03 -0.53269974237E+03 -0.65071071366E+03  0.87801046459E+03  0.90455932612E+02 0.  0.
         23    2    4    4    0    0  0.38793242337E+03  0.32616013886E+03 -0.32929126380E+03  0.61084073924E+03  0.88440211560E+02 0.  0.
          3    1    3    3  502    0 -0.40719267018E+03  0.17475593168E+03  0.96820262897E+03  0.10647825304E+04  0.00000000000E+00 0. -1.
         -4    1    3    3    0  502 -0.21638069145E+03  0.31783671837E+02  0.50341334678E+03  0.54886774650E+03  0.00000000000E+00 0.  1.
         11    1    5    5    0    0  0.69630544858E+02 -0.26881486004E+03 -0.30248134123E+03  0.41061515260E+03  0.00000000000E+00 0.  1.
        -11    1    5    5    0    0  0.16601039340E+03 -0.26388488233E+03 -0.34822937243E+03  0.46739531199E+03  0.00000000000E+00 0. -1.
          4    1    6    6  503    0  0.84225138634E+02  0.73986029073E+02 -0.11930644811E+03  0.16371265998E+03  0.00000000000E+00 0. -1.
         -4    1    6    6    0  503  0.30370728474E+03  0.25217410978E+03 -0.20998481569E+03  0.44712807927E+03  0.00000000000E+00 0.  1.
<mgrwt>
<rscale>  0 0.30633040E+04</rscale>
<asrwt>0</asrwt>
<pdfrwt beam="1">  1        1 0.27647042E+00 0.30633040E+04</pdfrwt>
<pdfrwt beam="2">  1       -2 0.20083750E+00 0.30633040E+04</pdfrwt>
<totfact> 0.39986990E-01</totfact>
</mgrwt>
</event>
<event>
12    4  0.4207946E-008  0.1150932E+04  0.7818608E-02  0.9156925E-01
         -2   -1    0    0    0  501 -0.00000000000E+00  0.00000000000E+00  0.33597794555E+03  0.33597794555E+03  0.00000000000E+00 0.  1.
          1   -1    0    0  501    0  0.00000000000E+00 -0.00000000000E+00 -0.98566241907E+03  0.98566241907E+03  0.00000000000E+00 0. -1.
        -24    2    1    2    0    0  0.89799458204E+02  0.13482956912E+03 -0.28147474343E+03  0.33505457681E+03  0.82404992858E+02 0.  0.
        254    2    1    2    0    0 -0.89799458204E+02 -0.13482956912E+03 -0.36820973009E+03  0.98658578781E+03  0.90084968556E+03 0.  0.
         23    2    4    4    0    0  0.77860471629E+02  0.20126489170E+03  0.19422057039E+03  0.30365915951E+03  0.88980028744E+02 0.  0.
         23    2    4    4    0    0 -0.16765992983E+03 -0.33609446083E+03 -0.56243030048E+03  0.68292662830E+03  0.94824037409E+02 0.  0.
          1    1    3    3  502    0  0.10578031687E+03  0.11892120066E+03 -0.24409969100E+03  0.29140416358E+03  0.00000000000E+00 0. -1.
         -2    1    3    3    0  502 -0.15980858671E+02  0.15908368456E+02 -0.37375052436E+02  0.43650413233E+02  0.00000000000E+00 0.  1.
         11    1    5    5    0    0  0.93505728968E+02  0.17749119704E+03  0.18709891531E+03  0.27432180097E+03  0.00000000000E+00 0. -1.
        -11    1    5    5    0    0 -0.15645257339E+02  0.23773694661E+02  0.71216550888E+01  0.29337358542E+02  0.00000000000E+00 0.  1.
          1    1    6    6  503    0 -0.12534761802E+03 -0.17522902787E+03 -0.37370160474E+03  0.43135846687E+03  0.00000000000E+00 0. -1.
         -1    1    6    6    0  503 -0.42312311811E+02 -0.16086543295E+03 -0.18872869575E+03  0.25156816143E+03  0.00000000000E+00 0.  1.
<mgrwt>
<rscale>  0 0.11509315E+04</rscale>
<asrwt>0</asrwt>
<pdfrwt beam="1">  1        1 0.15164038E+00 0.11509315E+04</pdfrwt>
<pdfrwt beam="2">  1       -2 0.51688914E-01 0.11509315E+04</pdfrwt>
<totfact> 0.47788366E+01</totfact>
</mgrwt>
</event>
<event>
12    4  0.4207946E-008  0.1531450E+04  0.7818608E-02  0.8863805E-01
         -2   -1    0    0    0  501 -0.00000000000E+00  0.00000000000E+00  0.41488372484E+03  0.41488372484E+03  0.00000000000E+00 0.  1.
          1   -1    0    0  501    0  0.00000000000E+00 -0.00000000000E+00 -0.14132499371E+04  0.14132499371E+04  0.00000000000E+00 0. -1.
        -24    2    1    2    0    0 -0.65299939434E+02 -0.20086251119E+03  0.20667196248E+03  0.30498802036E+03  0.75462321712E+02 0.  0.
        254    2    1    2    0    0  0.65299939434E+02  0.20086251119E+03 -0.12050381747E+04  0.15231456416E+04  0.90732894386E+03 0.  0.
         23    2    4    4    0    0  0.92254244193E+02 -0.33517910994E+03 -0.66794062277E+03  0.75846565494E+03  0.90937301788E+02 0.  0.
         23    2    4    4    0    0 -0.26954304759E+02  0.53604162113E+03 -0.53709755196E+03  0.76467998663E+03  0.90523740014E+02 0.  0.
          1    1    3    3  502    0  0.89188005137E+01 -0.39433784191E+02  0.13720647692E+02  0.42694548965E+02  0.00000000000E+00 0. -1.
         -2    1    3    3    0  502 -0.74218739948E+02 -0.16142872700E+03  0.19295131478E+03  0.26229347140E+03  0.00000000000E+00 0.  1.
         11    1    5    5    0    0  0.25230858247E+02 -0.13712087652E+03 -0.36180475710E+03  0.38773884671E+03  0.00000000000E+00 0. -1.
        -11    1    5    5    0    0  0.67023385946E+02 -0.19805823342E+03 -0.30613586567E+03  0.37072680823E+03  0.00000000000E+00 0.  1.
          3    1    6    6  503    0  0.22796734247E+02  0.32750908549E+03 -0.29582850201E+03  0.44192351688E+03  0.00000000000E+00 0. -1.
         -3    1    6    6    0  503 -0.49751039005E+02  0.20853253564E+03 -0.24126904995E+03  0.32275646975E+03  0.00000000000E+00 0.  1.
<mgrwt>
<rscale>  0 0.15314495E+04</rscale>
<asrwt>0</asrwt>
<pdfrwt beam="1">  1        1 0.21742307E+00 0.15314495E+04</pdfrwt>
<pdfrwt beam="2">  1       -2 0.63828264E-01 0.15314495E+04</pdfrwt>
<totfact> 0.14451699E+01</totfact>
</mgrwt>
</event>
<event>
12    4  0.4207946E-008  0.1489406E+04  0.7818608E-02  0.8891528E-01
          1   -1    0    0  501    0  0.00000000000E+00  0.00000000000E+00  0.46463644585E+03  0.46463644585E+03  0.00000000000E+00 0. -1.
         -2   -1    0    0    0  501 -0.00000000000E+00 -0.00000000000E+00 -0.11935845948E+04  0.11935845948E+04  0.00000000000E+00 0.  1.
        -24    2    1    2    0    0 -0.46238313002E+03  0.17380472375E+02 -0.17341250177E+03  0.50112158576E+03  0.83370907396E+02 0.  0.
        254    2    1    2    0    0  0.46238313002E+03 -0.17380472375E+02 -0.55553564720E+03  0.11570994549E+04  0.90341521656E+03 0.  0.
         23    2    4    4    0    0  0.33461986720E+03  0.42145949753E+02 -0.79270115962E+03  0.86645250458E+03  0.92833601829E+02 0.  0.
         23    2    4    4    0    0  0.12776326282E+03 -0.59526422128E+02  0.23716551242E+03  0.29064695033E+03  0.91440271210E+02 0.  0.
          1    1    3    3  502    0 -0.17291758106E+03  0.10199582441E+02 -0.22721035936E+02  0.17470193701E+03  0.00000000000E+00 0. -1.
         -2    1    3    3    0  502 -0.28946554896E+03  0.71808899345E+01 -0.15069146584E+03  0.32641964875E+03  0.00000000000E+00 0.  1.
         11    1    5    5    0    0  0.81323268785E+02  0.31068187696E+02 -0.29954998750E+03  0.31194374708E+03  0.00000000000E+00 0. -1.
        -11    1    5    5    0    0  0.25329659842E+03  0.11077762057E+02 -0.49315117212E+03  0.55450875750E+03  0.00000000000E+00 0.  1.
          3    1    6    6  503    0  0.10978334054E+03 -0.71751429403E+02  0.14313170364E+03  0.19413225922E+03  0.00000000000E+00 0. -1.
         -3    1    6    6    0  503  0.17979922282E+02  0.12225007275E+02  0.94033808779E+02  0.96514691118E+02  0.00000000000E+00 0.  1.
<mgrwt>
<rscale>  0 0.14894065E+04</rscale>
<asrwt>0</asrwt>
<pdfrwt beam="1">  1        1 0.71482532E-01 0.14894065E+04</pdfrwt>
<pdfrwt beam="2">  1       -2 0.18362840E+00 0.14894065E+04</pdfrwt>
<totfact> 0.70975703E+00</totfact>
</mgrwt>
</event>
<event>
12    4  0.4207946E-008  0.1141981E+04  0.7818608E-02  0.9165214E-01
         -2   -1    0    0    0  501 -0.00000000000E+00  0.00000000000E+00  0.56128666972E+03  0.56128666972E+03  0.00000000000E+00 0.  1.
          1   -1    0    0  501    0  0.00000000000E+00 -0.00000000000E+00 -0.58086192351E+03  0.58086192351E+03  0.00000000000E+00 0. -1.
        -24    2    1    2    0    0 -0.16606357565E+03  0.37935821548E+02  0.11001738472E+03  0.21808720238E+03  0.80261853863E+02 0.  0.
        254    2    1    2    0    0  0.16606357565E+03 -0.37935821548E+02 -0.12959263851E+03  0.92406139084E+03  0.89893212446E+03 0.  0.
         23    2    4    4    0    0  0.21234577414E+03 -0.34121892315E+03 -0.34466268690E+03  0.53713750397E+03  0.90571789870E+02 0.  0.
         23    2    4    4    0    0 -0.46282198491E+02  0.30328310160E+03  0.21507004839E+03  0.38692388687E+03  0.96603762382E+02 0.  0.
          3    1    3    3  502    0 -0.73447846034E+02 -0.98043286378E+01  0.12058412753E+02  0.75074071857E+02  0.00000000000E+00 0. -1.
         -4    1    3    3    0  502 -0.92615729618E+02  0.47740150186E+02  0.97958971968E+02  0.14301313052E+03  0.00000000000E+00 0.  1.
         11    1    5    5    0    0  0.45685480135E+02 -0.15711647291E+03 -0.13943284598E+03  0.21497503970E+03  0.00000000000E+00 0.  1.
        -11    1    5    5    0    0  0.16666029401E+03 -0.18410245024E+03 -0.20522984092E+03  0.32216246427E+03  0.00000000000E+00 0. -1.
          2    1    6    6  503    0 -0.60787658295E+02  0.25274767913E+03  0.13995066925E+03  0.29523332896E+03  0.00000000000E+00 0. -1.
         -2    1    6    6    0  503  0.14505459804E+02  0.50535422474E+02  0.75119379137E+02  0.91690557914E+02  0.00000000000E+00 0.  1.
<mgrwt>
<rscale>  0 0.11419808E+04</rscale>
<asrwt>0</asrwt>
<pdfrwt beam="1">  1        1 0.89363372E-01 0.11419808E+04</pdfrwt>
<pdfrwt beam="2">  1       -2 0.86351796E-01 0.11419808E+04</pdfrwt>
<totfact> 0.36282544E+01</totfact>
</mgrwt>
</event>
<event>
12    4  0.4207946E-008  0.1365135E+04  0.7818608E-02  0.8979449E-01
          1   -1    0    0  501    0  0.00000000000E+00  0.00000000000E+00  0.73301042250E+03  0.73301042250E+03  0.00000000000E+00 0. -1.
         -2   -1    0    0    0  501 -0.00000000000E+00 -0.00000000000E+00 -0.63559602645E+03  0.63559602645E+03  0.00000000000E+00 0.  1.
        -24    2    1    2    0    0 -0.99823103291E+02  0.34880524435E+03 -0.80602960579E+02  0.38017953477E+03  0.80061794710E+02 0.  0.
        254    2    1    2    0    0  0.99823103291E+02 -0.34880524435E+03  0.17801735662E+03  0.98842691418E+03  0.90203538455E+03 0.  0.
         23    2    4    4    0    0 -0.19361821483E+03 -0.25974653579E+03 -0.27449939499E+03  0.43424999866E+03  0.90922315821E+02 0.  0.
         23    2    4    4    0    0  0.29344131812E+03 -0.89058708560E+02  0.45251675162E+03  0.55417691552E+03  0.91111922659E+02 0.  0.
          1    1    3    3  502    0 -0.82517776646E+01  0.10259345179E+01  0.60149674091E+01  0.10262758362E+02  0.00000000000E+00 0. -1.
         -2    1    3    3    0  502 -0.91571325627E+02  0.34777930983E+03 -0.86617927988E+02  0.36991677641E+03  0.00000000000E+00 0.  1.
         11    1    5    5    0    0 -0.16112541596E+03 -0.25510313914E+03 -0.26028568369E+03  0.39848167887E+03  0.00000000000E+00 0. -1.
        -11    1    5    5    0    0 -0.32492798873E+02 -0.46433966495E+01 -0.14213711307E+02  0.35768319784E+02  0.00000000000E+00 0.  1.
          3    1    6    6  503    0  0.16515695646E+03 -0.15819827635E+02  0.18434756505E+03  0.24801433820E+03  0.00000000000E+00 0. -1.
         -3    1    6    6    0  503  0.12828436166E+03 -0.73238880926E+02  0.26816918657E+03  0.30616257732E+03  0.00000000000E+00 0.  1.
<mgrwt>
<rscale>  0 0.13651352E+04</rscale>
<asrwt>0</asrwt>
<pdfrwt beam="1">  1        1 0.11277083E+00 0.13651352E+04</pdfrwt>
<pdfrwt beam="2">  1       -2 0.97784004E-01 0.13651352E+04</pdfrwt>
<totfact> 0.18929269E+01</totfact>
</mgrwt>
</event>
<event>
12    4  0.4207946E-008  0.2407798E+04  0.7818608E-02  0.8436590E-01
         -2   -1    0    0    0  501 -0.00000000000E+00  0.00000000000E+00  0.89184525757E+03  0.89184525757E+03  0.00000000000E+00 0.  1.
          1   -1    0    0  501    0  0.00000000000E+00 -0.00000000000E+00 -0.16251398595E+04  0.16251398595E+04  0.00000000000E+00 0. -1.
        -24    2    1    2    0    0  0.28206962311E+03  0.58819314933E+02  0.72246934203E+03  0.78197834163E+03  0.80654773650E+02 0.  0.
        254    2    1    2    0    0 -0.28206962311E+03 -0.58819314933E+02 -0.14557639440E+04  0.17350067754E+04  0.89887533406E+03 0.  0.
         23    2    4    4    0    0 -0.38894087244E+03  0.92649415653E+02 -0.14714179262E+04  0.15275133328E+04  0.91473230404E+02 0.  0.
         23    2    4    4    0    0  0.10687124933E+03 -0.15146873059E+03  0.15653982228E+02  0.20749344264E+03  0.91892553022E+02 0.  0.
          3    1    3    3  502    0  0.27012507905E+02  0.15767073496E+01  0.23897099307E+02  0.36100317792E+02  0.00000000000E+00 0. -1.
         -4    1    3    3    0  502  0.25505711520E+03  0.57242607583E+02  0.69857224272E+03  0.74587802383E+03  0.00000000000E+00 0.  1.
         11    1    5    5    0    0 -0.29844242920E+03  0.56580314505E+02 -0.96040461376E+03  0.10072964994E+04  0.00000000000E+00 0.  1.
        -11    1    5    5    0    0 -0.90498443241E+02  0.36069101148E+02 -0.51101331242E+03  0.52021683341E+03  0.00000000000E+00 0. -1.
          3    1    6    6  503    0  0.20525791511E+02 -0.53122541358E+02  0.45931843329E+02  0.73164518375E+02  0.00000000000E+00 0. -1.
         -3    1    6    6    0  503  0.86345457820E+02 -0.98346189228E+02 -0.30277861101E+02  0.13432892427E+03  0.00000000000E+00 0.  1.
<mgrwt>
<rscale>  0 0.24077984E+04</rscale>
<asrwt>0</asrwt>
<pdfrwt beam="1">  1        1 0.25002152E+00 0.24077984E+04</pdfrwt>
<pdfrwt beam="2">  1       -2 0.13720696E+00 0.24077984E+04</pdfrwt>
<totfact> 0.15961122E+00</totfact>
</mgrwt>
</event>
<event>
12    4  0.4207946E-008  0.1481397E+04  0.7818608E-02  0.8896919E-01
          1   -1    0    0  501    0  0.00000000000E+00  0.00000000000E+00  0.87185959322E+03  0.87185959322E+03  0.00000000000E+00 0. -1.
         -2   -1    0    0    0  501 -0.00000000000E+00 -0.00000000000E+00 -0.62926940171E+03  0.62926940171E+03  0.00000000000E+00 0.  1.
        -24    2    1    2    0    0  0.44950674821E+02 -0.43888832590E+03  0.21974353852E+03  0.50095407609E+03  0.89578110326E+02 0.  0.
        254    2    1    2    0    0 -0.44950674821E+02  0.43888832590E+03  0.22846652984E+02  0.10001749188E+04  0.89732066340E+03 0.  0.
         23    2    4    4    0    0 -0.10363006919E+03  0.24400193096E+03  0.44355015992E+03  0.52431371748E+03  0.88836909070E+02 0.  0.
         23    2    4    4    0    0  0.58679394370E+02  0.19488639494E+03 -0.42070350694E+03  0.47586120137E+03  0.89601696203E+02 0.  0.
          1    1    3    3  502    0  0.35318681743E+02 -0.42910935765E+03  0.22553791198E+03  0.48605514075E+03  0.00000000000E+00 0. -1.
         -2    1    3    3    0  502  0.96319930778E+01 -0.97789682438E+01 -0.57943734549E+01  0.14898935341E+02  0.00000000000E+00 0.  1.
         11    1    5    5    0    0 -0.11541986344E+03  0.19340557068E+03  0.38497369641E+03  0.44601816843E+03  0.00000000000E+00 0.  1.
        -11    1    5    5    0    0  0.11789794248E+02  0.50596360283E+02  0.58576463517E+02  0.78295549046E+02  0.00000000000E+00 0. -1.
          1    1    6    6  503    0 -0.81787308348E+01  0.12491860178E+02 -0.30497317495E+01  0.15239392131E+02  0.00000000000E+00 0. -1.
         -1    1    6    6    0  503  0.66858125205E+02  0.18239453476E+03 -0.41765377519E+03  0.46062180924E+03  0.00000000000E+00 0.  1.
<mgrwt>
<rscale>  0 0.14813974E+04</rscale>
<asrwt>0</asrwt>
<pdfrwt beam="1">  1        1 0.13413224E+00 0.14813974E+04</pdfrwt>
<pdfrwt beam="2">  1       -2 0.96810677E-01 0.14813974E+04</pdfrwt>
<totfact> 0.14533711E+01</totfact>
</mgrwt>
</event>
<event>
12    4  0.4207946E-008  0.1325643E+04  0.7818608E-02  0.9009474E-01
         -2   -1    0    0    0  501 -0.00000000000E+00  0.00000000000E+00  0.40074371743E+03  0.40074371743E+03  0.00000000000E+00 0.  1.
          1   -1    0    0  501    0  0.00000000000E+00 -0.00000000000E+00 -0.10962927342E+04  0.10962927342E+04  0.00000000000E+00 0. -1.
        -24    2    1    2    0    0 -0.18806866822E+03  0.12704419284E+03 -0.46160019885E+03  0.52042510129E+03  0.79104308205E+02 0.  0.
        254    2    1    2    0    0  0.18806866822E+03 -0.12704419284E+03 -0.23394881790E+03  0.97661135031E+03  0.92061263801E+03 0.  0.
         23    2    4    4    0    0  0.17399724854E+03  0.26399694598E+03 -0.41998122122E+03  0.53369401529E+03  0.92063270556E+02 0.  0.
         23    2    4    4    0    0  0.14071419674E+02 -0.39104113882E+03  0.18603240333E+03  0.44291733502E+03  0.91959412108E+02 0.  0.
          1    1    3    3  502    0 -0.15734225011E+03  0.11829205984E+03 -0.43952143973E+03  0.48158975391E+03  0.00000000000E+00 0. -1.
         -2    1    3    3    0  502 -0.30726418108E+02  0.87521330085E+01 -0.22078759119E+02  0.38835347381E+02  0.00000000000E+00 0.  1.
         11    1    5    5    0    0  0.45053705072E+02  0.11995418608E+03 -0.11264673515E+03  0.17061104899E+03  0.00000000000E+00 0. -1.
        -11    1    5    5    0    0  0.12894354347E+03  0.14404275990E+03 -0.30733448607E+03  0.36308296629E+03  0.00000000000E+00 0.  1.
          3    1    6    6  503    0 -0.20729604172E+02 -0.28253402752E+03  0.10108760953E+03  0.30078879301E+03  0.00000000000E+00 0. -1.
         -3    1    6    6    0  503  0.34801023846E+02 -0.10850711130E+03  0.84944793797E+02  0.14212854202E+03  0.00000000000E+00 0.  1.
<mgrwt>
<rscale>  0 0.13256431E+04</rscale>
<asrwt>0</asrwt>
<pdfrwt beam="1">  1        1 0.16866042E+00 0.13256431E+04</pdfrwt>
<pdfrwt beam="2">  1       -2 0.61652880E-01 0.13256431E+04</pdfrwt>
<totfact> 0.26825996E+01</totfact>
</mgrwt>
</event>
<event>
12    4  0.4207946E-008  0.1433518E+04  0.7818608E-02  0.8929907E-01
          1   -1    0    0  501    0  0.00000000000E+00  0.00000000000E+00  0.60172305911E+03  0.60172305911E+03  0.00000000000E+00 0. -1.
         -2   -1    0    0    0  501 -0.00000000000E+00 -0.00000000000E+00 -0.85378771240E+03  0.85378771240E+03  0.00000000000E+00 0.  1.
        -24    2    1    2    0    0  0.59440370964E+01 -0.40524721116E+03  0.56188686514E+02  0.41622433012E+03  0.76320971951E+02 0.  0.
        254    2    1    2    0    0 -0.59440370964E+01  0.40524721116E+03 -0.30825333981E+03  0.10392864414E+04  0.90599975277E+03 0.  0.
         23    2    4    4    0    0 -0.32561196621E+03  0.10067927323E+03 -0.44549738071E+03  0.56808130496E+03  0.89938780454E+02 0.  0.
         23    2    4    4    0    0  0.31966792911E+03  0.30456793793E+03  0.13724404090E+03  0.47120513643E+03  0.90824777003E+02 0.  0.
          3    1    3    3  502    0  0.32399195988E+02 -0.32210891421E+03  0.29942120384E+02  0.32511596560E+03  0.00000000000E+00 0. -1.
         -4    1    3    3    0  502 -0.26455158891E+02 -0.83138296956E+02  0.26246566129E+02  0.91108364524E+02  0.00000000000E+00 0.  1.
         11    1    5    5    0    0 -0.25115524101E+03  0.11510997041E+03 -0.33858652906E+03  0.43700125634E+03  0.00000000000E+00 0.  1.
        -11    1    5    5    0    0 -0.74456725195E+02 -0.14430697175E+02 -0.10691085164E+03  0.13108004862E+03  0.00000000000E+00 0. -1.
          4    1    6    6  503    0  0.44043257891E+02  0.94060224095E+02  0.35751341046E+02  0.10984212630E+03  0.00000000000E+00 0. -1.
         -4    1    6    6    0  503  0.27562467122E+03  0.21050771383E+03  0.10149269985E+03  0.36136301013E+03  0.00000000000E+00 0.  1.
<mgrwt>
<rscale>  0 0.14335184E+04</rscale>
<asrwt>0</asrwt>
<pdfrwt beam="1">  1        1 0.92572778E-01 0.14335184E+04</pdfrwt>
<pdfrwt beam="2">  1       -2 0.13135196E+00 0.14335184E+04</pdfrwt>
<totfact> 0.12273906E+01</totfact>
</mgrwt>
</event>
<event>
12    4  0.4207946E-008  0.1413823E+04  0.7818608E-02  0.8943873E-01
          1   -1    0    0  501    0  0.00000000000E+00  0.00000000000E+00  0.64446454326E+03  0.64446454326E+03  0.00000000000E+00 0. -1.
         -2   -1    0    0    0  501 -0.00000000000E+00 -0.00000000000E+00 -0.77540908883E+03  0.77540908883E+03  0.00000000000E+00 0.  1.
        -24    2    1    2    0    0  0.38535614808E+03  0.16069484043E+03 -0.46836941874E+01  0.42457706953E+03  0.76951662568E+02 0.  0.
        254    2    1    2    0    0 -0.38535614808E+03 -0.16069484043E+03 -0.12626085138E+03  0.99529656257E+03  0.89462352543E+03 0.  0.
         23    2    4    4    0    0 -0.82859228166E+02  0.34718877440E+03 -0.14684836194E+03  0.39687675384E+03  0.92417636703E+02 0.  0.
         23    2    4    4    0    0 -0.30249691991E+03 -0.50788361482E+03  0.20587510565E+02  0.59841980873E+03  0.90731852847E+02 0.  0.
          3    1    3    3  502    0  0.61931849212E+02  0.16821099125E+02  0.26055832846E+02  0.69263336246E+02  0.00000000000E+00 0. -1.
         -4    1    3    3    0  502  0.32342429887E+03  0.14387374130E+03 -0.30739527033E+02  0.35531373328E+03  0.00000000000E+00 0.  1.
         11    1    5    5    0    0  0.18660814924E+02  0.55395498516E+02 -0.11472239827E+02  0.59569283663E+02  0.00000000000E+00 0. -1.
        -11    1    5    5    0    0 -0.10152004309E+03  0.29179327588E+03 -0.13537612212E+03  0.33730747018E+03  0.00000000000E+00 0.  1.
          3    1    6    6  503    0 -0.12764862173E+03 -0.22957330239E+03 -0.35263548394E+02  0.26503129937E+03  0.00000000000E+00 0. -1.
         -3    1    6    6    0  503 -0.17484829818E+03 -0.27831031243E+03  0.55851058959E+02  0.33338850936E+03  0.00000000000E+00 0.  1.
<mgrwt>
<rscale>  0 0.14138227E+04</rscale>
<asrwt>0</asrwt>
<pdfrwt beam="1">  1        1 0.99148391E-01 0.14138227E+04</pdfrwt>
<pdfrwt beam="2">  1       -2 0.11929371E+00 0.14138227E+04</pdfrwt>
<totfact> 0.14167458E+01</totfact>
</mgrwt>
</event>
<event>
12    4  0.4207946E-008  0.1869642E+04  0.7818608E-02  0.8670117E-01
          1   -1    0    0  501    0  0.00000000000E+00  0.00000000000E+00  0.30555545216E+04  0.30555545216E+04  0.00000000000E+00 0. -1.
         -2   -1    0    0    0  501 -0.00000000000E+00 -0.00000000000E+00 -0.28600070081E+03  0.28600070081E+03  0.00000000000E+00 0.  1.
        -24    2    1    2    0    0 -0.21802784664E+03 -0.31718289357E+03 -0.70125600941E+01  0.39335857197E+03  0.80874348570E+02 0.  0.
        254    2    1    2    0    0  0.21802784664E+03  0.31718289357E+03  0.27765663809E+04  0.29481966504E+04  0.91345579662E+03 0.  0.
         23    2    4    4    0    0  0.40395869083E+03  0.50406764235E+03  0.14125302180E+04  0.15559407597E+04  0.91886990467E+02 0.  0.
         23    2    4    4    0    0 -0.18593084419E+03 -0.18688474877E+03  0.13640361629E+04  0.13922558908E+04  0.91025400174E+02 0.  0.
          1    1    3    3  502    0 -0.26000275591E+02 -0.86705116080E+02  0.18124602204E+02  0.92316264495E+02  0.00000000000E+00 0. -1.
         -2    1    3    3    0  502 -0.19202757104E+03 -0.23047777749E+03 -0.25137162299E+02  0.30104230747E+03  0.00000000000E+00 0.  1.
         11    1    5    5    0    0  0.30880964628E+03  0.43450821844E+03  0.11957701211E+04  0.13092085289E+04  0.00000000000E+00 0.  1.
        -11    1    5    5    0    0  0.95149044546E+02  0.69559423912E+02  0.21676009685E+03  0.24673223081E+03  0.00000000000E+00 0. -1.
          4    1    6    6  503    0 -0.11120222762E+02 -0.14155769915E+02  0.24720073852E+02  0.30579850023E+02  0.00000000000E+00 0. -1.
         -4    1    6    6    0  503 -0.17481062143E+03 -0.17272897886E+03  0.13393160891E+04  0.13616760407E+04  0.00000000000E+00 0.  1.
<mgrwt>
<rscale>  0 0.18696425E+04</rscale>
<asrwt>0</asrwt>
<pdfrwt beam="1">  1        1 0.47008529E+00 0.18696425E+04</pdfrwt>
<pdfrwt beam="2">  1       -2 0.44000110E-01 0.18696425E+04</pdfrwt>
<totfact> 0.22031020E+00</totfact>
</mgrwt>
</event>
<event>
12    4  0.4207946E-008  0.2184756E+04  0.7818608E-02  0.8524800E-01
          1   -1    0    0  501    0  0.00000000000E+00  0.00000000000E+00  0.16327164221E+04  0.16327164221E+04  0.00000000000E+00 0. -1.
         -2   -1    0    0    0  501 -0.00000000000E+00 -0.00000000000E+00 -0.73086178448E+03  0.73086178448E+03  0.00000000000E+00 0.  1.
        -24    2    1    2    0    0 -0.29418912414E+03  0.38608228575E+03 -0.45024657122E+03  0.66698644790E+03  0.80883710689E+02 0.  0.
        254    2    1    2    0    0  0.29418912414E+03 -0.38608228575E+03  0.13521012088E+04  0.16965917586E+04  0.90257362276E+03 0.  0.
         23    2    4    4    0    0  0.27134931479E+03 -0.16056186311E+03  0.14079212162E+04  0.14456455990E+04  0.90766097214E+02 0.  0.
         23    2    4    4    0    0  0.22839809356E+02 -0.22552042264E+03 -0.55820007421E+02  0.25094615960E+03  0.92070537473E+02 0.  0.
          1    1    3    3  502    0 -0.24285979645E+03  0.28154461674E+03 -0.30563947367E+03  0.48131459547E+03  0.00000000000E+00 0. -1.
         -2    1    3    3    0  502 -0.51329327695E+02  0.10453766901E+03 -0.14460709755E+03  0.18567185244E+03  0.00000000000E+00 0.  1.
         11    1    5    5    0    0  0.25907310390E+03 -0.16607206158E+03  0.12567889909E+04  0.12939155191E+04  0.00000000000E+00 0. -1.
        -11    1    5    5    0    0  0.12276210889E+02  0.55101984698E+01  0.15113222528E+03  0.15173007994E+03  0.00000000000E+00 0.  1.
          2    1    6    6  503    0  0.48079201996E+02 -0.20872936042E+03 -0.51767294459E+02  0.22036199386E+03  0.00000000000E+00 0. -1.
         -2    1    6    6    0  503 -0.25239392640E+02 -0.16791062225E+02 -0.40527129625E+01  0.30584165737E+02  0.00000000000E+00 0.  1.
<mgrwt>
<rscale>  0 0.21847563E+04</rscale>
<asrwt>0</asrwt>
<pdfrwt beam="1">  1        1 0.25118714E+00 0.21847563E+04</pdfrwt>
<pdfrwt beam="2">  1       -2 0.11244027E+00 0.21847563E+04</pdfrwt>
<totfact> 0.26459736E+00</totfact>
</mgrwt>
</event>
<event>
12    4  0.4207946E-008  0.2372633E+04  0.7818608E-02  0.8449821E-01
          1   -1    0    0  501    0  0.00000000000E+00  0.00000000000E+00  0.21614023050E+04  0.21614023050E+04  0.00000000000E+00 0. -1.
         -2   -1    0    0    0  501 -0.00000000000E+00 -0.00000000000E+00 -0.65112685043E+03  0.65112685043E+03  0.00000000000E+00 0.  1.
        -24    2    1    2    0    0 -0.20137808122E+02 -0.71518854610E+03  0.14983801698E+04  0.16623916811E+04  0.80639819131E+02 0.  0.
        254    2    1    2    0    0  0.20137808122E+02  0.71518854610E+03  0.11895284752E+02  0.11501374743E+04  0.90043018840E+03 0.  0.
         23    2    4    4    0    0 -0.69506983844E+02 -0.19197294649E+03 -0.48474482004E+02  0.23199747450E+03  0.98935432379E+02 0.  0.
         23    2    4    4    0    0  0.89644791966E+02  0.90716149259E+03  0.60369766756E+02  0.91813999979E+03  0.91424220573E+02 0.  0.
          3    1    3    3  502    0  0.10555268871E+02 -0.58186885454E+03  0.11734276733E+04  0.13098149800E+04  0.00000000000E+00 0. -1.
         -4    1    3    3    0  502 -0.30693076993E+02 -0.13331969155E+03  0.32495249658E+03  0.35257670111E+03  0.00000000000E+00 0.  1.
         11    1    5    5    0    0 -0.86008949474E+02 -0.17063603332E+03 -0.63198725589E+02  0.20126667427E+03  0.00000000000E+00 0. -1.
        -11    1    5    5    0    0  0.16501965630E+02 -0.21336913177E+02  0.14724243585E+02  0.30730800229E+02  0.00000000000E+00 0.  1.
          2    1    6    6  503    0  0.10797134517E+03  0.79564863574E+03  0.46550720932E+02  0.80428945819E+03  0.00000000000E+00 0. -1.
         -2    1    6    6    0  503 -0.18326553203E+02  0.11151285685E+03  0.13819045824E+02  0.11385054160E+03  0.00000000000E+00 0.  1.
<mgrwt>
<rscale>  0 0.23726332E+04</rscale>
<asrwt>0</asrwt>
<pdfrwt beam="1">  1        1 0.33252343E+00 0.23726332E+04</pdfrwt>
<pdfrwt beam="2">  1       -2 0.10017336E+00 0.23726332E+04</pdfrwt>
<totfact> 0.15027906E+00</totfact>
</mgrwt>
</event>
<event>
12    4  0.4207946E-008  0.2176306E+04  0.7818608E-02  0.8528355E-01
         -2   -1    0    0    0  501 -0.00000000000E+00  0.00000000000E+00  0.22013235727E+04  0.22013235727E+04  0.00000000000E+00 0.  1.
          1   -1    0    0  501    0  0.00000000000E+00 -0.00000000000E+00 -0.53789331247E+03  0.53789331247E+03  0.00000000000E+00 0. -1.
        -24    2    1    2    0    0  0.55038422974E+03  0.23840524799E+03  0.15299646593E+04  0.16455624826E+04  0.85581323096E+02 0.  0.
        254    2    1    2    0    0 -0.55038422974E+03 -0.23840524799E+03  0.13346560093E+03  0.10936544026E+04  0.90471377959E+03 0.  0.
         23    2    4    4    0    0 -0.31696915915E+02  0.26737521864E+03  0.21985832417E+03  0.35873295287E+03  0.88642240207E+02 0.  0.
         23    2    4    4    0    0 -0.51868731383E+03 -0.50578046663E+03 -0.86392723241E+02  0.73492144969E+03  0.88291701922E+02 0.  0.
          1    1    3    3  502    0  0.50926462437E+02 -0.64225450826E+00  0.16065951506E+03  0.16853900690E+03  0.00000000000E+00 0. -1.
         -2    1    3    3    0  502  0.49945776731E+03  0.23904750250E+03  0.13693051443E+04  0.14770234757E+04  0.00000000000E+00 0.  1.
         11    1    5    5    0    0 -0.62234306029E+02  0.20056618280E+03  0.16394982262E+03  0.26641968184E+03  0.00000000000E+00 0. -1.
        -11    1    5    5    0    0  0.30537390114E+02  0.66809035837E+02  0.55908501549E+02  0.92313271039E+02  0.00000000000E+00 0.  1.
          2    1    6    6  503    0 -0.10375056407E+03 -0.14125525328E+03 -0.45624934127E+02  0.18110455748E+03  0.00000000000E+00 0. -1.
         -2    1    6    6    0  503 -0.41493674976E+03 -0.36452521335E+03 -0.40767789113E+02  0.55381689221E+03  0.00000000000E+00 0.  1.
<mgrwt>
<rscale>  0 0.21763063E+04</rscale>
<asrwt>0</asrwt>
<pdfrwt beam="1">  1        1 0.82752818E-01 0.21763063E+04</pdfrwt>
<pdfrwt beam="2">  1       -2 0.33866516E+00 0.21763063E+04</pdfrwt>
<totfact> 0.58785978E-01</totfact>
</mgrwt>
</event>
<event>
12    4  0.4207946E-008  0.3299309E+04  0.7818608E-02  0.8163071E-01
          1   -1    0    0  501    0  0.00000000000E+00  0.00000000000E+00  0.11543937451E+04  0.11543937451E+04  0.00000000000E+00 0. -1.
         -2   -1    0    0    0  501 -0.00000000000E+00 -0.00000000000E+00 -0.23573935664E+04  0.23573935664E+04  0.00000000000E+00 0.  1.
        -24    2    1    2    0    0 -0.79532803179E+03  0.11348408137E+04  0.12313519663E+03  0.13933264268E+04  0.76065132476E+02 0.  0.
        254    2    1    2    0    0  0.79532803179E+03 -0.11348408137E+04 -0.13261350179E+04  0.21184608846E+04  0.89935092320E+03 0.  0.
         23    2    4    4    0    0  0.14915248162E+03 -0.14070919332E+03 -0.77713170752E+03  0.80890542121E+03  0.91371493212E+02 0.  0.
         23    2    4    4    0    0  0.64617555018E+03 -0.99413162043E+03 -0.54900331042E+03  0.13095554634E+04  0.87694677484E+02 0.  0.
          1    1    3    3  502    0 -0.27041868294E+03  0.37062143232E+03  0.59674284186E+01  0.45882689587E+03  0.00000000000E+00 0. -1.
         -2    1    3    3    0  502 -0.52490934886E+03  0.76421938143E+03  0.11716776821E+03  0.93449953097E+03  0.00000000000E+00 0.  1.
         11    1    5    5    0    0  0.70453698690E+02 -0.18085664230E+02 -0.17751258060E+03  0.19183725180E+03  0.00000000000E+00 0. -1.
        -11    1    5    5    0    0  0.78698782929E+02 -0.12262352909E+03 -0.59961912693E+03  0.61706816941E+03  0.00000000000E+00 0.  1.
          4    1    6    6  503    0  0.49632366400E+02 -0.44393393071E+02 -0.42055618581E+02  0.78757984973E+02  0.00000000000E+00 0. -1.
         -4    1    6    6    0  503  0.59654318378E+03 -0.94973822735E+03 -0.50694769184E+03  0.12307974784E+04  0.00000000000E+00 0.  1.
<mgrwt>
<rscale>  0 0.32993093E+04</rscale>
<asrwt>0</asrwt>
<pdfrwt beam="1">  1        1 0.17759904E+00 0.32993093E+04</pdfrwt>
<pdfrwt beam="2">  1       -2 0.36267593E+00 0.32993093E+04</pdfrwt>
<totfact> 0.10866044E-01</totfact>
</mgrwt>
</event>
<event>
12    4  0.4207946E-008  0.1738248E+04  0.7818608E-02  0.8739846E-01
          1   -1    0    0  501    0  0.00000000000E+00  0.00000000000E+00  0.12910085828E+04  0.12910085828E+04  0.00000000000E+00 0. -1.
         -2   -1    0    0    0  501 -0.00000000000E+00 -0.00000000000E+00 -0.58510542624E+03  0.58510542624E+03  0.00000000000E+00 0.  1.
        -24    2    1    2    0    0 -0.22177603536E+03 -0.52402725698E+03  0.54590575468E+03  0.79251490863E+03  0.79231379412E+02 0.  0.
        254    2    1    2    0    0  0.22177603536E+03  0.52402725698E+03  0.15999740186E+03  0.10835991004E+04  0.90818426865E+03 0.  0.
         23    2    4    4    0    0 -0.58288700231E+02  0.48645409718E+03 -0.26552444288E+03  0.56471240951E+03  0.91442410548E+02 0.  0.
         23    2    4    4    0    0  0.28006473560E+03  0.37573159805E+02  0.42552184474E+03  0.51888669088E+03  0.91249981685E+02 0.  0.
          3    1    3    3  502    0 -0.17979449466E+03 -0.43236447355E+03  0.40405966291E+03  0.61848953870E+03  0.00000000000E+00 0. -1.
         -4    1    3    3    0  502 -0.41981540709E+02 -0.91662783437E+02  0.14184609177E+03  0.17402536993E+03  0.00000000000E+00 0.  1.
         11    1    5    5    0    0 -0.63128633028E+01  0.75001728861E+02 -0.60550619372E+01  0.75510100982E+02  0.00000000000E+00 0. -1.
        -11    1    5    5    0    0 -0.51975836928E+02  0.41145236832E+03 -0.25946938094E+03  0.48920230852E+03  0.00000000000E+00 0.  1.
          3    1    6    6  503    0  0.12354495110E+03  0.22819153338E+02  0.11267582048E+03  0.16875991593E+03  0.00000000000E+00 0. -1.
         -3    1    6    6    0  503  0.15651978449E+03  0.14754006467E+02  0.31284602425E+03  0.35012677495E+03  0.00000000000E+00 0.  1.
<mgrwt>
<rscale>  0 0.17382475E+04</rscale>
<asrwt>0</asrwt>
<pdfrwt beam="1">  1        1 0.19861670E+00 0.17382475E+04</pdfrwt>
<pdfrwt beam="2">  1       -2 0.90016220E-01 0.17382475E+04</pdfrwt>
<totfact> 0.80704364E+00</totfact>
</mgrwt>
</event>
<event>
12    4  0.4207946E-008  0.1634633E+04  0.7818608E-02  0.8799550E-01
          1   -1    0    0  501    0  0.00000000000E+00  0.00000000000E+00  0.10994409134E+04  0.10994409134E+04  0.00000000000E+00 0. -1.
         -2   -1    0    0    0  501 -0.00000000000E+00 -0.00000000000E+00 -0.60758688093E+03  0.60758688093E+03  0.00000000000E+00 0.  1.
        -24    2    1    2    0    0 -0.37308432766E+03  0.26264001310E+03 -0.16643027998E+03  0.49210453425E+03  0.79348235655E+02 0.  0.
        254    2    1    2    0    0  0.37308432766E+03 -0.26264001310E+03  0.65828431241E+03  0.12149232600E+04  0.91352536899E+03 0.  0.
         23    2    4    4    0    0 -0.20590827111E+03 -0.33885542218E+03  0.14348014206E+03  0.43108662517E+03  0.89598627155E+02 0.  0.
         23    2    4    4    0    0  0.57899259877E+03  0.76215409072E+02  0.51480417035E+03  0.78383663487E+03  0.91297964625E+02 0.  0.
          3    1    3    3  502    0 -0.97402820279E+02  0.28828782134E+02 -0.33620786949E+02  0.10699890370E+03  0.00000000000E+00 0. -1.
         -4    1    3    3    0  502 -0.27568150738E+03  0.23381123097E+03 -0.13280949303E+03  0.38510563055E+03  0.00000000000E+00 0.  1.
         11    1    5    5    0    0 -0.19311292388E+03 -0.34213930703E+03  0.13516484817E+03  0.41547736757E+03  0.00000000000E+00 0.  1.
        -11    1    5    5    0    0 -0.12795347225E+02  0.32838848510E+01  0.83152938958E+01  0.15609257602E+02  0.00000000000E+00 0. -1.
          4    1    6    6  503    0  0.33574152499E+02  0.21887602863E+02  0.17475803448E+02  0.43722929697E+02  0.00000000000E+00 0. -1.
         -4    1    6    6    0  503  0.54541844627E+03  0.54327806209E+02  0.49732836690E+03  0.74011370517E+03  0.00000000000E+00 0.  1.
<mgrwt>
<rscale>  0 0.16346325E+04</rscale>
<asrwt>0</asrwt>
<pdfrwt beam="1">  1        1 0.16914476E+00 0.16346325E+04</pdfrwt>
<pdfrwt beam="2">  1       -2 0.93474905E-01 0.16346325E+04</pdfrwt>
<totfact> 0.10306265E+01</totfact>
</mgrwt>
</event>
<event>
12    4  0.4207946E-008  0.3025228E+04  0.7818608E-02  0.8236563E-01
         -2   -1    0    0    0  501 -0.00000000000E+00  0.00000000000E+00  0.72327745632E+03  0.72327745632E+03  0.00000000000E+00 0.  1.
          1   -1    0    0  501    0  0.00000000000E+00 -0.00000000000E+00 -0.31633801652E+04  0.31633801652E+04  0.00000000000E+00 0. -1.
        -24    2    1    2    0    0  0.58862204211E+03  0.94205020618E+03 -0.65277157412E+02  0.11156406212E+04  0.80364102259E+02 0.  0.
        254    2    1    2    0    0 -0.58862204211E+03 -0.94205020618E+03 -0.23748255514E+04  0.27710170003E+04  0.89710886564E+03 0.  0.
         23    2    4    4    0    0 -0.83576523708E+02 -0.42943777889E+03 -0.22112543667E+03  0.49852856213E+03  0.90732724328E+02 0.  0.
         23    2    4    4    0    0 -0.50504551840E+03 -0.51261242729E+03 -0.21537001148E+04  0.22724884382E+04  0.89090072625E+02 0.  0.
          1    1    3    3  502    0  0.31686776593E+02  0.34005031343E+02  0.10717107546E+02  0.47699584502E+02  0.00000000000E+00 0. -1.
         -2    1    3    3    0  502  0.55693526552E+03  0.90804517483E+03 -0.75994264957E+02  0.10679410367E+04  0.00000000000E+00 0.  1.
         11    1    5    5    0    0 -0.63484745967E+02 -0.26814384075E+03 -0.18536184331E+03  0.33210005309E+03  0.00000000000E+00 0. -1.
        -11    1    5    5    0    0 -0.20091777742E+02 -0.16129393813E+03 -0.35763593356E+02  0.16642850904E+03  0.00000000000E+00 0.  1.
          3    1    6    6  503    0 -0.35216298901E+03 -0.31257186983E+03 -0.14903221414E+04  0.15629395477E+04  0.00000000000E+00 0. -1.
         -3    1    6    6    0  503 -0.15288252939E+03 -0.20004055746E+03 -0.66337797338E+03  0.70954889048E+03  0.00000000000E+00 0.  1.
<mgrwt>
<rscale>  0 0.30252283E+04</rscale>
<asrwt>0</asrwt>
<pdfrwt beam="1">  1        1 0.48667387E+00 0.30252283E+04</pdfrwt>
<pdfrwt beam="2">  1       -2 0.11127346E+00 0.30252283E+04</pdfrwt>
<totfact> 0.21606516E-01</totfact>
</mgrwt>
</event>
<event>
12    4  0.4207946E-008  0.2108674E+04  0.7818608E-02  0.8557432E-01
          1   -1    0    0  501    0  0.00000000000E+00  0.00000000000E+00  0.21158808077E+04  0.21158808077E+04  0.00000000000E+00 0. -1.
         -2   -1    0    0    0  501 -0.00000000000E+00 -0.00000000000E+00 -0.52537286428E+03  0.52537286428E+03  0.00000000000E+00 0.  1.
        -24    2    1    2    0    0 -0.29278864553E+03  0.63482260757E+03  0.12740413722E+04  0.14552293325E+04  0.76066143742E+02 0.  0.
        254    2    1    2    0    0  0.29278864553E+03 -0.63482260757E+03  0.31646657129E+03  0.11860243395E+04  0.90431062642E+03 0.  0.
         23    2    4    4    0    0  0.17536985732E+03 -0.13093219040E+03  0.55894617224E+03  0.60713412676E+03  0.91067003221E+02 0.  0.
         23    2    4    4    0    0  0.11741878821E+03 -0.50389041717E+03 -0.24247960095E+03  0.57889021272E+03  0.92869786058E+02 0.  0.
          1    1    3    3  502    0 -0.91311549052E+02  0.22369025908E+03  0.51368232725E+03  0.56766597954E+03  0.00000000000E+00 0. -1.
         -2    1    3    3    0  502 -0.20147709648E+03  0.41113234849E+03  0.76035904490E+03  0.88756335297E+03  0.00000000000E+00 0.  1.
         11    1    5    5    0    0  0.84725863965E+01 -0.13170627547E+01  0.11649296262E+03  0.11680808925E+03  0.00000000000E+00 0.  1.
        -11    1    5    5    0    0  0.16689727093E+03 -0.12961512765E+03  0.44245320963E+03  0.49032603752E+03  0.00000000000E+00 0. -1.
          4    1    6    6  503    0  0.52614419364E+02 -0.32552310741E+03 -0.19565259977E+03  0.38342340876E+03  0.00000000000E+00 0. -1.
         -4    1    6    6    0  503  0.64804368847E+02 -0.17836730976E+03 -0.46827001180E+02  0.19546680396E+03  0.00000000000E+00 0.  1.
<mgrwt>
<rscale>  0 0.21086739E+04</rscale>
<asrwt>0</asrwt>
<pdfrwt beam="1">  1        1 0.32552012E+00 0.21086739E+04</pdfrwt>
<pdfrwt beam="2">  1       -2 0.80826596E-01 0.21086739E+04</pdfrwt>
<totfact> 0.27102560E+00</totfact>
</mgrwt>
</event>
<event>
12    4  0.4207946E-008  0.1464301E+04  0.7818608E-02  0.8908546E-01
          1   -1    0    0  501    0  0.00000000000E+00  0.00000000000E+00  0.92512338503E+03  0.92512338503E+03  0.00000000000E+00 0. -1.
         -2   -1    0    0    0  501 -0.00000000000E+00 -0.00000000000E+00 -0.57943004058E+03  0.57943004058E+03  0.00000000000E+00 0.  1.
        -24    2    1    2    0    0 -0.31322500498E+03  0.36932261176E+03  0.14764439326E+03  0.51280795488E+03  0.81633549633E+02 0.  0.
        254    2    1    2    0    0  0.31322500498E+03 -0.36932261176E+03  0.19804895119E+03  0.99174547072E+03  0.84251207489E+03 0.  0.
         23    2    4    4    0    0  0.31055974517E+03  0.18353677191E+03 -0.56529865153E+02  0.37638001169E+03  0.91286283640E+02 0.  0.
         23    2    4    4    0    0  0.26652598093E+01 -0.55285938367E+03  0.25457881634E+03  0.61536545903E+03  0.90574128328E+02 0.  0.
          1    1    3    3  502    0 -0.59809409288E+02  0.11558020183E+03  0.17507608956E+02  0.13131056647E+03  0.00000000000E+00 0. -1.
         -2    1    3    3    0  502 -0.25341559570E+03  0.25374240993E+03  0.13013678431E+03  0.38149738842E+03  0.00000000000E+00 0.  1.
         11    1    5    5    0    0  0.33508702281E+02 -0.90164548322E+01 -0.63211788789E+01  0.35271615907E+02  0.00000000000E+00 0.  1.
        -11    1    5    5    0    0  0.27705104289E+03  0.19255322674E+03 -0.50208686274E+02  0.34110839578E+03  0.00000000000E+00 0. -1.
          2    1    6    6  503    0  0.21382633148E+02 -0.41438051685E+03  0.22687838924E+03  0.47290827149E+03  0.00000000000E+00 0. -1.
         -2    1    6    6    0  503 -0.18717373338E+02 -0.13847886682E+03  0.27700427107E+02  0.14245718754E+03  0.00000000000E+00 0.  1.
<mgrwt>
<rscale>  0 0.14643009E+04</rscale>
<asrwt>0</asrwt>
<pdfrwt beam="1">  1        1 0.14232667E+00 0.14643009E+04</pdfrwt>
<pdfrwt beam="2">  1       -2 0.89143083E-01 0.14643009E+04</pdfrwt>
<totfact> 0.15946312E+01</totfact>
</mgrwt>
</event>
<event>
12    4  0.4207946E-008  0.1195082E+04  0.7818608E-02  0.9117172E-01
          1   -1    0    0  501    0  0.00000000000E+00  0.00000000000E+00  0.69878414719E+03  0.69878414719E+03  0.00000000000E+00 0. -1.
         -2   -1    0    0    0  501 -0.00000000000E+00 -0.00000000000E+00 -0.51096616901E+03  0.51096616901E+03  0.00000000000E+00 0.  1.
        -24    2    1    2    0    0  0.71193012538E+02 -0.55624879808E+02 -0.19269924102E+03  0.22725265172E+03  0.79675579297E+02 0.  0.
        254    2    1    2    0    0 -0.71193012538E+02  0.55624879808E+02  0.38051721920E+03  0.98249766449E+03  0.90130224361E+03 0.  0.
         23    2    4    4    0    0 -0.33028716391E+03  0.32739420113E+03  0.53145829091E+02  0.47621201829E+03  0.87617541793E+02 0.  0.
         23    2    4    4    0    0  0.25909415138E+03 -0.27176932133E+03  0.32737139011E+03  0.50628564620E+03  0.90359200956E+02 0.  0.
          3    1    3    3  502    0  0.76213014889E+02 -0.37993259154E+02 -0.93887751130E+02  0.12675496516E+03  0.00000000000E+00 0. -1.
         -4    1    3    3    0  502 -0.50200023502E+01 -0.17631620654E+02 -0.98811489886E+02  0.10049768656E+03  0.00000000000E+00 0.  1.
         11    1    5    5    0    0 -0.18005888241E+03  0.11772976434E+03  0.30639826685E+02  0.21730231827E+03  0.00000000000E+00 0. -1.
        -11    1    5    5    0    0 -0.15022828151E+03  0.20966443679E+03  0.22506002406E+02  0.25890970002E+03  0.00000000000E+00 0.  1.
          4    1    6    6  503    0  0.56285222868E+02 -0.14795061677E+02  0.60257783563E+02  0.83773030525E+02  0.00000000000E+00 0. -1.
         -4    1    6    6    0  503  0.20280892851E+03 -0.25697425965E+03  0.26711360654E+03  0.42251261568E+03  0.00000000000E+00 0.  1.
<mgrwt>
<rscale>  0 0.11950817E+04</rscale>
<asrwt>0</asrwt>
<pdfrwt beam="1">  1        1 0.10750525E+00 0.11950817E+04</pdfrwt>
<pdfrwt beam="2">  1       -2 0.78610180E-01 0.11950817E+04</pdfrwt>
<totfact> 0.34062491E+01</totfact>
</mgrwt>
</event>
<event>
12    4  0.4207946E-008  0.1992597E+04  0.7818608E-02  0.8610090E-01
          1   -1    0    0  501    0  0.00000000000E+00  0.00000000000E+00  0.68854151042E+03  0.68854151042E+03  0.00000000000E+00 0. -1.
         -2   -1    0    0    0  501 -0.00000000000E+00 -0.00000000000E+00 -0.14416137605E+04  0.14416137605E+04  0.00000000000E+00 0.  1.
        -24    2    1    2    0    0 -0.87115420615E+02 -0.38822880918E+02 -0.11383502569E+04  0.11449126338E+04  0.76728867282E+02 0.  0.
        254    2    1    2    0    0  0.87115420615E+02  0.38822880918E+02  0.38527800678E+03  0.98524263716E+03  0.90175806011E+03 0.  0.
         23    2    4    4    0    0 -0.34951936996E+03  0.15431433305E+03  0.34442803824E+03  0.52247776007E+03  0.91518483838E+02 0.  0.
         23    2    4    4    0    0  0.43663479057E+03 -0.11549145213E+03  0.40849968534E+02  0.46276487709E+03  0.92165045896E+02 0.  0.
          3    1    3    3  502    0 -0.36502931255E+02 -0.77404482895E+01 -0.14288412875E+03  0.14767617540E+03  0.00000000000E+00 0. -1.
         -4    1    3    3    0  502 -0.50612489360E+02 -0.31082432629E+02 -0.99546612811E+03  0.99723645837E+03  0.00000000000E+00 0.  1.
         11    1    5    5    0    0 -0.87086889091E+01  0.22318373679E+02  0.67691594008E+01  0.24895232177E+02  0.00000000000E+00 0.  1.
        -11    1    5    5    0    0 -0.34081068105E+03  0.13199595937E+03  0.33765887884E+03  0.49758252790E+03  0.00000000000E+00 0. -1.
          1    1    6    6  503    0  0.39047900309E+03 -0.71167214492E+02  0.32705843274E+02  0.39825657114E+03  0.00000000000E+00 0. -1.
         -1    1    6    6    0  503  0.46155787483E+02 -0.44324237634E+02  0.81441252605E+01  0.64508305948E+02  0.00000000000E+00 0.  1.
<mgrwt>
<rscale>  0 0.19925972E+04</rscale>
<asrwt>0</asrwt>
<pdfrwt beam="1">  1        1 0.10592946E+00 0.19925972E+04</pdfrwt>
<pdfrwt beam="2">  1       -2 0.22178673E+00 0.19925972E+04</pdfrwt>
<totfact> 0.21860534E+00</totfact>
</mgrwt>
</event>
<event>
12    4  0.4207946E-008  0.1715802E+04  0.7818608E-02  0.8752403E-01
          1   -1    0    0  501    0  0.00000000000E+00  0.00000000000E+00  0.78049462269E+03  0.78049462269E+03  0.00000000000E+00 0. -1.
         -2   -1    0    0    0  501 -0.00000000000E+00 -0.00000000000E+00 -0.94298443348E+03  0.94298443348E+03  0.00000000000E+00 0.  1.
        -24    2    1    2    0    0 -0.28136675996E+03  0.12897595019E+03 -0.59904187552E+03  0.67881442226E+03  0.78331359623E+02 0.  0.
        254    2    1    2    0    0  0.28136675996E+03 -0.12897595019E+03  0.43655206474E+03  0.10446646339E+04  0.89718696088E+03 0.  0.
         23    2    4    4    0    0  0.40469214294E+03  0.48367808184E+02 -0.12474821411E+03  0.43626735825E+03  0.93015673511E+02 0.  0.
         23    2    4    4    0    0 -0.12332538298E+03 -0.17734375838E+03  0.56130027885E+03  0.60839727566E+03  0.91811128283E+02 0.  0.
          1    1    3    3  502    0 -0.17402907166E+02  0.30221692079E+02 -0.96953361014E+02  0.10303478084E+03  0.00000000000E+00 0. -1.
         -2    1    3    3    0  502 -0.26396385279E+03  0.98754258112E+02 -0.50208851451E+03  0.57577964143E+03  0.00000000000E+00 0.  1.
         11    1    5    5    0    0  0.40576633417E+03  0.38224872929E+02 -0.11910070766E+03  0.42460856965E+03  0.00000000000E+00 0.  1.
        -11    1    5    5    0    0 -0.10741912271E+01  0.10142935255E+02 -0.56475064506E+01  0.11658788595E+02  0.00000000000E+00 0. -1.
          1    1    6    6  503    0  0.10565963940E+02 -0.12474454558E+02  0.14704288408E+02  0.21987899128E+02  0.00000000000E+00 0. -1.
         -1    1    6    6    0  503 -0.13389134692E+03 -0.16486930382E+03  0.54659599044E+03  0.58640937654E+03  0.00000000000E+00 0.  1.
<mgrwt>
<rscale>  0 0.17158022E+04</rscale>
<asrwt>0</asrwt>
<pdfrwt beam="1">  1        1 0.12007610E+00 0.17158022E+04</pdfrwt>
<pdfrwt beam="2">  1       -2 0.14507453E+00 0.17158022E+04</pdfrwt>
<totfact> 0.62630591E+00</totfact>
</mgrwt>
</event>
<event>
12    4  0.4207946E-008  0.1239097E+04  0.7818608E-02  0.9079307E-01
          1   -1    0    0  501    0  0.00000000000E+00  0.00000000000E+00  0.11618323956E+04  0.11618323956E+04  0.00000000000E+00 0. -1.
         -2   -1    0    0    0  501 -0.00000000000E+00 -0.00000000000E+00 -0.33037484911E+03  0.33037484911E+03  0.00000000000E+00 0.  1.
        -24    2    1    2    0    0  0.23226460170E+03 -0.72036081062E+02  0.35345328869E+03  0.43670511886E+03  0.81523563326E+02 0.  0.
        254    2    1    2    0    0 -0.23226460170E+03  0.72036081062E+02  0.47800425780E+03  0.10555021258E+04  0.90909879826E+03 0.  0.
         23    2    4    4    0    0  0.12416883538E+03  0.35003693933E+03 -0.12240684334E+02  0.38286771289E+03  0.92163401867E+02 0.  0.
         23    2    4    4    0    0 -0.35643343708E+03 -0.27800085827E+03  0.49024494213E+03  0.67263441295E+03  0.88134431038E+02 0.  0.
          1    1    3    3  502    0  0.20250790975E+03 -0.30633975285E+02  0.29517275290E+03  0.35926988185E+03  0.00000000000E+00 0. -1.
         -2    1    3    3    0  502  0.29756691948E+02 -0.41402105776E+02  0.58280535795E+02  0.77435237011E+02  0.00000000000E+00 0.  1.
         11    1    5    5    0    0  0.68330199874E+02  0.27926526710E+03  0.17246541351E+02  0.28802004932E+03  0.00000000000E+00 0.  1.
        -11    1    5    5    0    0  0.55838635504E+02  0.70771672234E+02 -0.29487225685E+02  0.94847663568E+02  0.00000000000E+00 0. -1.
          3    1    6    6  503    0 -0.80091804020E+02 -0.29330870689E+02  0.61443473582E+02  0.10512039523E+03  0.00000000000E+00 0. -1.
         -3    1    6    6    0  503 -0.27634163306E+03 -0.24866998758E+03  0.42880146855E+03  0.56751401773E+03  0.00000000000E+00 0.  1.
<mgrwt>
<rscale>  0 0.12390968E+04</rscale>
<asrwt>0</asrwt>
<pdfrwt beam="1">  1        1 0.17874344E+00 0.12390968E+04</pdfrwt>
<pdfrwt beam="2">  1       -2 0.50826901E-01 0.12390968E+04</pdfrwt>
<totfact> 0.36101889E+01</totfact>
</mgrwt>
</event>
<event>
12    4  0.4207946E-008  0.1249747E+04  0.7818608E-02  0.9070394E-01
          1   -1    0    0  501    0  0.00000000000E+00  0.00000000000E+00  0.17639060838E+04  0.17639060838E+04  0.00000000000E+00 0. -1.
         -2   -1    0    0    0  501 -0.00000000000E+00 -0.00000000000E+00 -0.22136504719E+03  0.22136504719E+03  0.00000000000E+00 0.  1.
        -24    2    1    2    0    0 -0.78882522352E+02  0.23013701253E+03  0.13970625356E+03  0.29158387520E+03  0.79484728867E+02 0.  0.
        254    2    1    2    0    0  0.78882522352E+02 -0.23013701253E+03  0.14028347831E+04  0.16936872558E+04  0.91730343674E+03 0.  0.
         23    2    4    4    0    0 -0.37778122020E+00  0.19726806638E+03  0.11744870465E+04  0.11944853426E+04  0.91981403662E+02 0.  0.
         23    2    4    4    0    0  0.79260303572E+02 -0.42740507891E+03  0.22834773660E+03  0.49920191322E+03  0.90014244142E+02 0.  0.
          3    1    3    3  502    0 -0.21976143226E+02  0.69141940049E+02  0.26023422732E+01  0.72597044913E+02  0.00000000000E+00 0. -1.
         -4    1    3    3    0  502 -0.56906379125E+02  0.16099507248E+03  0.13710391128E+03  0.21898683028E+03  0.00000000000E+00 0.  1.
         11    1    5    5    0    0 -0.37967074068E+02  0.15341638452E+03  0.92460130732E+03  0.93801154751E+03  0.00000000000E+00 0. -1.
        -11    1    5    5    0    0  0.37589292848E+02  0.43851681857E+02  0.24988573917E+03  0.25647379512E+03  0.00000000000E+00 0.  1.
          4    1    6    6  503    0 -0.63143605342E+01  0.14962834536E+01  0.23065856867E+01  0.68869696282E+01  0.00000000000E+00 0.  1.
         -4    1    6    6    0  503  0.85574664106E+02 -0.42890136236E+03  0.22604115091E+03  0.49231494359E+03  0.00000000000E+00 0. -1.
<mgrwt>
<rscale>  0 0.12497474E+04</rscale>
<asrwt>0</asrwt>
<pdfrwt beam="1">  1        1 0.27137016E+00 0.12497474E+04</pdfrwt>
<pdfrwt beam="2">  1       -2 0.34056162E-01 0.12497474E+04</pdfrwt>
<totfact> 0.30135145E+01</totfact>
</mgrwt>
</event>
<event>
12    4  0.4207946E-008  0.2576454E+04  0.7818608E-02  0.8376244E-01
          1   -1    0    0  501    0  0.00000000000E+00  0.00000000000E+00  0.71173911572E+03  0.71173911572E+03  0.00000000000E+00 0. -1.
         -2   -1    0    0    0  501 -0.00000000000E+00 -0.00000000000E+00 -0.23316524928E+04  0.23316524928E+04  0.00000000000E+00 0.  1.
        -24    2    1    2    0    0 -0.53119029902E+03  0.95418592984E+03 -0.38295261254E+03  0.11600355519E+04  0.79974094473E+02 0.  0.
        254    2    1    2    0    0  0.53119029902E+03 -0.95418592984E+03 -0.12369607645E+04  0.18833560566E+04  0.90792300355E+03 0.  0.
         23    2    4    4    0    0 -0.93426999803E+01 -0.78309690008E+03 -0.96993802731E+03  0.12500417742E+04  0.92177109710E+02 0.  0.
         23    2    4    4    0    0  0.54053299900E+03 -0.17108902977E+03 -0.26702273720E+03  0.63331428233E+03  0.91315162500E+02 0.  0.
          1    1    3    3  502    0 -0.40080156289E+03  0.71141664142E+03 -0.32239157454E+03  0.87789057282E+03  0.00000000000E+00 0. -1.
         -2    1    3    3    0  502 -0.13038873614E+03  0.24276928842E+03 -0.60561038002E+02  0.28214497911E+03  0.00000000000E+00 0.  1.
         11    1    5    5    0    0 -0.10667366710E+02 -0.74619369343E+03 -0.95003824520E+03  0.12080941553E+04  0.00000000000E+00 0.  1.
        -11    1    5    5    0    0  0.13246667300E+01 -0.36903206645E+02 -0.19899782110E+02  0.41947618892E+02  0.00000000000E+00 0. -1.
          3    1    6    6  503    0  0.19450419563E+03 -0.74671269397E+02 -0.52262901800E+02  0.21480011987E+03  0.00000000000E+00 0. -1.
         -3    1    6    6    0  503  0.34602880337E+03 -0.96417760370E+02 -0.21475983540E+03  0.41851416246E+03  0.00000000000E+00 0.  1.
<mgrwt>
<rscale>  0 0.25764536E+04</rscale>
<asrwt>0</asrwt>
<pdfrwt beam="1">  1        1 0.10949833E+00 0.25764536E+04</pdfrwt>
<pdfrwt beam="2">  1       -2 0.35871577E+00 0.25764536E+04</pdfrwt>
<totfact> 0.28168536E-01</totfact>
</mgrwt>
</event>
<event>
12    4  0.4207946E-008  0.1820568E+04  0.7818608E-02  0.8695438E-01
          1   -1    0    0  501    0  0.00000000000E+00  0.00000000000E+00  0.93712267435E+03  0.93712267435E+03  0.00000000000E+00 0. -1.
         -2   -1    0    0    0  501 -0.00000000000E+00 -0.00000000000E+00 -0.88421371802E+03  0.88421371802E+03  0.00000000000E+00 0.  1.
        -24    2    1    2    0    0 -0.38708802005E+03  0.46561151495E+03  0.34102785032E+03  0.69979206224E+03  0.82326894535E+02 0.  0.
        254    2    1    2    0    0  0.38708802005E+03 -0.46561151495E+03 -0.28811889399E+03  0.11215443301E+04  0.89900943780E+03 0.  0.
         23    2    4    4    0    0  0.31555135488E+03 -0.40867731067E+03  0.24086051990E+03  0.57706967878E+03  0.91683271691E+02 0.  0.
         23    2    4    4    0    0  0.71536665170E+02 -0.56934204281E+02 -0.52897941388E+03  0.54447465135E+03  0.90963880568E+02 0.  0.
          1    1    3    3  502    0 -0.30092117895E+03  0.40092296550E+03  0.25814045899E+03  0.56385217635E+03  0.00000000000E+00 0. -1.
         -2    1    3    3    0  502 -0.86166841103E+02  0.64688549446E+02  0.82887391328E+02  0.13593988589E+03  0.00000000000E+00 0.  1.
         11    1    5    5    0    0  0.19143705850E+03 -0.17696601512E+03  0.13626762759E+03  0.29416659260E+03  0.00000000000E+00 0. -1.
        -11    1    5    5    0    0  0.12411429638E+03 -0.23171129555E+03  0.10459289230E+03  0.28290308618E+03  0.00000000000E+00 0.  1.
          1    1    6    6  503    0  0.83472150348E+02 -0.22001995061E+02 -0.43544961595E+03  0.44392347955E+03  0.00000000000E+00 0. -1.
         -1    1    6    6    0  503 -0.11935485178E+02 -0.34932209219E+02 -0.93529797934E+02  0.10055117179E+03  0.00000000000E+00 0.  1.
<mgrwt>
<rscale>  0 0.18205677E+04</rscale>
<asrwt>0</asrwt>
<pdfrwt beam="1">  1        1 0.14417272E+00 0.18205677E+04</pdfrwt>
<pdfrwt beam="2">  1       -2 0.13603288E+00 0.18205677E+04</pdfrwt>
<totfact> 0.54210166E+00</totfact>
</mgrwt>
</event>
<event>
12    4  0.4207946E-008  0.1156835E+04  0.7818608E-02  0.9151501E-01
         -2   -1    0    0    0  501 -0.00000000000E+00  0.00000000000E+00  0.59863272867E+03  0.59863272867E+03  0.00000000000E+00 0.  1.
          1   -1    0    0  501    0  0.00000000000E+00 -0.00000000000E+00 -0.55888465364E+03  0.55888465364E+03  0.00000000000E+00 0. -1.
        -24    2    1    2    0    0 -0.28971571951E+02  0.75914092283E+02 -0.19301865237E+03  0.22194110566E+03  0.73480288712E+02 0.  0.
        254    2    1    2    0    0  0.28971571951E+02 -0.75914092283E+02  0.23276672739E+03  0.93557627666E+03  0.90250779425E+03 0.  0.
         23    2    4    4    0    0 -0.16988047590E+03 -0.33619330507E+03  0.39987381959E+03  0.55696785083E+03  0.91808500661E+02 0.  0.
         23    2    4    4    0    0  0.19885204785E+03  0.26027921279E+03 -0.16710709220E+03  0.37860842583E+03  0.90178458074E+02 0.  0.
          3    1    3    3  502    0 -0.24778473546E+02  0.86471791959E+02 -0.18995289645E+03  0.21017479969E+03  0.00000000000E+00 0. -1.
         -4    1    3    3    0  502 -0.41930984047E+01 -0.10557699676E+02 -0.30657559175E+01  0.11766305963E+02  0.00000000000E+00 0.  1.
         11    1    5    5    0    0  0.34956966554E+01 -0.14321840229E+02  0.45428152960E+02  0.47760361012E+02  0.00000000000E+00 0.  1.
        -11    1    5    5    0    0 -0.17337617256E+03 -0.32187146484E+03  0.35444566663E+03  0.50920748982E+03  0.00000000000E+00 0. -1.
          1    1    6    6  503    0  0.17654253504E+03  0.18051121242E+03 -0.15109178512E+03  0.29424529226E+03  0.00000000000E+00 0. -1.
         -1    1    6    6    0  503  0.22309512817E+02  0.79768000370E+02 -0.16015307082E+02  0.84363133572E+02  0.00000000000E+00 0.  1.
<mgrwt>
<rscale>  0 0.11568347E+04</rscale>
<asrwt>0</asrwt>
<pdfrwt beam="1">  1        1 0.85982255E-01 0.11568347E+04</pdfrwt>
<pdfrwt beam="2">  1       -2 0.92097342E-01 0.11568347E+04</pdfrwt>
<totfact> 0.33005898E+01</totfact>
</mgrwt>
</event>
<event>
12    4  0.4207946E-008  0.1538739E+04  0.7818608E-02  0.8859093E-01
          1   -1    0    0  501    0  0.00000000000E+00  0.00000000000E+00  0.10424006639E+04  0.10424006639E+04  0.00000000000E+00 0. -1.
         -2   -1    0    0    0  501 -0.00000000000E+00 -0.00000000000E+00 -0.56785221796E+03  0.56785221796E+03  0.00000000000E+00 0.  1.
        -24    2    1    2    0    0  0.18085944200E+03  0.19697986013E+03  0.57113028750E+03  0.63541159240E+03  0.77761709124E+02 0.  0.
        254    2    1    2    0    0 -0.18085944200E+03 -0.19697986013E+03 -0.96581841525E+02  0.97484128949E+03  0.93245712208E+03 0.  0.
         23    2    4    4    0    0 -0.35348635025E+03 -0.62325446017E+01 -0.41736186040E+03  0.55395478796E+03  0.87655805083E+02 0.  0.
         23    2    4    4    0    0  0.17262690825E+03 -0.19074731553E+03  0.32078001887E+03  0.42088650152E+03  0.89783288113E+02 0.  0.
          3    1    3    3  502    0  0.17268804666E+03  0.17550765997E+03  0.45816655172E+03  0.52013526056E+03  0.00000000000E+00 0. -1.
         -4    1    3    3    0  502  0.81713953434E+01  0.21472200160E+02  0.11296373578E+03  0.11527633184E+03  0.00000000000E+00 0.  1.
         11    1    5    5    0    0 -0.12911315381E+03  0.39347385077E+02 -0.14377389698E+03  0.19720384543E+03  0.00000000000E+00 0.  1.
        -11    1    5    5    0    0 -0.22437319644E+03 -0.45579929679E+02 -0.27358796342E+03  0.35675094253E+03  0.00000000000E+00 0. -1.
          3    1    6    6  503    0  0.43810319704E+02 -0.99467476270E+02  0.89174916568E+02  0.14058907743E+03  0.00000000000E+00 0. -1.
         -3    1    6    6    0  503  0.12881658854E+03 -0.91279839257E+02  0.23160510231E+03  0.28029742409E+03  0.00000000000E+00 0.  1.
<mgrwt>
<rscale>  0 0.15387391E+04</rscale>
<asrwt>0</asrwt>
<pdfrwt beam="1">  1        1 0.16036933E+00 0.15387391E+04</pdfrwt>
<pdfrwt beam="2">  1       -2 0.87361880E-01 0.15387391E+04</pdfrwt>
<totfact> 0.13421745E+01</totfact>
</mgrwt>
</event>
<event>
12    4  0.4207946E-008  0.1349028E+04  0.7818608E-02  0.8991564E-01
         -2   -1    0    0    0  501 -0.00000000000E+00  0.00000000000E+00  0.50653095660E+03  0.50653095660E+03  0.00000000000E+00 0.  1.
          1   -1    0    0  501    0  0.00000000000E+00 -0.00000000000E+00 -0.89820596595E+03  0.89820596595E+03  0.00000000000E+00 0. -1.
        -24    2    1    2    0    0 -0.11556527184E+03  0.71989581224E+02  0.26062703418E+03  0.30446286360E+03  0.78951583317E+02 0.  0.
        254    2    1    2    0    0  0.11556527184E+03 -0.71989581224E+02 -0.65230204354E+03  0.11002740589E+04  0.87553824412E+03 0.  0.
         23    2    4    4    0    0 -0.45758575929E+02  0.38150059882E+03 -0.30578943289E+03  0.49997214201E+03  0.93959626166E+02 0.  0.
         23    2    4    4    0    0  0.16132384777E+03 -0.45349018005E+03 -0.34651261064E+03  0.60030191693E+03  0.92804498153E+02 0.  0.
          1    1    3    3  502    0 -0.66866238903E+02 -0.99777859559E+00  0.85142854963E+02  0.10826539252E+03  0.00000000000E+00 0. -1.
         -2    1    3    3    0  502 -0.48699032933E+02  0.72987359820E+02  0.17548417922E+03  0.19619747108E+03  0.00000000000E+00 0.  1.
         11    1    5    5    0    0 -0.65611785677E+02  0.28488945091E+03 -0.25997452628E+03  0.39122073050E+03  0.00000000000E+00 0. -1.
        -11    1    5    5    0    0  0.19853209748E+02  0.96611147917E+02 -0.45814906615E+02  0.10875141152E+03  0.00000000000E+00 0.  1.
          1    1    6    6  503    0  0.14229553782E+03 -0.38585858811E+03 -0.33204021249E+03  0.52856936424E+03  0.00000000000E+00 0. -1.
         -1    1    6    6    0  503  0.19028309947E+02 -0.67631591934E+02 -0.14472398155E+02  0.71732552689E+02  0.00000000000E+00 0.  1.
<mgrwt>
<rscale>  0 0.13490280E+04</rscale>
<asrwt>0</asrwt>
<pdfrwt beam="1">  1        1 0.13818553E+00 0.13490280E+04</pdfrwt>
<pdfrwt beam="2">  1       -2 0.77927841E-01 0.13490280E+04</pdfrwt>
<totfact> 0.22969160E+01</totfact>
</mgrwt>
</event>
<event>
12    4  0.4207946E-008  0.1580936E+04  0.7818608E-02  0.8832346E-01
         -2   -1    0    0    0  501 -0.00000000000E+00  0.00000000000E+00  0.41060130451E+03  0.41060130451E+03  0.00000000000E+00 0.  1.
          1   -1    0    0  501    0  0.00000000000E+00 -0.00000000000E+00 -0.15217679899E+04  0.15217679899E+04  0.00000000000E+00 0. -1.
        -24    2    1    2    0    0  0.96459453991E+02  0.57003599135E+03 -0.54631172477E+03  0.79941842451E+03  0.79798866681E+02 0.  0.
        254    2    1    2    0    0 -0.96459453991E+02 -0.57003599135E+03 -0.56485496066E+03  0.11329508700E+04  0.79389614525E+03 0.  0.
         23    2    4    4    0    0  0.13780411071E+03 -0.53132208794E+03 -0.65833151045E+03  0.86205208968E+03  0.91871070532E+02 0.  0.
         23    2    4    4    0    0 -0.23426356470E+03 -0.38713903405E+02  0.93476549791E+02  0.27089878027E+03  0.90940088672E+02 0.  0.
          3    1    3    3  502    0  0.36825839232E+01  0.13642988744E+03 -0.16873906189E+03  0.21702429961E+03  0.00000000000E+00 0. -1.
         -4    1    3    3    0  502  0.92776870068E+02  0.43360610391E+03 -0.37757266288E+03  0.58239412490E+03  0.00000000000E+00 0.  1.
         11    1    5    5    0    0  0.61880525692E+01 -0.29218517782E+02 -0.77634160191E+02  0.83180987038E+02  0.00000000000E+00 0. -1.
        -11    1    5    5    0    0  0.13161605814E+03 -0.50210357016E+03 -0.58069735026E+03  0.77887110264E+03  0.00000000000E+00 0.  1.
          4    1    6    6  503    0 -0.56855998840E+02 -0.48029256722E+02  0.44104911413E+02  0.86513914003E+02  0.00000000000E+00 0. -1.
         -4    1    6    6    0  503 -0.17740756586E+03  0.93153533170E+01  0.49371638379E+02  0.18438486627E+03  0.00000000000E+00 0.  1.
<mgrwt>
<rscale>  0 0.15809363E+04</rscale>
<asrwt>0</asrwt>
<pdfrwt beam="1">  1        1 0.23411815E+00 0.15809363E+04</pdfrwt>
<pdfrwt beam="2">  1       -2 0.63169431E-01 0.15809363E+04</pdfrwt>
<totfact> 0.12367701E+01</totfact>
</mgrwt>
</event>
<event>
12    4  0.4207946E-008  0.1333753E+04  0.7818608E-02  0.9003219E-01
          1   -1    0    0  501    0  0.00000000000E+00  0.00000000000E+00  0.17722533916E+04  0.17722533916E+04  0.00000000000E+00 0. -1.
         -2   -1    0    0    0  501 -0.00000000000E+00 -0.00000000000E+00 -0.25093728464E+03  0.25093728464E+03  0.00000000000E+00 0.  1.
        -24    2    1    2    0    0  0.26698327357E+03  0.15910893190E+03  0.96548608222E+03  0.10172926853E+04  0.78264372930E+02 0.  0.
        254    2    1    2    0    0 -0.26698327357E+03 -0.15910893190E+03  0.55583002472E+03  0.10058979909E+04  0.77864499686E+03 0.  0.
         23    2    4    4    0    0 -0.50752476442E+03 -0.14602144081E+03  0.51886532275E+03  0.74604570938E+03  0.91974614200E+02 0.  0.
         23    2    4    4    0    0  0.24054149085E+03 -0.13087491087E+02  0.36964701977E+02  0.25985228152E+03  0.90140600048E+02 0.  0.
          1    1    3    3  502    0  0.20243255876E+03  0.15627116980E+03  0.75778857487E+03  0.79977693362E+03  0.00000000000E+00 0. -1.
         -4    1    3    3    0  502  0.64550714815E+02  0.28377621050E+01  0.20769750735E+03  0.21751575170E+03  0.00000000000E+00 0.  1.
         11    1    5    5    0    0 -0.25055751820E+03 -0.11061809498E+03  0.30432690995E+03  0.40942679563E+03  0.00000000000E+00 0. -1.
        -11    1    5    5    0    0 -0.25696724622E+03 -0.35403345834E+02  0.21453841280E+03  0.33661891374E+03  0.00000000000E+00 0.  1.
          3    1    6    6  503    0  0.14719259005E+03  0.31079572240E+02  0.82274328648E+00  0.15044027148E+03  0.00000000000E+00 0. -1.
         -3    1    6    6    0  503  0.93348900793E+02 -0.44167063328E+02  0.36141958691E+02  0.10941201004E+03  0.00000000000E+00 0.  1.
<mgrwt>
<rscale>  0 0.13337533E+04</rscale>
<asrwt>0</asrwt>
<pdfrwt beam="1">  1        1 0.27265436E+00 0.13337533E+04</pdfrwt>
<pdfrwt beam="2">  1       -2 0.38605737E-01 0.13337533E+04</pdfrwt>
<totfact> 0.23210086E+01</totfact>
</mgrwt>
</event>
<event>
12    4  0.4207946E-008  0.2141728E+04  0.7818608E-02  0.8543082E-01
          1   -1    0    0  501    0  0.00000000000E+00  0.00000000000E+00  0.12986204649E+04  0.12986204649E+04  0.00000000000E+00 0. -1.
         -2   -1    0    0    0  501 -0.00000000000E+00 -0.00000000000E+00 -0.88305193534E+03  0.88305193534E+03  0.00000000000E+00 0.  1.
        -24    2    1    2    0    0 -0.66484686878E+02 -0.75432218875E+03 -0.28618364594E+03  0.81346237548E+03  0.79986118110E+02 0.  0.
        254    2    1    2    0    0  0.66484686878E+02  0.75432218875E+03  0.70175217546E+03  0.13682100247E+04  0.89784206736E+03 0.  0.
         23    2    4    4    0    0 -0.23241985036E+03  0.70697015035E+03  0.20190982096E+03  0.77669141121E+03  0.93038659367E+02 0.  0.
         23    2    4    4    0    0  0.29890453723E+03  0.47352038410E+02  0.49984235451E+03  0.59151861350E+03  0.92009525804E+02 0.  0.
          3    1    3    3  502    0 -0.31223819078E+02 -0.64176001997E+03 -0.22655462687E+03  0.68129130999E+03  0.00000000000E+00 0. -1.
         -4    1    3    3    0  502 -0.35260867800E+02 -0.11256216879E+03 -0.59629019067E+02  0.13217106550E+03  0.00000000000E+00 0.  1.
         11    1    5    5    0    0 -0.17052168929E+03  0.51976075723E+03  0.19029478322E+03  0.57917268219E+03  0.00000000000E+00 0. -1.
        -11    1    5    5    0    0 -0.61898161065E+02  0.18720939312E+03  0.11615037739E+02  0.19751872903E+03  0.00000000000E+00 0.  1.
          4    1    6    6  503    0  0.68527118115E+02 -0.47641595991E+01  0.55548974121E+02  0.88342241650E+02  0.00000000000E+00 0. -1.
         -4    1    6    6    0  503  0.23037741912E+03  0.52116198009E+02  0.44429338039E+03  0.50317637185E+03  0.00000000000E+00 0.  1.
<mgrwt>
<rscale>  0 0.21417276E+04</rscale>
<asrwt>0</asrwt>
<pdfrwt beam="1">  1        1 0.19978776E+00 0.21417276E+04</pdfrwt>
<pdfrwt beam="2">  1       -2 0.13585414E+00 0.21417276E+04</pdfrwt>
<totfact> 0.28300213E+00</totfact>
</mgrwt>
</event>
<event>
12    4  0.4207946E-008  0.1166439E+04  0.7818608E-02  0.9142751E-01
          3   -1    0    0  501    0  0.00000000000E+00  0.00000000000E+00  0.38085593264E+04  0.38085593264E+04  0.00000000000E+00 0. -1.
         -4   -1    0    0    0  501 -0.00000000000E+00 -0.00000000000E+00 -0.89310641014E+02  0.89310641014E+02  0.00000000000E+00 0.  1.
        -24    2    1    2    0    0  0.21281299983E+03  0.72909769341E+02  0.10776980127E+04  0.11036474291E+04  0.77456012254E+02 0.  0.
        254    2    1    2    0    0 -0.21281299983E+03 -0.72909769341E+02  0.26415506727E+04  0.27942225383E+04  0.88277088186E+03 0.  0.
         23    2    4    4    0    0 -0.63650357960E+02  0.38736963902E+03  0.93700291185E+03  0.10199973010E+04  0.91178023236E+02 0.  0.
         23    2    4    4    0    0 -0.14916264187E+03 -0.46027940837E+03  0.17045477608E+04  0.17742252373E+04  0.91024701285E+02 0.  0.
          1    1    3    3  502    0  0.20278959173E+03  0.52980203592E+02  0.10283348403E+04  0.10494775196E+04  0.00000000000E+00 0. -1.
         -2    1    3    3    0  502  0.10023408101E+02  0.19929565750E+02  0.49363172441E+02  0.54169909492E+02  0.00000000000E+00 0.  1.
         11    1    5    5    0    0 -0.43858544101E+02  0.29084295148E+03  0.58964809679E+03  0.65893707769E+03  0.00000000000E+00 0. -1.
        -11    1    5    5    0    0 -0.19791813859E+02  0.96526687543E+02  0.34735481506E+03  0.36106022330E+03  0.00000000000E+00 0.  1.
          1    1    6    6  503    0 -0.92198573103E+02 -0.36404754725E+03  0.14102949537E+04  0.14594392930E+04  0.00000000000E+00 0. -1.
         -1    1    6    6    0  503 -0.56964068765E+02 -0.96231861117E+02  0.29425280716E+03  0.31478594433E+03  0.00000000000E+00 0.  1.
<mgrwt>
<rscale>  0 0.11664388E+04</rscale>
<asrwt>0</asrwt>
<pdfrwt beam="1">  1        3 0.58593208E+00 0.11664388E+04</pdfrwt>
<pdfrwt beam="2">  1       -4 0.13740102E-01 0.11664388E+04</pdfrwt>
<totfact> 0.14130032E-01</totfact>
</mgrwt>
</event>
<event>
12    4  0.4207946E-008  0.3258297E+04  0.7818608E-02  0.8173589E-01
          1   -1    0    0  501    0  0.00000000000E+00  0.00000000000E+00  0.17357017739E+04  0.17357017739E+04  0.00000000000E+00 0. -1.
         -2   -1    0    0    0  501 -0.00000000000E+00 -0.00000000000E+00 -0.15291361149E+04  0.15291361149E+04  0.00000000000E+00 0.  1.
        -24    2    1    2    0    0 -0.13959692555E+04 -0.44831227631E+03  0.42635547909E+03  0.15291393307E+04  0.82304549148E+02 0.  0.
        254    2    1    2    0    0  0.13959692555E+04  0.44831227631E+03 -0.21978982000E+03  0.17356985581E+04  0.90256737170E+03 0.  0.
         23    2    4    4    0    0 -0.24436843326E+02  0.17740953405E+03 -0.20523345781E+03  0.28671784177E+03  0.89526792079E+02 0.  0.
         23    2    4    4    0    0  0.14204060988E+04  0.27090274226E+03 -0.14556362192E+02  0.14489807164E+04  0.91604844307E+02 0.  0.
          3    1    3    3  502    0 -0.13720211542E+04 -0.43612571834E+03  0.40722673630E+03  0.14961555081E+04  0.00000000000E+00 0. -1.
         -4    1    3    3    0  502 -0.23948101255E+02 -0.12186557976E+02  0.19128742781E+02  0.32983822541E+02  0.00000000000E+00 0.  1.
         11    1    5    5    0    0 -0.86240202798E+01  0.33760401768E+02  0.10365178248E+01  0.34859902790E+02  0.00000000000E+00 0. -1.
        -11    1    5    5    0    0 -0.15812823046E+02  0.14364913228E+03 -0.20626997563E+03  0.25185793898E+03  0.00000000000E+00 0.  1.
          2    1    6    6  503    0  0.15107208687E+03  0.54824781659E+02  0.11494735054E+02  0.16112312388E+03  0.00000000000E+00 0. -1.
         -2    1    6    6    0  503  0.12693340119E+04  0.21607796060E+03 -0.26051097247E+02  0.12878575925E+04  0.00000000000E+00 0.  1.
<mgrwt>
<rscale>  0 0.32582967E+04</rscale>
<asrwt>0</asrwt>
<pdfrwt beam="1">  1        1 0.26703104E+00 0.32582967E+04</pdfrwt>
<pdfrwt beam="2">  1       -2 0.23525171E+00 0.32582967E+04</pdfrwt>
<totfact> 0.26136567E-01</totfact>
</mgrwt>
</event>
<event>
12    4  0.4207946E-008  0.1044753E+04  0.7818608E-02  0.9260778E-01
          1   -1    0    0  501    0  0.00000000000E+00  0.00000000000E+00  0.15446092150E+04  0.15446092150E+04  0.00000000000E+00 0. -1.
         -2   -1    0    0    0  501 -0.00000000000E+00 -0.00000000000E+00 -0.17666431361E+03  0.17666431361E+03  0.00000000000E+00 0.  1.
        -24    2    1    2    0    0 -0.13315954074E+03 -0.71853432307E+01  0.17282403875E+03  0.23137417532E+03  0.76699205916E+02 0.  0.
        254    2    1    2    0    0  0.13315954074E+03  0.71853432307E+01  0.11951208626E+04  0.14898993533E+04  0.87960395303E+03 0.  0.
         23    2    4    4    0    0  0.26227649203E+02 -0.32755410514E+03  0.10422174100E+04  0.10965124620E+04  0.90237842688E+02 0.  0.
         23    2    4    4    0    0  0.10693189153E+03  0.33473944837E+03  0.15290345265E+03  0.39338689130E+03  0.88819213520E+02 0.  0.
          3    1    3    3  502    0  0.29927040240E+01  0.41398350756E+01  0.41690612892E+02  0.42002401302E+02  0.00000000000E+00 0. -1.
         -4    1    3    3    0  502 -0.13615224476E+03 -0.11325178306E+02  0.13113342586E+03  0.18937177401E+03  0.00000000000E+00 0.  1.
         11    1    5    5    0    0  0.58707156522E+02 -0.19935562781E+03  0.60222612523E+03  0.63707574313E+03  0.00000000000E+00 0. -1.
        -11    1    5    5    0    0 -0.32479507319E+02 -0.12819847733E+03  0.43999128474E+03  0.45943671886E+03  0.00000000000E+00 0.  1.
          4    1    6    6  503    0  0.28744271202E+02  0.19909757629E+03  0.11716895811E+03  0.23279742859E+03  0.00000000000E+00 0. -1.
         -4    1    6    6    0  503  0.78187620332E+02  0.13564187208E+03  0.35734494547E+02  0.16058946272E+03  0.00000000000E+00 0.  1.
<mgrwt>
<rscale>  0 0.10447532E+04</rscale>
<asrwt>0</asrwt>
<pdfrwt beam="1">  1        1 0.23763218E+00 0.10447532E+04</pdfrwt>
<pdfrwt beam="2">  1       -2 0.27179126E-01 0.10447532E+04</pdfrwt>
<totfact> 0.65848901E+01</totfact>
</mgrwt>
</event>
<event>
12    4  0.4207946E-008  0.2881897E+04  0.7818608E-02  0.8278284E-01
         -2   -1    0    0    0  501 -0.00000000000E+00  0.00000000000E+00  0.73109066671E+03  0.73109066671E+03  0.00000000000E+00 0.  1.
          1   -1    0    0  501    0  0.00000000000E+00 -0.00000000000E+00 -0.28400478773E+04  0.28400478773E+04  0.00000000000E+00 0. -1.
        -24    2    1    2    0    0 -0.50806868962E+03 -0.54428980094E+02 -0.24362157033E+04  0.24905058945E+04  0.79852051396E+02 0.  0.
        254    2    1    2    0    0  0.50806868962E+03  0.54428980094E+02  0.32725849278E+03  0.10806326495E+04  0.89418817637E+03 0.  0.
         23    2    4    4    0    0  0.39872766288E+02 -0.11145850668E+03 -0.26381036073E+03  0.30188326542E+03  0.86745393589E+02 0.  0.
         23    2    4    4    0    0  0.46819592333E+03  0.16588748677E+03  0.59106885351E+03  0.77874938405E+03  0.10179456117E+03 0.  0.
          1    1    3    3  502    0 -0.26340459152E+03 -0.66121122745E+02 -0.12180731242E+04  0.12479808162E+04  0.00000000000E+00 0. -1.
         -2    1    3    3    0  502 -0.24466409810E+03  0.11692142651E+02 -0.12181425791E+04  0.12425250783E+04  0.00000000000E+00 0.  1.
         11    1    5    5    0    0  0.55361480974E+02 -0.56106983064E+02 -0.20508468774E+03  0.21971030078E+03  0.00000000000E+00 0.  1.
        -11    1    5    5    0    0 -0.15488714686E+02 -0.55351523616E+02 -0.58725672991E+02  0.82172964638E+02  0.00000000000E+00 0. -1.
          1    1    6    6  503    0  0.86759457433E+02  0.50224050340E+02  0.68052000497E+02  0.12116407660E+03  0.00000000000E+00 0. -1.
         -1    1    6    6    0  503  0.38143646590E+03  0.11566343643E+03  0.52301685301E+03  0.65758530745E+03  0.00000000000E+00 0.  1.
<mgrwt>
<rscale>  0 0.28818969E+04</rscale>
<asrwt>0</asrwt>
<pdfrwt beam="1">  1        1 0.43693045E+00 0.28818969E+04</pdfrwt>
<pdfrwt beam="2">  1       -2 0.11247549E+00 0.28818969E+04</pdfrwt>
<totfact> 0.36713655E-01</totfact>
</mgrwt>
</event>
<event>
12    4  0.4207946E-008  0.1598545E+04  0.7818608E-02  0.8821442E-01
          1   -1    0    0  501    0  0.00000000000E+00  0.00000000000E+00  0.27053291846E+04  0.27053291846E+04  0.00000000000E+00 0. -1.
         -2   -1    0    0    0  501 -0.00000000000E+00 -0.00000000000E+00 -0.23613997976E+03  0.23613997976E+03  0.00000000000E+00 0.  1.
        -24    2    1    2    0    0  0.24142064203E+03 -0.38556358485E+03  0.29441615903E+03  0.54790144598E+03  0.81067351301E+02 0.  0.
        254    2    1    2    0    0 -0.24142064203E+03  0.38556358485E+03  0.21747730458E+04  0.23935677183E+04  0.89027266460E+03 0.  0.
         23    2    4    4    0    0 -0.47944438324E+02  0.53163906739E+03  0.64726521134E+03  0.84426437733E+03  0.94293784967E+02 0.  0.
         23    2    4    4    0    0 -0.19347620371E+03 -0.14607548254E+03  0.15275078344E+04  0.15493033410E+04  0.91047076927E+02 0.  0.
          3    1    3    3  502    0  0.50604468567E+02 -0.10933444630E+03  0.40984192292E+02  0.12725775970E+03  0.00000000000E+00 0. -1.
         -4    1    3    3    0  502  0.19081617346E+03 -0.27622913855E+03  0.25343196674E+03  0.42064368628E+03  0.00000000000E+00 0.  1.
         11    1    5    5    0    0  0.12560100155E+02  0.10369806488E+02  0.11711304957E+02  0.20060998637E+02  0.00000000000E+00 0.  1.
        -11    1    5    5    0    0 -0.60504538480E+02  0.52126926090E+03  0.63555390638E+03  0.82420337870E+03  0.00000000000E+00 0. -1.
          2    1    6    6  503    0 -0.68246168681E+02 -0.85954110369E+02  0.89603084446E+03  0.90272749091E+03  0.00000000000E+00 0. -1.
         -2    1    6    6    0  503 -0.12523003502E+03 -0.60121372172E+02  0.63147698998E+03  0.64657585010E+03  0.00000000000E+00 0.  1.
<mgrwt>
<rscale>  0 0.15985448E+04</rscale>
<asrwt>0</asrwt>
<pdfrwt beam="1">  1        1 0.41620447E+00 0.15985448E+04</pdfrwt>
<pdfrwt beam="2">  1       -2 0.36329229E-01 0.15985448E+04</pdfrwt>
<totfact> 0.58649103E+00</totfact>
</mgrwt>
</event>
<event>
12    4  0.4303029E-008  0.1884589E+04  0.7818608E-02  0.8662566E-01
          1   -1    0    0  501    0  0.00000000000E+00  0.00000000000E+00  0.21462592177E+04  0.21462592177E+04  0.00000000000E+00 0. -1.
         -2   -1    0    0    0  501 -0.00000000000E+00 -0.00000000000E+00 -0.41370546898E+03  0.41370546898E+03  0.00000000000E+00 0.  1.
        -24    2    1    2    0    0  0.13157510830E+03 -0.26711931752E+03  0.15730797779E+04  0.16029858449E+04  0.79491460481E+02 0.  0.
        254    2    1    2    0    0 -0.13157510830E+03  0.26711931752E+03  0.15947397081E+03  0.95697884180E+03  0.89538361465E+03 0.  0.
         23    2    4    4    0    0 -0.47839154894E+03  0.23470737276E+03  0.23568882671E+03  0.58997992768E+03  0.92634049366E+02 0.  0.
         23    2    4    4    0    0  0.34681644064E+03  0.32411944760E+02 -0.76214855896E+02  0.36699891413E+03  0.86875318993E+02 0.  0.
          1    1    3    3  502    0  0.11600179307E+03 -0.23556915340E+03  0.14867787236E+04  0.15097881358E+04  0.00000000000E+00 0. -1.
         -2    1    3    3    0  502  0.15573315237E+02 -0.31550164112E+02  0.86301054265E+02  0.93197709040E+02  0.00000000000E+00 0.  1.
         11    1    5    5    0    0 -0.36737272745E+02 -0.59145894701E+01  0.24119102210E+02  0.44343439975E+02  0.00000000000E+00 0.  1.
        -11    1    5    5    0    0 -0.44165427620E+03  0.24062196223E+03  0.21156972450E+03  0.54563648770E+03  0.00000000000E+00 0. -1.
          4    1    6    6  503    0  0.32219795782E+03  0.11623148909E+02 -0.85338118472E+02  0.33351044374E+03  0.00000000000E+00 0. -1.
         -4    1    6    6    0  503  0.24618482813E+02  0.20788795851E+02  0.91232625761E+01  0.33488470389E+02  0.00000000000E+00 0.  1.
<mgrwt>
<rscale>  0 0.18845893E+04</rscale>
<asrwt>0</asrwt>
<pdfrwt beam="1">  1        1 0.33019372E+00 0.18845893E+04</pdfrwt>
<pdfrwt beam="2">  1       -2 0.63646996E-01 0.18845893E+04</pdfrwt>
<totfact> 0.44549755E+00</totfact>
</mgrwt>
</event>
<event>
12    4  0.4207946E-008  0.1809628E+04  0.7818608E-02  0.8701196E-01
          1   -1    0    0  501    0  0.00000000000E+00  0.00000000000E+00  0.15375432466E+04  0.15375432466E+04  0.00000000000E+00 0. -1.
         -2   -1    0    0    0  501 -0.00000000000E+00 -0.00000000000E+00 -0.53246543366E+03  0.53246543366E+03  0.00000000000E+00 0.  1.
        -24    2    1    2    0    0  0.50596272917E+02 -0.81225344327E+02  0.11567359990E+04  0.11634022621E+04  0.79429923296E+02 0.  0.
        254    2    1    2    0    0 -0.50596272917E+02  0.81225344327E+02 -0.15165818601E+03  0.90660641819E+03  0.88869424029E+03 0.  0.
         23    2    4    4    0    0 -0.33158067494E+03  0.29398806309E+03 -0.26580176935E+03  0.52459672104E+03  0.90423525231E+02 0.  0.
         23    2    4    4    0    0  0.28098440202E+03 -0.21276271876E+03  0.11414358334E+03  0.38200969714E+03  0.93179624511E+02 0.  0.
          3    1    3    3  502    0  0.18572220922E+02 -0.57702911700E+02  0.99544419806E+03  0.99728817543E+03  0.00000000000E+00 0. -1.
         -4    1    3    3    0  502  0.32024051995E+02 -0.23522432628E+02  0.16129180091E+03  0.16611408665E+03  0.00000000000E+00 0.  1.
         11    1    5    5    0    0 -0.27008588097E+03  0.20499679502E+03 -0.23353879307E+03  0.41171645211E+03  0.00000000000E+00 0.  1.
        -11    1    5    5    0    0 -0.61494793963E+02  0.88991268069E+02 -0.32262976280E+02  0.11288026894E+03  0.00000000000E+00 0. -1.
          2    1    6    6  503    0  0.56227453530E+01 -0.34904617475E+02  0.21435158161E+02  0.41345055227E+02  0.00000000000E+00 0. -1.
         -2    1    6    6    0  503  0.27536165667E+03 -0.17785810128E+03  0.92708425178E+02  0.34066464192E+03  0.00000000000E+00 0.  1.
<mgrwt>
<rscale>  0 0.18096283E+04</rscale>
<asrwt>0</asrwt>
<pdfrwt beam="1">  1        1 0.23654511E+00 0.18096283E+04</pdfrwt>
<pdfrwt beam="2">  1       -2 0.81917760E-01 0.18096283E+04</pdfrwt>
<totfact> 0.66805180E+00</totfact>
</mgrwt>
</event>
<event>
12    4  0.4207946E-008  0.1692910E+04  0.7818608E-02  0.8765418E-01
         -2   -1    0    0    0  501 -0.00000000000E+00  0.00000000000E+00  0.90256386999E+03  0.90256386999E+03  0.00000000000E+00 0.  1.
          1   -1    0    0  501    0  0.00000000000E+00 -0.00000000000E+00 -0.79383432025E+03  0.79383432025E+03  0.00000000000E+00 0. -1.
        -24    2    1    2    0    0  0.89012672597E+01 -0.35663747173E+03 -0.43811916017E+03  0.57092429398E+03  0.82076989200E+02 0.  0.
        254    2    1    2    0    0 -0.89012672597E+01  0.35663747173E+03  0.54684870991E+03  0.11254738962E+04  0.91672158304E+03 0.  0.
         23    2    4    4    0    0 -0.15063018958E+03  0.10130057849E+03 -0.21975338934E+03  0.30017179838E+03  0.94129141103E+02 0.  0.
         23    2    4    4    0    0  0.14172892232E+03  0.25533689324E+03  0.76660209925E+03  0.82530209786E+03  0.90336912120E+02 0.  0.
          3    1    3    3  502    0 -0.72933730356E+01 -0.34716863266E+03 -0.41794337113E+03  0.54337456166E+03  0.00000000000E+00 0. -1.
         -4    1    3    3    0  502  0.16194640295E+02 -0.94688390686E+01 -0.20175789044E+02  0.27549732324E+02  0.00000000000E+00 0.  1.
         11    1    5    5    0    0 -0.50117991560E+02  0.68870688968E+02 -0.45910108285E+02  0.96761164315E+02  0.00000000000E+00 0.  1.
        -11    1    5    5    0    0 -0.10051219802E+03  0.32429889521E+02 -0.17384328105E+03  0.20341063407E+03  0.00000000000E+00 0. -1.
          3    1    6    6  503    0  0.13821917614E+02  0.48960275899E+01  0.11057136845E+03  0.11153942807E+03  0.00000000000E+00 0. -1.
         -3    1    6    6    0  503  0.12790700470E+03  0.25044086565E+03  0.65603073080E+03  0.71376266980E+03  0.00000000000E+00 0.  1.
<mgrwt>
<rscale>  0 0.16929101E+04</rscale>
<asrwt>0</asrwt>
<pdfrwt beam="1">  1        1 0.12212836E+00 0.16929101E+04</pdfrwt>
<pdfrwt beam="2">  1       -2 0.13885598E+00 0.16929101E+04</pdfrwt>
<totfact> 0.68484780E+00</totfact>
</mgrwt>
</event>
<event>
12    4  0.4207946E-008  0.1148219E+04  0.7818608E-02  0.9159428E-01
          1   -1    0    0  501    0  0.00000000000E+00  0.00000000000E+00  0.44278883467E+03  0.44278883467E+03  0.00000000000E+00 0. -1.
         -2   -1    0    0    0  501 -0.00000000000E+00 -0.00000000000E+00 -0.74437695886E+03  0.74437695886E+03  0.00000000000E+00 0.  1.
        -24    2    1    2    0    0 -0.13420531029E+03  0.74634919260E+02 -0.21508411478E+03  0.27582785892E+03  0.78983509934E+02 0.  0.
        254    2    1    2    0    0  0.13420531029E+03 -0.74634919260E+02 -0.86504009411E+02  0.91133793461E+03  0.89413223347E+03 0.  0.
         23    2    4    4    0    0 -0.32079500861E+03 -0.90949876713E+02 -0.24119643136E+03  0.42088168771E+03  0.88229014069E+02 0.  0.
         23    2    4    4    0    0  0.45500031890E+03  0.16314957454E+02  0.15469242195E+03  0.49045624690E+03  0.96571821357E+02 0.  0.
          3    1    3    3  502    0 -0.22905607612E+02  0.29801238957E+02 -0.11138506140E+02  0.39202640504E+02  0.00000000000E+00 0. -1.
         -4    1    3    3    0  502 -0.11129970268E+03  0.44833680302E+02 -0.20394560864E+03  0.23662521842E+03  0.00000000000E+00 0.  1.
         11    1    5    5    0    0 -0.11181934424E+03  0.61591553392E+01 -0.55782738571E+02  0.12511280855E+03  0.00000000000E+00 0.  1.
        -11    1    5    5    0    0 -0.20897566437E+03 -0.97109032052E+02 -0.18541369279E+03  0.29576887916E+03  0.00000000000E+00 0. -1.
          3    1    6    6  503    0  0.75010916375E+02  0.41988912302E+01 -0.10643422790E+02  0.75878526025E+02  0.00000000000E+00 0. -1.
         -3    1    6    6    0  503  0.37998940253E+03  0.12116066223E+02  0.16533584474E+03  0.41457772088E+03  0.00000000000E+00 0.  1.
<mgrwt>
<rscale>  0 0.11482192E+04</rscale>
<asrwt>0</asrwt>
<pdfrwt beam="1">  1        1 0.68121359E-01 0.11482192E+04</pdfrwt>
<pdfrwt beam="2">  1       -2 0.11451953E+00 0.11482192E+04</pdfrwt>
<totfact> 0.27061754E+01</totfact>
</mgrwt>
</event>
<event>
12    4  0.4207946E-008  0.1900093E+04  0.7818608E-02  0.8654810E-01
          1   -1    0    0  501    0  0.00000000000E+00  0.00000000000E+00  0.12702661683E+04  0.12702661683E+04  0.00000000000E+00 0. -1.
         -2   -1    0    0    0  501 -0.00000000000E+00 -0.00000000000E+00 -0.71055027517E+03  0.71055027517E+03  0.00000000000E+00 0.  1.
        -24    2    1    2    0    0 -0.19339795961E+03  0.42795864060E+03  0.80846896731E+03  0.93788183381E+03  0.73816625777E+02 0.  0.
        254    2    1    2    0    0  0.19339795961E+03 -0.42795864060E+03 -0.24875307421E+03  0.10429346096E+04  0.89737569568E+03 0.  0.
         23    2    4    4    0    0  0.37867882620E+03 -0.15764813699E+03  0.21197300998E+03  0.47042717354E+03  0.90103163851E+02 0.  0.
         23    2    4    4    0    0 -0.18528086660E+03 -0.27031050360E+03 -0.46072608419E+03  0.57250743609E+03  0.89997065737E+02 0.  0.
          1    1    3    3  502    0 -0.15187614421E+03  0.24884199278E+03  0.49627991410E+03  0.57557141493E+03  0.00000000000E+00 0. -1.
         -2    1    3    3    0  502 -0.41521815394E+02  0.17911664782E+03  0.31218905321E+03  0.36231041888E+03  0.00000000000E+00 0.  1.
         11    1    5    5    0    0  0.32354152375E+03 -0.10280376910E+03  0.19248309616E+03  0.39025309075E+03  0.00000000000E+00 0. -1.
        -11    1    5    5    0    0  0.55137302457E+02 -0.54844367890E+02  0.19489913817E+02  0.80174082795E+02  0.00000000000E+00 0.  1.
          3    1    6    6  503    0 -0.10881469918E+03 -0.17134953489E+03 -0.20854658181E+03  0.29102058114E+03  0.00000000000E+00 0. -1.
         -3    1    6    6    0  503 -0.76466167418E+02 -0.98960968718E+02 -0.25217950238E+03  0.28148685495E+03  0.00000000000E+00 0.  1.
<mgrwt>
<rscale>  0 0.19000926E+04</rscale>
<asrwt>0</asrwt>
<pdfrwt beam="1">  1        1 0.19542556E+00 0.19000926E+04</pdfrwt>
<pdfrwt beam="2">  1       -2 0.10931543E+00 0.19000926E+04</pdfrwt>
<totfact> 0.52021867E+00</totfact>
</mgrwt>
</event>
<event>
12    4  0.4207946E-008  0.1377473E+04  0.7818608E-02  0.8970288E-01
          1   -1    0    0  501    0  0.00000000000E+00  0.00000000000E+00  0.55814116528E+03  0.55814116528E+03  0.00000000000E+00 0. -1.
         -2   -1    0    0    0  501 -0.00000000000E+00 -0.00000000000E+00 -0.84988890774E+03  0.84988890774E+03  0.00000000000E+00 0.  1.
        -24    2    1    2    0    0 -0.76664084479E+02  0.12349820994E+03 -0.44755280907E+03  0.47725300189E+03  0.79609805921E+02 0.  0.
        254    2    1    2    0    0  0.76664084479E+02 -0.12349820994E+03  0.15580506662E+03  0.93077707113E+03  0.90605824738E+03 0.  0.
         23    2    4    4    0    0  0.44977834155E+03 -0.48121500316E+02 -0.86633263792E+02  0.46942576925E+03  0.90768910522E+02 0.  0.
         23    2    4    4    0    0 -0.37311425707E+03 -0.75376709622E+02  0.24243833041E+03  0.46135130188E+03  0.95774644375E+02 0.  0.
          1    1    3    3  502    0  0.75846333083E+01 -0.52208781464E+01 -0.52540579837E+02  0.53341323199E+02  0.00000000000E+00 0. -1.
         -2    1    3    3    0  502 -0.84248717787E+02  0.12871908808E+03 -0.39501222924E+03  0.42391167869E+03  0.00000000000E+00 0.  1.
         11    1    5    5    0    0  0.27637514389E+02  0.57037805056E+01  0.14915138490E+02  0.31919064364E+02  0.00000000000E+00 0.  1.
        -11    1    5    5    0    0  0.42214082716E+03 -0.53825280821E+02 -0.10154840228E+03  0.43750670489E+03  0.00000000000E+00 0. -1.
          3    1    6    6  503    0 -0.25492645778E+03 -0.70316062401E+02  0.11775325143E+03  0.28947828196E+03  0.00000000000E+00 0. -1.
         -3    1    6    6    0  503 -0.11818779930E+03 -0.50606472204E+01  0.12468507898E+03  0.17187301991E+03  0.00000000000E+00 0.  1.
<mgrwt>
<rscale>  0 0.13774730E+04</rscale>
<asrwt>0</asrwt>
<pdfrwt beam="1">  1        1 0.85867872E-01 0.13774730E+04</pdfrwt>
<pdfrwt beam="2">  1       -2 0.13075214E+00 0.13774730E+04</pdfrwt>
<totfact> 0.13887902E+01</totfact>
</mgrwt>
</event>
<event>
12    4  0.4207946E-008  0.2740976E+04  0.7818608E-02  0.8321831E-01
         -2   -1    0    0    0  501 -0.00000000000E+00  0.00000000000E+00  0.10245648559E+04  0.10245648559E+04  0.00000000000E+00 0.  1.
          1   -1    0    0  501    0  0.00000000000E+00 -0.00000000000E+00 -0.18332042829E+04  0.18332042829E+04  0.00000000000E+00 0. -1.
        -24    2    1    2    0    0 -0.56291188018E+03 -0.67851622174E+03 -0.12464970567E+04  0.15288129065E+04  0.79119799679E+02 0.  0.
        254    2    1    2    0    0  0.56291188018E+03  0.67851622174E+03  0.43785762977E+03  0.13289562322E+04  0.89283330762E+03 0.  0.
         23    2    4    4    0    0  0.14889387751E+03 -0.19607178587E+03  0.19702278978E+03  0.32771338824E+03  0.89244345275E+02 0.  0.
         23    2    4    4    0    0  0.41401800267E+03  0.87458800761E+03  0.24083483999E+03  0.10012428440E+04  0.90392050947E+02 0.  0.
          1    1    3    3  502    0 -0.56432605671E+03 -0.66892974467E+03 -0.12282752528E+04  0.15081747240E+04  0.00000000000E+00 0. -1.
         -2    1    3    3    0  502  0.14141765228E+01 -0.95864770713E+01 -0.18221803952E+02  0.20638182505E+02  0.00000000000E+00 0.  1.
         11    1    5    5    0    0  0.91040219843E+02 -0.11841058671E+03  0.62391910563E+02  0.16187074837E+03  0.00000000000E+00 0. -1.
        -11    1    5    5    0    0  0.57853657671E+02 -0.77661199166E+02  0.13463087921E+03  0.16584263987E+03  0.00000000000E+00 0.  1.
          1    1    6    6  503    0  0.36181295847E+03  0.81510875311E+03  0.20917483790E+03  0.91600491763E+03  0.00000000000E+00 0. -1.
         -1    1    6    6    0  503  0.52205044196E+02  0.59479254502E+02  0.31660002094E+02  0.85237926349E+02  0.00000000000E+00 0.  1.
<mgrwt>
<rscale>  0 0.27409755E+04</rscale>
<asrwt>0</asrwt>
<pdfrwt beam="1">  1        1 0.28203143E+00 0.27409755E+04</pdfrwt>
<pdfrwt beam="2">  1       -2 0.15762536E+00 0.27409755E+04</pdfrwt>
<totfact> 0.77584369E-01</totfact>
</mgrwt>
</event>
<event>
12    4  0.4207946E-008  0.1296109E+04  0.7818608E-02  0.9032657E-01
          1   -1    0    0  501    0  0.00000000000E+00  0.00000000000E+00  0.15070765883E+04  0.15070765883E+04  0.00000000000E+00 0. -1.
         -2   -1    0    0    0  501 -0.00000000000E+00 -0.00000000000E+00 -0.27866828641E+03  0.27866828641E+03  0.00000000000E+00 0.  1.
        -24    2    1    2    0    0 -0.19612906362E+03  0.25538981003E+03  0.59154661830E+03  0.67829278997E+03  0.80393672817E+02 0.  0.
        254    2    1    2    0    0  0.19612906362E+03 -0.25538981003E+03  0.63686168354E+03  0.11074520847E+04  0.84685698395E+03 0.  0.
         23    2    4    4    0    0  0.24309270105E+03  0.12349871500E+03 -0.72923203457E+02  0.29650207467E+03  0.90827819383E+02 0.  0.
         23    2    4    4    0    0 -0.46963637424E+02 -0.37888852503E+03  0.70978488700E+03  0.81095001002E+03  0.89906814504E+02 0.  0.
          3    1    3    3  502    0 -0.19851303953E+03  0.22006519229E+03  0.53383278398E+03  0.61058460263E+03  0.00000000000E+00 0. -1.
         -4    1    3    3    0  502  0.23839759045E+01  0.35324617745E+02  0.57713834326E+02  0.67708187337E+02  0.00000000000E+00 0.  1.
         11    1    5    5    0    0  0.46616649410E+02  0.64212883763E+02 -0.20277226695E+01  0.79375803004E+02  0.00000000000E+00 0. -1.
        -11    1    5    5    0    0  0.19647605164E+03  0.59285831237E+02 -0.70895480788E+02  0.21712627167E+03  0.00000000000E+00 0.  1.
          1    1    6    6  503    0  0.17224162548E+02 -0.18907130945E+03  0.30453318398E+03  0.35886639850E+03  0.00000000000E+00 0. -1.
         -1    1    6    6    0  503 -0.64187799972E+02 -0.18981721559E+03  0.40525170302E+03  0.45208361152E+03  0.00000000000E+00 0.  1.
<mgrwt>
<rscale>  0 0.12961087E+04</rscale>
<asrwt>0</asrwt>
<pdfrwt beam="1">  1        1 0.23185793E+00 0.12961087E+04</pdfrwt>
<pdfrwt beam="2">  1       -2 0.42872045E-01 0.12961087E+04</pdfrwt>
<totfact> 0.28770254E+01</totfact>
</mgrwt>
</event>
<event>
12    4  0.4207946E-008  0.1303849E+04  0.7818608E-02  0.9026518E-01
          1   -1    0    0  501    0  0.00000000000E+00  0.00000000000E+00  0.22709874704E+04  0.22709874704E+04  0.00000000000E+00 0. -1.
         -2   -1    0    0    0  501 -0.00000000000E+00 -0.00000000000E+00 -0.18714569785E+03  0.18714569785E+03  0.00000000000E+00 0.  1.
        -24    2    1    2    0    0  0.89696574575E+02  0.16126165999E+03  0.10876652447E+04  0.11057905889E+04  0.75540344100E+02 0.  0.
        254    2    1    2    0    0 -0.89696574575E+02 -0.16126165999E+03  0.99617652792E+03  0.13523425794E+04  0.89577451334E+03 0.  0.
         23    2    4    4    0    0  0.37709734193E+02 -0.21331291036E+03  0.11208285386E+04  0.11453776976E+04  0.93322212726E+02 0.  0.
         23    2    4    4    0    0 -0.12740630877E+03  0.52051250375E+02 -0.12465201070E+03  0.20696488179E+03  0.91403710776E+02 0.  0.
          3    1    3    3  502    0  0.10324703578E+03  0.14573742165E+03  0.95997160908E+03  0.97644499932E+03  0.00000000000E+00 0. -1.
         -4    1    3    3    0  502 -0.13550461208E+02  0.15524238333E+02  0.12769363560E+03  0.12934558960E+03  0.00000000000E+00 0.  1.
         11    1    5    5    0    0  0.94561659175E+01  0.30645738451E+01  0.13568404606E+02  0.16819996738E+02  0.00000000000E+00 0.  1.
        -11    1    5    5    0    0  0.28253568276E+02 -0.21637748421E+03  0.11072601340E+04  0.11285577009E+04  0.00000000000E+00 0. -1.
          1    1    6    6  503    0 -0.55665487734E+02  0.92050502620E+01 -0.10787017285E+03  0.12173476770E+03  0.00000000000E+00 0. -1.
         -1    1    6    6    0  503 -0.71740821034E+02  0.42846200113E+02 -0.16781837844E+02  0.85230114092E+02  0.00000000000E+00 0.  1.
<mgrwt>
<rscale>  0 0.13038490E+04</rscale>
<asrwt>0</asrwt>
<pdfrwt beam="1">  1        1 0.34938267E+00 0.13038490E+04</pdfrwt>
<pdfrwt beam="2">  1       -2 0.28791647E-01 0.13038490E+04</pdfrwt>
<totfact> 0.18652512E+01</totfact>
</mgrwt>
</event>
<event>
12    4  0.4207946E-008  0.1058483E+04  0.7818608E-02  0.9246630E-01
         -2   -1    0    0    0  501 -0.00000000000E+00  0.00000000000E+00  0.12777412478E+03  0.12777412478E+03  0.00000000000E+00 0.  1.
          1   -1    0    0  501    0  0.00000000000E+00 -0.00000000000E+00 -0.21921212233E+04  0.21921212233E+04  0.00000000000E+00 0. -1.
        -24    2    1    2    0    0  0.14367910985E+02 -0.28617800881E+02 -0.52563130182E+03  0.53220494609E+03  0.76996258327E+02 0.  0.
        254    2    1    2    0    0 -0.14367910985E+02  0.28617800881E+02 -0.15387157967E+04  0.17876904019E+04  0.90948625878E+03 0.  0.
         23    2    4    4    0    0  0.22980124149E+03 -0.18301427591E+03 -0.11888984922E+03  0.32871832594E+03  0.87281760901E+02 0.  0.
         23    2    4    4    0    0 -0.24416915247E+03  0.21163207679E+03 -0.14198259474E+04  0.14589720760E+04  0.91033436602E+02 0.  0.
          1    1    3    3  502    0  0.13893542761E+02 -0.46971604834E+02 -0.48673132773E+03  0.48918988909E+03  0.00000000000E+00 0. -1.
         -2    1    3    3    0  502  0.47436822464E+00  0.18353803952E+02 -0.38899974085E+02  0.43015056998E+02  0.00000000000E+00 0.  1.
         11    1    5    5    0    0  0.17181412640E+01 -0.33929039936E+02 -0.13893872421E+02  0.36703834285E+02  0.00000000000E+00 0.  1.
        -11    1    5    5    0    0  0.22808310022E+03 -0.14908523597E+03 -0.10499597679E+03  0.29201449165E+03  0.00000000000E+00 0. -1.
          2    1    6    6  503    0 -0.14336384351E+03  0.15615672868E+03 -0.75206597381E+03  0.78137145104E+03  0.00000000000E+00 0. -1.
         -2    1    6    6    0  503 -0.10080530896E+03  0.55475348103E+02 -0.66775997363E+03  0.67760062496E+03  0.00000000000E+00 0.  1.
<mgrwt>
<rscale>  0 0.10584826E+04</rscale>
<asrwt>0</asrwt>
<pdfrwt beam="1">  1        1 0.33724940E+00 0.10584826E+04</pdfrwt>
<pdfrwt beam="2">  1       -2 0.19657559E-01 0.10584826E+04</pdfrwt>
<totfact> 0.42872986E+01</totfact>
</mgrwt>
</event>
<event>
12    4  0.4207946E-008  0.1494186E+04  0.7818608E-02  0.8888329E-01
          1   -1    0    0  501    0  0.00000000000E+00  0.00000000000E+00  0.26013849537E+03  0.26013849537E+03  0.00000000000E+00 0. -1.
         -2   -1    0    0    0  501 -0.00000000000E+00 -0.00000000000E+00 -0.21455794866E+04  0.21455794866E+04  0.00000000000E+00 0.  1.
        -24    2    1    2    0    0  0.33886753976E+03 -0.20236022447E+02 -0.11213501915E+04  0.11743847086E+04  0.80699973323E+02 0.  0.
        254    2    1    2    0    0 -0.33886753976E+03  0.20236022447E+02 -0.76409079970E+03  0.12313332733E+04  0.90393925335E+03 0.  0.
         23    2    4    4    0    0  0.82410804270E+02 -0.54565635155E+02 -0.78018257215E+03  0.79178334066E+03  0.92016647781E+02 0.  0.
         23    2    4    4    0    0 -0.42127834403E+03  0.74801657602E+02  0.16091772444E+02  0.43954993268E+03  0.99370352973E+02 0.  0.
          3    1    3    3  502    0  0.15463560043E+02  0.73793980225E+01 -0.20692123314E+02  0.26865240956E+02  0.00000000000E+00 0. -1.
         -4    1    3    3    0  502  0.32340397972E+03 -0.27615420469E+02 -0.11006580682E+04  0.11475194677E+04  0.00000000000E+00 0.  1.
         11    1    5    5    0    0 -0.98790128091E+01 -0.59660377296E+01 -0.12366449517E+02  0.16915010314E+02  0.00000000000E+00 0.  1.
        -11    1    5    5    0    0  0.92289817079E+02 -0.48599597426E+02 -0.76781612263E+03  0.77486833035E+03  0.00000000000E+00 0. -1.
          1    1    6    6  503    0 -0.33803377295E+03  0.29495872704E+02 -0.15434674334E+02  0.33966905560E+03  0.00000000000E+00 0. -1.
         -1    1    6    6    0  503 -0.83244571078E+02  0.45305784898E+02  0.31526446778E+02  0.99880877076E+02  0.00000000000E+00 0.  1.
<mgrwt>
<rscale>  0 0.14941858E+04</rscale>
<asrwt>0</asrwt>
<pdfrwt beam="1">  1        1 0.40021308E-01 0.14941858E+04</pdfrwt>
<pdfrwt beam="2">  1       -2 0.33008915E+00 0.14941858E+04</pdfrwt>
<totfact> 0.18605027E+00</totfact>
</mgrwt>
</event>
<event>
12    4  0.4207946E-008  0.1435904E+04  0.7818608E-02  0.8928232E-01
          1   -1    0    0  501    0  0.00000000000E+00  0.00000000000E+00  0.76622921814E+03  0.76622921814E+03  0.00000000000E+00 0. -1.
         -2   -1    0    0    0  501 -0.00000000000E+00 -0.00000000000E+00 -0.67271683166E+03  0.67271683166E+03  0.00000000000E+00 0.  1.
        -24    2    1    2    0    0  0.20692791414E+02  0.18488147664E+03  0.43851751587E+03  0.48419954185E+03  0.86846028010E+02 0.  0.
        254    2    1    2    0    0 -0.20692791414E+02 -0.18488147664E+03 -0.34500512939E+03  0.95474650796E+03  0.87057624774E+03 0.  0.
         23    2    4    4    0    0  0.33850909840E+03 -0.25622965958E+02 -0.41780970014E+03  0.54493532937E+03  0.84525863419E+02 0.  0.
         23    2    4    4    0    0 -0.35920188981E+03 -0.15925851068E+03  0.72804570749E+02  0.40981117858E+03  0.90859373231E+02 0.  0.
          1    1    3    3  502    0 -0.48085894449E+01  0.17848919652E+03  0.39241553984E+03  0.43112813840E+03  0.00000000000E+00 0. -1.
         -2    1    3    3    0  502  0.25501380859E+02  0.63922801187E+01  0.46101976028E+02  0.53071403453E+02  0.00000000000E+00 0.  1.
         11    1    5    5    0    0  0.33879422138E+03 -0.23832077268E+02 -0.42121112810E+03  0.54108068417E+03  0.00000000000E+00 0.  1.
        -11    1    5    5    0    0 -0.28512298292E+00 -0.17908886902E+01  0.34014279646E+01  0.38546451996E+01  0.00000000000E+00 0. -1.
          4    1    6    6  503    0 -0.25649284579E+03 -0.13170316940E+03  0.90084161247E+02  0.30207525698E+03  0.00000000000E+00 0.  1.
         -4    1    6    6    0  503 -0.10270904402E+03 -0.27555341283E+02 -0.17279590499E+02  0.10773592160E+03  0.00000000000E+00 0. -1.
<mgrwt>
<rscale>  0 0.14359043E+04</rscale>
<asrwt>0</asrwt>
<pdfrwt beam="1">  1        1 0.11788142E+00 0.14359043E+04</pdfrwt>
<pdfrwt beam="2">  1       -2 0.10349490E+00 0.14359043E+04</pdfrwt>
<totfact> 0.15348978E+01</totfact>
</mgrwt>
</event>
<event>
12    4  0.4207946E-008  0.1806874E+04  0.7818608E-02  0.8702653E-01
         -2   -1    0    0    0  501 -0.00000000000E+00  0.00000000000E+00  0.40566523689E+03  0.40566523689E+03  0.00000000000E+00 0.  1.
          1   -1    0    0  501    0  0.00000000000E+00 -0.00000000000E+00 -0.20119997799E+04  0.20119997799E+04  0.00000000000E+00 0. -1.
        -24    2    1    2    0    0  0.62650589235E+03 -0.32373342170E+02 -0.86193762874E+03  0.10689960930E+04  0.79110710177E+02 0.  0.
        254    2    1    2    0    0 -0.62650589235E+03  0.32373342170E+02 -0.74439691428E+03  0.13486689239E+04  0.93339350423E+03 0.  0.
         23    2    4    4    0    0 -0.18511954703E+03  0.30490902673E+03 -0.73497631340E+03  0.82194895898E+03  0.90394405987E+02 0.  0.
         23    2    4    4    0    0 -0.44138634533E+03 -0.27253568456E+03 -0.94206008751E+01  0.52671996487E+03  0.90816124491E+02 0.  0.
          1    1    3    3  502    0  0.62542649604E+03 -0.26737533833E+02 -0.84891542062E+03  0.10547656560E+04  0.00000000000E+00 0. -1.
         -2    1    3    3    0  502  0.10793963107E+01 -0.56358083373E+01 -0.13022208119E+02  0.14230436969E+02  0.00000000000E+00 0.  1.
         11    1    5    5    0    0 -0.40103674212E+02  0.14178466707E+03 -0.25142999454E+03  0.29142449907E+03  0.00000000000E+00 0. -1.
        -11    1    5    5    0    0 -0.14501587281E+03  0.16312435966E+03 -0.48354631886E+03  0.53052445991E+03  0.00000000000E+00 0.  1.
          2    1    6    6  503    0 -0.21478147249E+03 -0.79762934049E+02 -0.59751419030E+01  0.22919186044E+03  0.00000000000E+00 0. -1.
         -2    1    6    6    0  503 -0.22660487284E+03 -0.19277275051E+03 -0.34454589721E+01  0.29752810442E+03  0.00000000000E+00 0.  1.
<mgrwt>
<rscale>  0 0.18068739E+04</rscale>
<asrwt>0</asrwt>
<pdfrwt beam="1">  1        1 0.30953843E+00 0.18068739E+04</pdfrwt>
<pdfrwt beam="2">  1       -2 0.62410037E-01 0.18068739E+04</pdfrwt>
<totfact> 0.57693579E+00</totfact>
</mgrwt>
</event>
<event>
12    4  0.4207946E-008  0.1045934E+04  0.7818608E-02  0.9259552E-01
          1   -1    0    0  501    0  0.00000000000E+00  0.00000000000E+00  0.13402236607E+04  0.13402236607E+04  0.00000000000E+00 0. -1.
         -2   -1    0    0    0  501 -0.00000000000E+00 -0.00000000000E+00 -0.20406628392E+03  0.20406628392E+03  0.00000000000E+00 0.  1.
        -24    2    1    2    0    0 -0.56454021425E+02  0.11094120317E+03  0.22808518062E+03  0.27213037978E+03  0.80852253444E+02 0.  0.
        254    2    1    2    0    0  0.56454021425E+02 -0.11094120317E+03  0.90807219614E+03  0.12721595648E+04  0.88221303428E+03 0.  0.
         23    2    4    4    0    0  0.16933271699E+03  0.64330637260E+02 -0.10902682555E+03  0.22981607838E+03  0.90092070988E+02 0.  0.
         23    2    4    4    0    0 -0.11287869557E+03 -0.17527184043E+03  0.10170990217E+04  0.10423434864E+04  0.92345578304E+02 0.  0.
          1    1    3    3  502    0 -0.44786578878E+02  0.24394483238E+02  0.13586968523E+03  0.14512580688E+03  0.00000000000E+00 0. -1.
         -4    1    3    3    0  502 -0.11667442547E+02  0.86546719936E+02  0.92215495391E+02  0.12700457290E+03  0.00000000000E+00 0.  1.
         11    1    5    5    0    0  0.11758862341E+03  0.85545238048E+02 -0.68428963262E+02  0.16070966094E+03  0.00000000000E+00 0.  1.
        -11    1    5    5    0    0  0.51744093587E+02 -0.21214600788E+02 -0.40597862293E+02  0.69106417433E+02  0.00000000000E+00 0. -1.
          3    1    6    6  503    0 -0.33354397371E+02  0.21341244948E+01  0.13529686349E+03  0.13936395367E+03  0.00000000000E+00 0. -1.
         -3    1    6    6    0  503 -0.79524298198E+02 -0.17740596493E+03  0.88180215820E+03  0.90297953277E+03  0.00000000000E+00 0.  1.
<mgrwt>
<rscale>  0 0.10459340E+04</rscale>
<asrwt>0</asrwt>
<pdfrwt beam="1">  1        1 0.20618825E+00 0.10459340E+04</pdfrwt>
<pdfrwt beam="2">  1       -2 0.31394814E-01 0.10459340E+04</pdfrwt>
<totfact> 0.69912653E+01</totfact>
</mgrwt>
</event>
<event>
12    4  0.4207946E-008  0.2148836E+04  0.7818608E-02  0.8540031E-01
          1   -1    0    0  501    0  0.00000000000E+00  0.00000000000E+00  0.35001181436E+03  0.35001181436E+03  0.00000000000E+00 0. -1.
         -2   -1    0    0    0  501 -0.00000000000E+00 -0.00000000000E+00 -0.32980990662E+04  0.32980990662E+04  0.00000000000E+00 0.  1.
        -24    2    1    2    0    0  0.32163015866E+03 -0.16436984092E+03 -0.25928333480E+04  0.26190484050E+04  0.78526258912E+02 0.  0.
        254    2    1    2    0    0 -0.32163015866E+03  0.16436984092E+03 -0.35525390377E+03  0.10290624755E+04  0.89571247556E+03 0.  0.
         23    2    4    4    0    0 -0.58438907952E+03 -0.45985949677E+02 -0.33033471066E+03  0.67875419803E+03  0.89224079952E+02 0.  0.
         23    2    4    4    0    0  0.26275892086E+03  0.21035579060E+03 -0.24919193116E+02  0.35030827752E+03  0.93824911313E+02 0.  0.
          1    1    3    3  502    0  0.51651754292E+02 -0.13235475061E+02 -0.23329347740E+03  0.23930927295E+03  0.00000000000E+00 0. -1.
         -2    1    3    3    0  502  0.26997840436E+03 -0.15113436586E+03 -0.23595398706E+04  0.23797391320E+04  0.00000000000E+00 0.  1.
         11    1    5    5    0    0 -0.53963042335E+03 -0.63859726797E+02 -0.31540704264E+03  0.62829981781E+03  0.00000000000E+00 0. -1.
        -11    1    5    5    0    0 -0.44758656165E+02  0.17873777121E+02 -0.14927668017E+02  0.50454380213E+02  0.00000000000E+00 0.  1.
          2    1    6    6  503    0  0.42549264099E+01  0.76558006695E+01  0.17021417644E+02  0.19142735992E+02  0.00000000000E+00 0.  1.
         -2    1    6    6    0  503  0.25850399445E+03  0.20269998993E+03 -0.41940610760E+02  0.33116554153E+03  0.00000000000E+00 0. -1.
<mgrwt>
<rscale>  0 0.21488356E+04</rscale>
<asrwt>0</asrwt>
<pdfrwt beam="1">  1        1 0.53847968E-01 0.21488356E+04</pdfrwt>
<pdfrwt beam="2">  1       -2 0.50739989E+00 0.21488356E+04</pdfrwt>
<totfact> 0.84840584E-02</totfact>
</mgrwt>
</event>
<event>
12    4  0.4207946E-008  0.2228801E+04  0.7818608E-02  0.8506535E-01
         -2   -1    0    0    0  501 -0.00000000000E+00  0.00000000000E+00  0.76734302767E+03  0.76734302767E+03  0.00000000000E+00 0.  1.
          1   -1    0    0  501    0  0.00000000000E+00 -0.00000000000E+00 -0.16184262144E+04  0.16184262144E+04  0.00000000000E+00 0. -1.
        -24    2    1    2    0    0 -0.49794400498E+03 -0.26173747016E+03  0.44174287146E+03  0.71995848045E+03  0.82150555117E+02 0.  0.
        254    2    1    2    0    0  0.49794400498E+03  0.26173747016E+03 -0.12928260582E+04  0.16658107617E+04  0.88717052557E+03 0.  0.
         23    2    4    4    0    0 -0.20456644595E+03 -0.60038908191E+02 -0.51582751982E+03  0.56621878458E+03  0.95255343720E+02 0.  0.
         23    2    4    4    0    0  0.70251045093E+03  0.32177637836E+03 -0.77699853841E+03  0.10995919771E+04  0.91185613028E+02 0.  0.
          1    1    3    3  502    0 -0.31481240344E+03 -0.16911070517E+03  0.32931536346E+03  0.48595667355E+03  0.00000000000E+00 0. -1.
         -2    1    3    3    0  502 -0.18313160154E+03 -0.92626764989E+02  0.11242750800E+03  0.23400180689E+03  0.00000000000E+00 0.  1.
         11    1    5    5    0    0 -0.17364643265E+03 -0.22620394483E+02 -0.32343635433E+03  0.36779864209E+03  0.00000000000E+00 0.  1.
        -11    1    5    5    0    0 -0.30920013304E+02 -0.37418513708E+02 -0.19239116549E+03  0.19842014250E+03  0.00000000000E+00 0. -1.
          2    1    6    6  503    0  0.29382374524E+03  0.14969537513E+03 -0.27138048219E+03  0.42706962514E+03  0.00000000000E+00 0. -1.
         -2    1    6    6    0  503  0.40868670569E+03  0.17208100323E+03 -0.50561805622E+03  0.67252235194E+03  0.00000000000E+00 0.  1.
<mgrwt>
<rscale>  0 0.22288006E+04</rscale>
<asrwt>0</asrwt>
<pdfrwt beam="1">  1        1 0.24898865E+00 0.22288006E+04</pdfrwt>
<pdfrwt beam="2">  1       -2 0.11805277E+00 0.22288006E+04</pdfrwt>
<totfact> 0.23934207E+00</totfact>
</mgrwt>
</event>
<event>
12    4  0.4207946E-008  0.2493399E+04  0.7818608E-02  0.8405341E-01
          1   -1    0    0  501    0  0.00000000000E+00  0.00000000000E+00  0.13527059449E+04  0.13527059449E+04  0.00000000000E+00 0. -1.
         -2   -1    0    0    0  501 -0.00000000000E+00 -0.00000000000E+00 -0.11490007489E+04  0.11490007489E+04  0.00000000000E+00 0.  1.
        -24    2    1    2    0    0  0.74440683659E+03 -0.78076641889E+03  0.19628638703E+03  0.10992804833E+04  0.78431473548E+02 0.  0.
        254    2    1    2    0    0 -0.74440683659E+03  0.78076641889E+03  0.74188090317E+01  0.14024262105E+04  0.89610629828E+03 0.  0.
         23    2    4    4    0    0 -0.55013908537E+03  0.90772928660E+03  0.20473248426E+03  0.10848675210E+04  0.91633383343E+02 0.  0.
         23    2    4    4    0    0 -0.19426775122E+03 -0.12696286770E+03 -0.19731367523E+03  0.31755868949E+03  0.89729069429E+02 0.  0.
          3    1    3    3  502    0  0.98886435102E+02 -0.11676202875E+03  0.18397971166E+01  0.15302053215E+03  0.00000000000E+00 0. -1.
         -4    1    3    3    0  502  0.64552040148E+03 -0.66400439014E+03  0.19444658991E+03  0.94625995117E+03  0.00000000000E+00 0.  1.
         11    1    5    5    0    0 -0.36020319396E+03  0.66581446808E+03  0.12644445881E+03  0.76749165989E+03  0.00000000000E+00 0.  1.
        -11    1    5    5    0    0 -0.18993589140E+03  0.24191481852E+03  0.78288025451E+02  0.31737586107E+03  0.00000000000E+00 0. -1.
          2    1    6    6  503    0  0.59966016869E+01 -0.37336619254E+01  0.39080497919E+01  0.80729372809E+01  0.00000000000E+00 0. -1.
         -2    1    6    6    0  503 -0.20026435291E+03 -0.12322920578E+03 -0.20122172502E+03  0.30948575221E+03  0.00000000000E+00 0.  1.
<mgrwt>
<rscale>  0 0.24933994E+04</rscale>
<asrwt>0</asrwt>
<pdfrwt beam="1">  1        1 0.20810861E+00 0.24933994E+04</pdfrwt>
<pdfrwt beam="2">  1       -2 0.17676934E+00 0.24933994E+04</pdfrwt>
<totfact> 0.12361708E+00</totfact>
</mgrwt>
</event>
<event>
12    4  0.4207946E-008  0.1876301E+04  0.7818608E-02  0.8666743E-01
         -2   -1    0    0    0  501 -0.00000000000E+00  0.00000000000E+00  0.61079586996E+03  0.61079586996E+03  0.00000000000E+00 0.  1.
          1   -1    0    0  501    0  0.00000000000E+00 -0.00000000000E+00 -0.14409508312E+04  0.14409508312E+04  0.00000000000E+00 0. -1.
        -24    2    1    2    0    0  0.60135852339E+03  0.40363845224E+03 -0.16434373877E+03  0.74684561924E+03  0.78825381231E+02 0.  0.
        254    2    1    2    0    0 -0.60135852339E+03 -0.40363845224E+03 -0.66581122247E+03  0.13049010819E+04  0.85726668888E+03 0.  0.
         23    2    4    4    0    0 -0.46954028778E+03 -0.63980114404E+03 -0.62748312596E+03  0.10158567489E+04  0.91740259453E+02 0.  0.
         23    2    4    4    0    0 -0.13181823561E+03  0.23616269181E+03 -0.38328096513E+02  0.28904433300E+03  0.94491900264E+02 0.  0.
          3    1    3    3  502    0 -0.19866734767E+01  0.11883005475E+01  0.16456012851E+01  0.28402347234E+01  0.00000000000E+00 0. -1.
         -2    1    3    3    0  502  0.60334519687E+03  0.40245015169E+03 -0.16598934006E+03  0.74400538452E+03  0.00000000000E+00 0.  1.
         11    1    5    5    0    0 -0.42099003675E+03 -0.51632145991E+03 -0.52110759854E+03  0.84579760597E+03  0.00000000000E+00 0. -1.
        -11    1    5    5    0    0 -0.48550251026E+02 -0.12347968414E+03 -0.10637552741E+03  0.17005914295E+03  0.00000000000E+00 0.  1.
          2    1    6    6  503    0 -0.13256131153E+03  0.24062774936E+03 -0.47513547627E+02  0.27880414682E+03  0.00000000000E+00 0. -1.
         -2    1    6    6    0  503  0.74307591552E+00 -0.44650575556E+01  0.91854511135E+01  0.10240186177E+02  0.00000000000E+00 0.  1.
<mgrwt>
<rscale>  0 0.18763015E+04</rscale>
<asrwt>0</asrwt>
<pdfrwt beam="1">  1        1 0.22168474E+00 0.18763015E+04</pdfrwt>
<pdfrwt beam="2">  1       -2 0.93968596E-01 0.18763015E+04</pdfrwt>
<totfact> 0.56566412E+00</totfact>
</mgrwt>
</event>
<event>
12    4  0.4207946E-008  0.2935104E+04  0.7818608E-02  0.8262509E-01
          1   -1    0    0  501    0  0.00000000000E+00  0.00000000000E+00  0.14453246157E+04  0.14453246157E+04  0.00000000000E+00 0. -1.
         -2   -1    0    0    0  501 -0.00000000000E+00 -0.00000000000E+00 -0.14901215779E+04  0.14901215779E+04  0.00000000000E+00 0.  1.
        -24    2    1    2    0    0 -0.69492284100E+03 -0.10571514578E+04 -0.29716442604E+03  0.13018839538E+04  0.78154804117E+02 0.  0.
        254    2    1    2    0    0  0.69492284100E+03  0.10571514578E+04  0.25236746384E+03  0.16335622398E+04  0.10021722880E+04 0.  0.
         23    2    4    4    0    0  0.46344805032E+03  0.10615253246E+03 -0.23287736150E+03  0.53726785683E+03  0.91500978077E+02 0.  0.
         23    2    4    4    0    0  0.23147479069E+03  0.95099892536E+03  0.48524482534E+03  0.10962943830E+04  0.91756737293E+02 0.  0.
          3    1    3    3  502    0 -0.25401892054E+03 -0.41795216983E+03 -0.14975007800E+03  0.51150240871E+03  0.00000000000E+00 0. -1.
         -4    1    3    3    0  502 -0.44090392047E+03 -0.63919928799E+03 -0.14741434804E+03  0.79038154512E+03  0.00000000000E+00 0.  1.
         11    1    5    5    0    0  0.52391122948E+02 -0.16147693302E+02 -0.34219515577E+02  0.64626256344E+02  0.00000000000E+00 0. -1.
        -11    1    5    5    0    0  0.41105692737E+03  0.12230022576E+03 -0.19865784592E+03  0.47264160048E+03  0.00000000000E+00 0.  1.
          1    1    6    6  503    0  0.22789311917E+03  0.81295767237E+03  0.40269809608E+03  0.93541499209E+03  0.00000000000E+00 0. -1.
         -1    1    6    6    0  503  0.35816715148E+01  0.13804125299E+03  0.82546729258E+02  0.16087939088E+03  0.00000000000E+00 0.  1.
<mgrwt>
<rscale>  0 0.29351044E+04</rscale>
<asrwt>0</asrwt>
<pdfrwt beam="1">  1        1 0.22235763E+00 0.29351044E+04</pdfrwt>
<pdfrwt beam="2">  1       -2 0.22924947E+00 0.29351044E+04</pdfrwt>
<totfact> 0.46383694E-01</totfact>
</mgrwt>
</event>
<event>
12    4  0.4207946E-008  0.1262431E+04  0.7818608E-02  0.9059900E-01
         -2   -1    0    0    0  501 -0.00000000000E+00  0.00000000000E+00  0.30244213971E+03  0.30244213971E+03  0.00000000000E+00 0.  1.
          1   -1    0    0  501    0  0.00000000000E+00 -0.00000000000E+00 -0.13173850679E+04  0.13173850679E+04  0.00000000000E+00 0. -1.
        -24    2    1    2    0    0  0.86535141901E+02  0.15159663390E+03 -0.60324846553E+03  0.63261958017E+03  0.76347572677E+02 0.  0.
        254    2    1    2    0    0 -0.86535141901E+02 -0.15159663390E+03 -0.41169446266E+03  0.98720762744E+03  0.88012311576E+03 0.  0.
         23    2    4    4    0    0 -0.10027009832E+03 -0.58203004536E+02 -0.67601567307E+03  0.69196844022E+03  0.91550257605E+02 0.  0.
         23    2    4    4    0    0  0.13734956420E+02 -0.93393629367E+02  0.26432121042E+03  0.29523918722E+03  0.91593975554E+02 0.  0.
          1    1    3    3  502    0  0.35878506778E+02  0.67740171433E+02 -0.39639691032E+03  0.40374064520E+03  0.00000000000E+00 0. -1.
         -2    1    3    3    0  502  0.50656635123E+02  0.83856462470E+02 -0.20685155521E+03  0.22887893497E+03  0.00000000000E+00 0.  1.
         11    1    5    5    0    0 -0.60534760079E+02 -0.80775153164E+02 -0.42462830073E+03  0.43646108226E+03  0.00000000000E+00 0. -1.
        -11    1    5    5    0    0 -0.39735338241E+02  0.22572148628E+02 -0.25138737234E+03  0.25550735796E+03  0.00000000000E+00 0.  1.
          1    1    6    6  503    0  0.19689189725E+02 -0.72243477007E+02  0.26274955997E+03  0.27321075277E+03  0.00000000000E+00 0. -1.
         -1    1    6    6    0  503 -0.59542333048E+01 -0.21150152361E+02  0.15716504438E+01  0.22028434448E+02  0.00000000000E+00 0.  1.
<mgrwt>
<rscale>  0 0.12624306E+04</rscale>
<asrwt>0</asrwt>
<pdfrwt beam="1">  1        1 0.20267463E+00 0.12624306E+04</pdfrwt>
<pdfrwt beam="2">  1       -2 0.46529560E-01 0.12624306E+04</pdfrwt>
<totfact> 0.33264537E+01</totfact>
</mgrwt>
</event>
<event>
12    4  0.4207946E-008  0.1727586E+04  0.7818608E-02  0.8745786E-01
          1   -1    0    0  501    0  0.00000000000E+00  0.00000000000E+00  0.30954139160E+04  0.30954139160E+04  0.00000000000E+00 0. -1.
         -2   -1    0    0    0  501 -0.00000000000E+00 -0.00000000000E+00 -0.24104637811E+03  0.24104637811E+03  0.00000000000E+00 0.  1.
        -24    2    1    2    0    0  0.39053663878E+03 -0.31807135970E+03  0.32006308421E+03  0.60201481768E+03  0.79329734266E+02 0.  0.
        254    2    1    2    0    0 -0.39053663878E+03  0.31807135970E+03  0.25343044537E+04  0.27344454764E+04  0.89487694322E+03 0.  0.
         23    2    4    4    0    0  0.19256714063E+03 -0.16041803709E+03  0.61405900647E+03  0.66947512514E+03  0.91172525907E+02 0.  0.
         23    2    4    4    0    0 -0.58310377941E+03  0.47848939679E+03  0.19202454472E+04  0.20649703513E+04  0.88305457076E+02 0.  0.
          3    1    3    3  502    0  0.13260926113E+03 -0.13404067308E+03  0.15865687481E+03  0.24642264933E+03  0.00000000000E+00 0. -1.
         -4    1    3    3    0  502  0.25792737765E+03 -0.18403068662E+03  0.16140620940E+03  0.35559216835E+03  0.00000000000E+00 0.  1.
         11    1    5    5    0    0  0.65187559714E+01 -0.37330925241E+02  0.14805724668E+03  0.15283010323E+03  0.00000000000E+00 0. -1.
        -11    1    5    5    0    0  0.18604838466E+03 -0.12308711185E+03  0.46600175978E+03  0.51664502190E+03  0.00000000000E+00 0.  1.
          4    1    6    6  503    0 -0.44341142308E+02  0.10405833030E+02  0.10433323152E+03  0.11384129946E+03  0.00000000000E+00 0. -1.
         -4    1    6    6    0  503 -0.53876263710E+03  0.46808356376E+03  0.18159122157E+04  0.19511290518E+04  0.00000000000E+00 0.  1.
<mgrwt>
<rscale>  0 0.17275860E+04</rscale>
<asrwt>0</asrwt>
<pdfrwt beam="1">  1        1 0.47621750E+00 0.17275860E+04</pdfrwt>
<pdfrwt beam="2">  1       -2 0.37084060E-01 0.17275860E+04</pdfrwt>
<totfact> 0.29195023E+00</totfact>
</mgrwt>
</event>
<event>
12    4  0.4207946E-008  0.1524905E+04  0.7818608E-02  0.8868058E-01
          1   -1    0    0  501    0  0.00000000000E+00  0.00000000000E+00  0.16323624621E+04  0.16323624621E+04  0.00000000000E+00 0. -1.
         -2   -1    0    0    0  501 -0.00000000000E+00 -0.00000000000E+00 -0.35613058070E+03  0.35613058070E+03  0.00000000000E+00 0.  1.
        -24    2    1    2    0    0  0.39068435246E+03  0.95104656672E+02  0.79571229760E+03  0.89502804356E+03  0.78980878897E+02 0.  0.
        254    2    1    2    0    0 -0.39068435246E+03 -0.95104656672E+02  0.48051958383E+03  0.10934649993E+04  0.89615148006E+03 0.  0.
         23    2    4    4    0    0  0.25632930857E+03  0.10960995628E+03  0.16608521639E+03  0.33947859960E+03  0.99711401220E+02 0.  0.
         23    2    4    4    0    0 -0.64701366103E+03 -0.20471461296E+03  0.31443436743E+03  0.75398639967E+03  0.95350768991E+02 0.  0.
          3    1    3    3  502    0  0.17593688434E+03  0.35097523480E+02  0.44049802197E+03  0.47563024587E+03  0.00000000000E+00 0. -1.
         -4    1    3    3    0  502  0.21474746812E+03  0.60007133192E+02  0.35521427563E+03  0.41939779769E+03  0.00000000000E+00 0.  1.
         11    1    5    5    0    0  0.12978422571E+03  0.10820474173E+03  0.10515168914E+03  0.19902032335E+03  0.00000000000E+00 0.  1.
        -11    1    5    5    0    0  0.12654508286E+03  0.14052145519E+01  0.60933527252E+02  0.14045827625E+03  0.00000000000E+00 0. -1.
          3    1    6    6  503    0 -0.57718105291E+03 -0.21167570345E+03  0.28932577593E+03  0.67945123142E+03  0.00000000000E+00 0. -1.
         -3    1    6    6    0  503 -0.69832608125E+02  0.69610904953E+01  0.25108591503E+02  0.74535168247E+02  0.00000000000E+00 0.  1.
<mgrwt>
<rscale>  0 0.15249055E+04</rscale>
<asrwt>0</asrwt>
<pdfrwt beam="1">  1        1 0.25113268E+00 0.15249055E+04</pdfrwt>
<pdfrwt beam="2">  1       -2 0.54789321E-01 0.15249055E+04</pdfrwt>
<totfact> 0.14077855E+01</totfact>
</mgrwt>
</event>
<event>
12    4  0.4207946E-008  0.1915890E+04  0.7818608E-02  0.8646987E-01
         -2   -1    0    0    0  501 -0.00000000000E+00  0.00000000000E+00  0.10774768304E+04  0.10774768304E+04  0.00000000000E+00 0.  1.
          1   -1    0    0  501    0  0.00000000000E+00 -0.00000000000E+00 -0.85167325919E+03  0.85167325919E+03  0.00000000000E+00 0. -1.
        -24    2    1    2    0    0 -0.30729155685E+03  0.26808030456E+02  0.77593832391E+03  0.83860940361E+03  0.77708930647E+02 0.  0.
        254    2    1    2    0    0  0.30729155685E+03 -0.26808030456E+02 -0.55013475275E+03  0.10905406859E+04  0.88965384847E+03 0.  0.
         23    2    4    4    0    0  0.87230457121E+02  0.15800816618E+03  0.19791967440E+03  0.28408706377E+03  0.94644223599E+02 0.  0.
         23    2    4    4    0    0  0.22006109973E+03 -0.18481619664E+03 -0.74805442714E+03  0.80645362216E+03  0.90543385077E+02 0.  0.
          3    1    3    3  502    0 -0.69907317226E+02  0.26762191648E+02  0.12453703649E+03  0.14530217260E+03  0.00000000000E+00 0. -1.
         -4    1    3    3    0  502 -0.23738423962E+03  0.45838807977E-01  0.65140128742E+03  0.69330723101E+03  0.00000000000E+00 0.  1.
         11    1    5    5    0    0 -0.50059332202E+01  0.63131079909E+02  0.29387794354E+02  0.69815722262E+02  0.00000000000E+00 0.  1.
        -11    1    5    5    0    0  0.92236390341E+02  0.94877086270E+02  0.16853188004E+03  0.21427134151E+03  0.00000000000E+00 0. -1.
          1    1    6    6  503    0  0.14522654233E+03 -0.16854840197E+03 -0.59668396212E+03  0.63681320892E+03  0.00000000000E+00 0. -1.
         -1    1    6    6    0  503  0.74834557400E+02 -0.16267794665E+02 -0.15137046503E+03  0.16964041325E+03  0.00000000000E+00 0.  1.
<mgrwt>
<rscale>  0 0.19158896E+04</rscale>
<asrwt>0</asrwt>
<pdfrwt beam="1">  1        1 0.13102665E+00 0.19158896E+04</pdfrwt>
<pdfrwt beam="2">  1       -2 0.16576567E+00 0.19158896E+04</pdfrwt>
<totfact> 0.37345562E+00</totfact>
</mgrwt>
</event>
<event>
12    4  0.4207946E-008  0.1665312E+04  0.7818608E-02  0.8781399E-01
         -2   -1    0    0    0  501 -0.00000000000E+00  0.00000000000E+00  0.35770513375E+03  0.35770513375E+03  0.00000000000E+00 0.  1.
          1   -1    0    0  501    0  0.00000000000E+00 -0.00000000000E+00 -0.19382328197E+04  0.19382328197E+04  0.00000000000E+00 0. -1.
        -24    2    1    2    0    0 -0.20011135008E+03  0.20806507158E+03 -0.12624904292E+04  0.12975306657E+04  0.79800490686E+02 0.  0.
        254    2    1    2    0    0  0.20011135008E+03 -0.20806507158E+03 -0.31803725677E+03  0.99840728770E+03  0.90129561688E+03 0.  0.
         23    2    4    4    0    0 -0.32807674167E+03  0.60093902497E+02 -0.87675453159E+02  0.35644395283E+03  0.90109271890E+02 0.  0.
         23    2    4    4    0    0  0.52818809175E+03 -0.26815897408E+03 -0.23036180361E+03  0.64196333487E+03  0.90324233286E+02 0.  0.
          3    1    3    3  502    0 -0.19747618312E+03  0.21255385695E+03 -0.11901520313E+04  0.12250052418E+04  0.00000000000E+00 0. -1.
         -4    1    3    3    0  502 -0.26351669550E+01 -0.44887853634E+01 -0.72338397929E+02  0.72525423914E+02  0.00000000000E+00 0.  1.
         11    1    5    5    0    0 -0.19140443844E+03 -0.10393600173E+02 -0.50901990212E+02  0.19832977231E+03  0.00000000000E+00 0. -1.
        -11    1    5    5    0    0 -0.13667230323E+03  0.70487502670E+02 -0.36773462947E+02  0.15811418052E+03  0.00000000000E+00 0.  1.
          3    1    6    6  503    0  0.26670858765E+02  0.23266835447E+01  0.14371216074E+01  0.26810697158E+02  0.00000000000E+00 0. -1.
         -3    1    6    6    0  503  0.50151723298E+03 -0.27048565762E+03 -0.23179892522E+03  0.61515263772E+03  0.00000000000E+00 0.  1.
<mgrwt>
<rscale>  0 0.16653118E+04</rscale>
<asrwt>0</asrwt>
<pdfrwt beam="1">  1        1 0.29818966E+00 0.16653118E+04</pdfrwt>
<pdfrwt beam="2">  1       -2 0.55031561E-01 0.16653118E+04</pdfrwt>
<totfact> 0.85411633E+00</totfact>
</mgrwt>
</event>
<event>
12    4  0.4207946E-008  0.1563114E+04  0.7818608E-02  0.8843534E-01
         -2   -1    0    0    0  501 -0.00000000000E+00  0.00000000000E+00  0.45030751008E+03  0.45030751008E+03  0.00000000000E+00 0.  1.
          1   -1    0    0  501    0  0.00000000000E+00 -0.00000000000E+00 -0.13564763794E+04  0.13564763794E+04  0.00000000000E+00 0. -1.
        -24    2    1    2    0    0 -0.22116506262E+03 -0.42772240649E+03 -0.32157555029E+03  0.58452049176E+03  0.79955792818E+02 0.  0.
        254    2    1    2    0    0  0.22116506262E+03  0.42772240649E+03 -0.58459331902E+03  0.12222633977E+04  0.95933207117E+03 0.  0.
         23    2    4    4    0    0  0.19966473485E+03 -0.14359970593E+03  0.13846145405E+03  0.29612496577E+03  0.89618855216E+02 0.  0.
         23    2    4    4    0    0  0.21500327777E+02  0.57132211242E+03 -0.72305477307E+03  0.92613843193E+03  0.89738341902E+02 0.  0.
          3    1    3    3  502    0 -0.19713813180E+03 -0.31407557962E+03 -0.26146484822E+03  0.45372985308E+03  0.00000000000E+00 0. -1.
         -4    1    3    3    0  502 -0.24026930824E+02 -0.11364682687E+03 -0.60110702069E+02  0.13079063868E+03  0.00000000000E+00 0.  1.
         11    1    5    5    0    0 -0.54961301775E+01  0.49933976679E+01  0.89141128859E+01  0.11601847945E+02  0.00000000000E+00 0.  1.
        -11    1    5    5    0    0  0.20516086502E+03 -0.14859310360E+03  0.12954734117E+03  0.28452311782E+03  0.00000000000E+00 0. -1.
          1    1    6    6  503    0 -0.13786991497E+02  0.31198791849E+03 -0.33412666754E+03  0.45734797734E+03  0.00000000000E+00 0. -1.
         -1    1    6    6    0  503  0.35287319274E+02  0.25933419393E+03 -0.38892810553E+03  0.46879045459E+03  0.00000000000E+00 0.  1.
<mgrwt>
<rscale>  0 0.15631142E+04</rscale>
<asrwt>0</asrwt>
<pdfrwt beam="1">  1        1 0.20868867E+00 0.15631142E+04</pdfrwt>
<pdfrwt beam="2">  1       -2 0.69278081E-01 0.15631142E+04</pdfrwt>
<totfact> 0.13238429E+01</totfact>
</mgrwt>
</event>
<event>
12    4  0.4207946E-008  0.2202791E+04  0.7818608E-02  0.8517267E-01
         -4   -1    0    0    0  501 -0.00000000000E+00  0.00000000000E+00  0.10035448286E+04  0.10035448286E+04  0.00000000000E+00 0.  1.
          1   -1    0    0  501    0  0.00000000000E+00 -0.00000000000E+00 -0.12087874357E+04  0.12087874357E+04  0.00000000000E+00 0. -1.
        -24    2    1    2    0    0 -0.86559590301E+03 -0.25988512222E+03 -0.21416890610E+03  0.93233079645E+03  0.81091612467E+02 0.  0.
        254    2    1    2    0    0  0.86559590301E+03  0.25988512222E+03  0.89262990059E+01  0.12800014678E+04  0.90638156137E+03 0.  0.
         23    2    4    4    0    0  0.30556752062E+03 -0.39753640687E+02 -0.40471754447E+03  0.51650302557E+03  0.89594771156E+02 0.  0.
         23    2    4    4    0    0  0.56002838240E+03  0.29963876291E+03  0.41364384347E+03  0.76349844227E+03  0.91724940859E+02 0.  0.
          1    1    3    3  502    0 -0.51531688559E+03 -0.18355374932E+03 -0.10004589652E+03  0.55610489377E+03  0.00000000000E+00 0. -1.
         -2    1    3    3    0  502 -0.35027901742E+03 -0.76331372900E+02 -0.11412300958E+03  0.37622590268E+03  0.00000000000E+00 0.  1.
         11    1    5    5    0    0  0.11726275748E+03  0.12530051580E+02 -0.10061520525E+03  0.15501927626E+03  0.00000000000E+00 0. -1.
        -11    1    5    5    0    0  0.18830476314E+03 -0.52283692267E+02 -0.30410233922E+03  0.36148374931E+03  0.00000000000E+00 0.  1.
          2    1    6    6  503    0  0.17242557138E+02  0.30027459127E-01 -0.15772144601E+01  0.17314568541E+02  0.00000000000E+00 0. -1.
         -2    1    6    6    0  503  0.54278582526E+03  0.29960873545E+03  0.41522105793E+03  0.74618387373E+03  0.00000000000E+00 0.  1.
<mgrwt>
<rscale>  0 0.22027913E+04</rscale>
<asrwt>0</asrwt>
<pdfrwt beam="1">  1        1 0.18596730E+00 0.22027913E+04</pdfrwt>
<pdfrwt beam="2">  1       -4 0.15439151E+00 0.22027913E+04</pdfrwt>
<totfact> 0.12857338E+00</totfact>
</mgrwt>
</event>
<event>
12    4  0.4207946E-008  0.2243413E+04  0.7818608E-02  0.8500573E-01
          1   -1    0    0  501    0  0.00000000000E+00  0.00000000000E+00  0.23615484282E+04  0.23615484282E+04  0.00000000000E+00 0. -1.
         -2   -1    0    0    0  501 -0.00000000000E+00 -0.00000000000E+00 -0.53279665473E+03  0.53279665473E+03  0.00000000000E+00 0.  1.
        -24    2    1    2    0    0  0.54263755800E+03 -0.74398717783E+03  0.97180614276E+03  0.13413720657E+04  0.83062624016E+02 0.  0.
        254    2    1    2    0    0 -0.54263755800E+03  0.74398717783E+03  0.85694563070E+03  0.15529730172E+04  0.91071232451E+03 0.  0.
         23    2    4    4    0    0  0.56948524821E+02  0.54685517660E+03  0.10534642151E+03  0.56729855940E+03  0.91848071992E+02 0.  0.
         23    2    4    4    0    0 -0.59958608282E+03  0.19713200124E+03  0.75159920920E+03  0.98567445779E+03  0.91039929954E+02 0.  0.
          3    1    3    3  502    0  0.34839160861E+03 -0.51286301975E+03  0.70048508144E+03  0.93545953375E+03  0.00000000000E+00 0. -1.
         -4    1    3    3    0  502  0.19424594939E+03 -0.23112415809E+03  0.27132106132E+03  0.40591253198E+03  0.00000000000E+00 0.  1.
         11    1    5    5    0    0 -0.18214267197E+02  0.11065885934E+03  0.43878220457E+02  0.12042608069E+03  0.00000000000E+00 0. -1.
        -11    1    5    5    0    0  0.75162792018E+02  0.43619631726E+03  0.61468201052E+02  0.44687247871E+03  0.00000000000E+00 0.  1.
          3    1    6    6  503    0 -0.55573160311E+02  0.47948587241E+02  0.94534790220E+02  0.11968404124E+03  0.00000000000E+00 0. -1.
         -3    1    6    6    0  503 -0.54401292251E+03  0.14918341400E+03  0.65706441898E+03  0.86599041655E+03  0.00000000000E+00 0.  1.
<mgrwt>
<rscale>  0 0.22434127E+04</rscale>
<asrwt>0</asrwt>
<pdfrwt beam="1">  1        1 0.36331514E+00 0.22434127E+04</pdfrwt>
<pdfrwt beam="2">  1       -2 0.81968717E-01 0.22434127E+04</pdfrwt>
<totfact> 0.17633740E+00</totfact>
</mgrwt>
</event>
<event>
12    4  0.4207946E-008  0.1366789E+04  0.7818608E-02  0.8978216E-01
          1   -1    0    0  501    0  0.00000000000E+00  0.00000000000E+00  0.13660517899E+04  0.13660517899E+04  0.00000000000E+00 0. -1.
         -2   -1    0    0    0  501 -0.00000000000E+00 -0.00000000000E+00 -0.34188155173E+03  0.34188155173E+03  0.00000000000E+00 0.  1.
        -24    2    1    2    0    0  0.40170208309E+02 -0.32974957736E+03  0.51382225785E+03  0.61700112539E+03  0.79552791708E+02 0.  0.
        254    2    1    2    0    0 -0.40170208309E+02  0.32974957736E+03  0.51034798032E+03  0.10909322162E+04  0.90516827718E+03 0.  0.
         23    2    4    4    0    0  0.36293588948E+03  0.15951445633E+02  0.42263733203E+03  0.56479882889E+03  0.91643298691E+02 0.  0.
         23    2    4    4    0    0 -0.40310609779E+03  0.31379813173E+03  0.87710648289E+02  0.52613338736E+03  0.90329341412E+02 0.  0.
          3    1    3    3  502    0  0.44079527242E+02 -0.33225623069E+03  0.51213202975E+03  0.61205916663E+03  0.00000000000E+00 0. -1.
         -4    1    3    3    0  502 -0.39093189325E+01  0.25066533278E+01  0.16902280970E+01  0.49419587657E+01  0.00000000000E+00 0.  1.
         11    1    5    5    0    0  0.15502914767E+00  0.11643930894E+02  0.10031640870E+02  0.15370067640E+02  0.00000000000E+00 0. -1.
        -11    1    5    5    0    0  0.36278086033E+03  0.43075147390E+01  0.41260569116E+03  0.54942876125E+03  0.00000000000E+00 0.  1.
          4    1    6    6  503    0 -0.99636958908E+02  0.74968687456E+02 -0.17419322049E+02  0.12590178895E+03  0.00000000000E+00 0. -1.
         -4    1    6    6    0  503 -0.30346913888E+03  0.23882944427E+03  0.10512997034E+03  0.40023159841E+03  0.00000000000E+00 0.  1.
<mgrwt>
<rscale>  0 0.13667888E+04</rscale>
<asrwt>0</asrwt>
<pdfrwt beam="1">  1        1 0.21016181E+00 0.13667888E+04</pdfrwt>
<pdfrwt beam="2">  1       -2 0.52597162E-01 0.13667888E+04</pdfrwt>
<totfact> 0.23743542E+01</totfact>
</mgrwt>
</event>
<event>
12    4  0.4207946E-008  0.1684613E+04  0.7818608E-02  0.8770189E-01
          1   -1    0    0  501    0  0.00000000000E+00  0.00000000000E+00  0.66279784665E+03  0.66279784665E+03  0.00000000000E+00 0. -1.
         -2   -1    0    0    0  501 -0.00000000000E+00 -0.00000000000E+00 -0.10704317358E+04  0.10704317358E+04  0.00000000000E+00 0.  1.
        -24    2    1    2    0    0  0.61664502052E+02  0.58341866377E+03 -0.26359653470E+02  0.59256857229E+03  0.79138065916E+02 0.  0.
        254    2    1    2    0    0 -0.61664502052E+02 -0.58341866377E+03 -0.38127423564E+03  0.11406610101E+04  0.90086494504E+03 0.  0.
         23    2    4    4    0    0 -0.24277577791E+03 -0.68939172151E+03 -0.49258804568E+03  0.88613812748E+03  0.91633914000E+02 0.  0.
         23    2    4    4    0    0  0.18111127585E+03  0.10597305774E+03  0.11131381004E+03  0.25452288265E+03  0.91430576274E+02 0.  0.
          1    1    3    3  502    0  0.16906641683E+02  0.27556115362E+03  0.25214832730E+02  0.27722837465E+03  0.00000000000E+00 0. -1.
         -2    1    3    3    0  502  0.44757860370E+02  0.30785751015E+03 -0.51574486199E+02  0.31534019764E+03  0.00000000000E+00 0.  1.
         11    1    5    5    0    0 -0.23282819329E+03 -0.65590230464E+03 -0.48984239894E+03  0.85109481059E+03  0.00000000000E+00 0.  1.
        -11    1    5    5    0    0 -0.99475846182E+01 -0.33489416873E+02 -0.27456467416E+01  0.35043316884E+02  0.00000000000E+00 0. -1.
          3    1    6    6  503    0  0.49086224266E+02  0.61342171232E+02  0.79094863770E+02  0.11148236120E+03  0.00000000000E+00 0. -1.
         -3    1    6    6    0  503  0.13202505159E+03  0.44630886506E+02  0.32218946272E+02  0.14304052145E+03  0.00000000000E+00 0.  1.
<mgrwt>
<rscale>  0 0.16846125E+04</rscale>
<asrwt>0</asrwt>
<pdfrwt beam="1">  1        1 0.10196890E+00 0.16846125E+04</pdfrwt>
<pdfrwt beam="2">  1       -2 0.16468180E+00 0.16846125E+04</pdfrwt>
<totfact> 0.57402239E+00</totfact>
</mgrwt>
</event>
<event>
12    4  0.4207946E-008  0.2055793E+04  0.7818608E-02  0.8580971E-01
         -2   -1    0    0    0  501 -0.00000000000E+00  0.00000000000E+00  0.13902978852E+04  0.13902978852E+04  0.00000000000E+00 0.  1.
          1   -1    0    0  501    0  0.00000000000E+00 -0.00000000000E+00 -0.75996012384E+03  0.75996012384E+03  0.00000000000E+00 0. -1.
        -24    2    1    2    0    0  0.42614985589E+03  0.62230508416E+03 -0.10593154552E+03  0.76519313460E+03  0.73700226892E+02 0.  0.
        254    2    1    2    0    0 -0.42614985589E+03 -0.62230508416E+03  0.73626930686E+03  0.13850648744E+04  0.89857937696E+03 0.  0.
         23    2    4    4    0    0  0.25828435227E+03 -0.62679177096E+02  0.13595074638E+03  0.31244953063E+03  0.92209640946E+02 0.  0.
         23    2    4    4    0    0 -0.68443420816E+03 -0.55962590707E+03  0.60031856048E+03  0.10726153438E+04  0.92140981799E+02 0.  0.
          3    1    3    3  502    0  0.34799082872E+03  0.49382293698E+03 -0.11318882298E+03  0.61463031133E+03  0.00000000000E+00 0. -1.
         -4    1    3    3    0  502  0.78159027168E+02  0.12848214719E+03  0.72572774526E+01  0.15056282326E+03  0.00000000000E+00 0.  1.
         11    1    5    5    0    0  0.23922747650E+03 -0.78673454317E+02  0.10526952361E+03  0.27294865914E+03  0.00000000000E+00 0.  1.
        -11    1    5    5    0    0  0.19056875769E+02  0.15994277220E+02  0.30681222770E+02  0.39500871491E+02  0.00000000000E+00 0. -1.
          3    1    6    6  503    0 -0.18175120489E+03 -0.11927163444E+03  0.18771415177E+03  0.28722086630E+03  0.00000000000E+00 0. -1.
         -3    1    6    6    0  503 -0.50268300326E+03 -0.44035427263E+03  0.41260440871E+03  0.78539447749E+03  0.00000000000E+00 0.  1.
<mgrwt>
<rscale>  0 0.20557927E+04</rscale>
<asrwt>0</asrwt>
<pdfrwt beam="1">  1        1 0.11691694E+00 0.20557927E+04</pdfrwt>
<pdfrwt beam="2">  1       -2 0.21389198E+00 0.20557927E+04</pdfrwt>
<totfact> 0.20967900E+00</totfact>
</mgrwt>
</event>
<event>
12    4  0.4207946E-008  0.2476471E+04  0.7818608E-02  0.8411416E-01
         -2   -1    0    0    0  501 -0.00000000000E+00  0.00000000000E+00  0.42337243821E+03  0.42337243821E+03  0.00000000000E+00 0.  1.
          1   -1    0    0  501    0  0.00000000000E+00 -0.00000000000E+00 -0.36214631004E+04  0.36214631004E+04  0.00000000000E+00 0. -1.
        -24    2    1    2    0    0  0.26407884943E+03 -0.35801063897E+03  0.20163553631E+03  0.49446729176E+03  0.77017899142E+02 0.  0.
        254    2    1    2    0    0 -0.26407884943E+03  0.35801063897E+03 -0.33997261985E+04  0.35503682468E+04  0.92144842888E+03 0.  0.
         23    2    4    4    0    0  0.10069503608E+03 -0.26401915174E+03 -0.98097546877E+03  0.10247530907E+04  0.89221206934E+02 0.  0.
         23    2    4    4    0    0 -0.36477388551E+03  0.62202979071E+03 -0.24187507297E+04  0.25256151561E+04  0.91628469116E+02 0.  0.
          1    1    3    3  502    0  0.11687230391E+03 -0.11948193797E+03  0.10777804033E+03  0.19887477190E+03  0.00000000000E+00 0. -1.
         -2    1    3    3    0  502  0.14720654551E+03 -0.23852870100E+03  0.93857495985E+02  0.29559251986E+03  0.00000000000E+00 0.  1.
         11    1    5    5    0    0  0.29650499806E+01 -0.23390196871E+02 -0.20755709955E+03  0.20889193953E+03  0.00000000000E+00 0. -1.
        -11    1    5    5    0    0  0.97729986102E+02 -0.24062895487E+03 -0.77341836923E+03  0.81586115115E+03  0.00000000000E+00 0.  1.
          2    1    6    6  503    0  0.52320059196E+01  0.15956177309E+02 -0.58096709258E+02  0.60474797287E+02  0.00000000000E+00 0. -1.
         -2    1    6    6    0  503 -0.37000589143E+03  0.60607361340E+03 -0.23606540204E+04  0.24651403588E+04  0.00000000000E+00 0.  1.
<mgrwt>
<rscale>  0 0.24764714E+04</rscale>
<asrwt>0</asrwt>
<pdfrwt beam="1">  1        1 0.55714817E+00 0.24764714E+04</pdfrwt>
<pdfrwt beam="2">  1       -2 0.65134221E-01 0.24764714E+04</pdfrwt>
<totfact> 0.34056115E-01</totfact>
</mgrwt>
</event>
<event>
12    4  0.4207946E-008  0.1781150E+04  0.7818608E-02  0.8716388E-01
          1   -1    0    0  501    0  0.00000000000E+00  0.00000000000E+00  0.11441085095E+04  0.11441085095E+04  0.00000000000E+00 0. -1.
         -2   -1    0    0    0  501 -0.00000000000E+00 -0.00000000000E+00 -0.69322423678E+03  0.69322423678E+03  0.00000000000E+00 0.  1.
        -24    2    1    2    0    0 -0.44832325589E+03 -0.31763288406E+03 -0.20747911344E+03  0.59273556085E+03  0.80021695623E+02 0.  0.
        254    2    1    2    0    0  0.44832325589E+03  0.31763288406E+03  0.65836338611E+03  0.12445971854E+04  0.90205067201E+03 0.  0.
         23    2    4    4    0    0  0.65697961104E+03  0.49573247244E+02  0.26023087918E+03  0.71349259795E+03  0.85275205577E+02 0.  0.
         23    2    4    4    0    0 -0.20865635514E+03  0.26805963682E+03  0.39813250693E+03  0.53110458743E+03  0.90383329686E+02 0.  0.
          1    1    3    3  502    0 -0.90686439898E+02 -0.59035921349E+02 -0.82725565874E+01  0.10852513802E+03  0.00000000000E+00 0. -1.
         -2    1    3    3    0  502 -0.35763681600E+03 -0.25859696271E+03 -0.19920655685E+03  0.48421042283E+03  0.00000000000E+00 0.  1.
         11    1    5    5    0    0  0.44732646936E+03  0.24077177295E+02  0.13462066361E+03  0.46776426085E+03  0.00000000000E+00 0. -1.
        -11    1    5    5    0    0  0.20965314168E+03  0.25496069949E+02  0.12561021557E+03  0.24572833710E+03  0.00000000000E+00 0.  1.
          2    1    6    6  503    0 -0.21682115864E+03  0.24558737258E+03  0.37134752605E+03  0.49520052253E+03  0.00000000000E+00 0. -1.
         -2    1    6    6    0  503  0.81648034988E+01  0.22472264238E+02  0.26784980873E+02  0.35904064902E+02  0.00000000000E+00 0.  1.
<mgrwt>
<rscale>  0 0.17811499E+04</rscale>
<asrwt>0</asrwt>
<pdfrwt beam="1">  1        1 0.17601669E+00 0.17811499E+04</pdfrwt>
<pdfrwt beam="2">  1       -2 0.10664988E+00 0.17811499E+04</pdfrwt>
<totfact> 0.68958452E+00</totfact>
</mgrwt>
</event>
<event>
12    4  0.4207946E-008  0.1930273E+04  0.7818608E-02  0.8639932E-01
          1   -1    0    0  501    0  0.00000000000E+00  0.00000000000E+00  0.67754312820E+03  0.67754312820E+03  0.00000000000E+00 0. -1.
         -2   -1    0    0    0  501 -0.00000000000E+00 -0.00000000000E+00 -0.13748035707E+04  0.13748035707E+04  0.00000000000E+00 0.  1.
        -24    2    1    2    0    0 -0.25412962036E+03 -0.28059246987E+03 -0.96038923508E+03  0.10363965460E+04  0.91958249134E+02 0.  0.
        254    2    1    2    0    0  0.25412962036E+03  0.28059246987E+03  0.26312879260E+03  0.10159501529E+04  0.90531980736E+03 0.  0.
         23    2    4    4    0    0  0.14334911612E+03 -0.30454173082E+03  0.21918418603E+03  0.41210636982E+03  0.92170047920E+02 0.  0.
         23    2    4    4    0    0  0.11078050424E+03  0.58513420069E+03  0.43944606564E+02  0.60384378308E+03  0.89676267717E+02 0.  0.
          3    1    3    3  502    0 -0.30254981524E+01 -0.45468295594E+02 -0.11439196501E+03  0.12313424058E+03  0.00000000000E+00 0. -1.
         -4    1    3    3    0  502 -0.25110412221E+03 -0.23512417427E+03 -0.84599727007E+03  0.91326230541E+03  0.00000000000E+00 0.  1.
         11    1    5    5    0    0  0.90127087088E+02 -0.10361231239E+03  0.11738126796E+03  0.18065648389E+03  0.00000000000E+00 0. -1.
        -11    1    5    5    0    0  0.53222029036E+02 -0.20092941843E+03  0.10180291808E+03  0.23144988593E+03  0.00000000000E+00 0.  1.
          3    1    6    6  503    0  0.31390402188E+02  0.28737331773E+03 -0.17511985293E+02  0.28961258730E+03  0.00000000000E+00 0. -1.
         -3    1    6    6    0  503  0.79390102052E+02  0.29776088296E+03  0.61456591858E+02  0.31423119579E+03  0.00000000000E+00 0.  1.
<mgrwt>
<rscale>  0 0.19302733E+04</rscale>
<asrwt>0</asrwt>
<pdfrwt beam="1">  1        1 0.10423740E+00 0.19302733E+04</pdfrwt>
<pdfrwt beam="2">  1       -2 0.21150824E+00 0.19302733E+04</pdfrwt>
<totfact> 0.26180283E+00</totfact>
</mgrwt>
</event>
<event>
12    4  0.4207946E-008  0.2009226E+04  0.7818608E-02  0.8602319E-01
         -2   -1    0    0    0  501 -0.00000000000E+00  0.00000000000E+00  0.55054103593E+03  0.55054103593E+03  0.00000000000E+00 0.  1.
          1   -1    0    0  501    0  0.00000000000E+00 -0.00000000000E+00 -0.18331913754E+04  0.18331913754E+04  0.00000000000E+00 0. -1.
        -24    2    1    2    0    0  0.70395726415E+02 -0.40357204014E+03  0.29787854930E+03  0.51269716380E+03  0.79377589735E+02 0.  0.
        254    2    1    2    0    0 -0.70395726415E+02  0.40357204014E+03 -0.15805288888E+04  0.18710352476E+04  0.91371515222E+03 0.  0.
         23    2    4    4    0    0 -0.28297498824E+03  0.12387129260E+03 -0.14516465595E+04  0.14869637613E+04  0.91457927848E+02 0.  0.
         23    2    4    4    0    0  0.21257926182E+03  0.27970074753E+03 -0.12888232934E+03  0.38407148631E+03  0.86474279716E+02 0.  0.
          1    1    3    3  502    0  0.14715683705E+02 -0.19875924806E+03  0.10204793146E+03  0.22390973706E+03  0.00000000000E+00 0. -1.
         -2    1    3    3    0  502  0.55680042710E+02 -0.20481279208E+03  0.19583061784E+03  0.28878742674E+03  0.00000000000E+00 0.  1.
         11    1    5    5    0    0 -0.21208606674E+03  0.11107784927E+03 -0.12528148169E+04  0.12754856933E+04  0.00000000000E+00 0. -1.
        -11    1    5    5    0    0 -0.70888921491E+02  0.12793443335E+02 -0.19883174254E+03  0.21147806795E+03  0.00000000000E+00 0.  1.
          4    1    6    6  503    0  0.30712381114E+02  0.10253144803E+02 -0.30367786608E+02  0.44391213044E+02  0.00000000000E+00 0.  1.
         -4    1    6    6    0  503  0.18186688071E+03  0.26944760273E+03 -0.98514542728E+02  0.33968027326E+03  0.00000000000E+00 0. -1.
<mgrwt>
<rscale>  0 0.20092258E+04</rscale>
<asrwt>0</asrwt>
<pdfrwt beam="1">  1        1 0.28202945E+00 0.20092258E+04</pdfrwt>
<pdfrwt beam="2">  1       -2 0.84698620E-01 0.20092258E+04</pdfrwt>
<totfact> 0.38238030E+00</totfact>
</mgrwt>
</event>
<event>
12    4  0.4207946E-008  0.2643290E+04  0.7818608E-02  0.8353644E-01
          1   -1    0    0  501    0  0.00000000000E+00  0.00000000000E+00  0.17408679232E+04  0.17408679232E+04  0.00000000000E+00 0. -1.
         -2   -1    0    0    0  501 -0.00000000000E+00 -0.00000000000E+00 -0.10033761138E+04  0.10033761138E+04  0.00000000000E+00 0.  1.
        -24    2    1    2    0    0  0.49887892374E+03 -0.44695937836E+03  0.13097170928E+04  0.14727759807E+04  0.71115114740E+02 0.  0.
        254    2    1    2    0    0 -0.49887892374E+03  0.44695937836E+03 -0.57222528337E+03  0.12714680563E+04  0.91680770985E+03 0.  0.
         23    2    4    4    0    0  0.24933119549E+03  0.18290468756E+03 -0.25910990198E+03  0.41370118985E+03  0.91600018602E+02 0.  0.
         23    2    4    4    0    0 -0.74821011923E+03  0.26405469081E+03 -0.31311538139E+03  0.85776686646E+03  0.90440548876E+02 0.  0.
          1    1    3    3  502    0  0.46281993899E+03 -0.42030714233E+03  0.12544397578E+04  0.14015989068E+04  0.00000000000E+00 0. -1.
         -2    1    3    3    0  502  0.36058984751E+02 -0.26652236032E+02  0.55277335081E+02  0.71177073840E+02  0.00000000000E+00 0.  1.
         11    1    5    5    0    0  0.18688123947E+03  0.84497422712E+02 -0.17954990625E+03  0.27258499765E+03  0.00000000000E+00 0. -1.
        -11    1    5    5    0    0  0.62449956022E+02  0.98407264843E+02 -0.79559995725E+02  0.14111619220E+03  0.00000000000E+00 0.  1.
          3    1    6    6  503    0 -0.53507372679E+03  0.18292829412E+03 -0.17867746942E+03  0.59303650138E+03  0.00000000000E+00 0. -1.
         -3    1    6    6    0  503 -0.21313639244E+03  0.81126396690E+02 -0.13443791197E+03  0.26473036508E+03  0.00000000000E+00 0.  1.
<mgrwt>
<rscale>  0 0.26432898E+04</rscale>
<asrwt>0</asrwt>
<pdfrwt beam="1">  1        1 0.26782583E+00 0.26432898E+04</pdfrwt>
<pdfrwt beam="2">  1       -2 0.15436556E+00 0.26432898E+04</pdfrwt>
<totfact> 0.95640073E-01</totfact>
</mgrwt>
</event>
<event>
12    4  0.4207946E-008  0.1567956E+04  0.7818608E-02  0.8840480E-01
          1   -1    0    0  501    0  0.00000000000E+00  0.00000000000E+00  0.16600538119E+04  0.16600538119E+04  0.00000000000E+00 0. -1.
         -2   -1    0    0    0  501 -0.00000000000E+00 -0.00000000000E+00 -0.37024174768E+03  0.37024174768E+03  0.00000000000E+00 0.  1.
        -24    2    1    2    0    0  0.10123628685E+03  0.30359173535E+03  0.84800440065E+03  0.90965557086E+03  0.77104257529E+02 0.  0.
        254    2    1    2    0    0 -0.10123628685E+03 -0.30359173535E+03  0.44180766355E+03  0.11206399887E+04  0.97888878078E+03 0.  0.
         23    2    4    4    0    0  0.36540455660E+01  0.21267187594E+03 -0.18541294943E+03  0.29636722952E+03  0.90625018891E+02 0.  0.
         23    2    4    4    0    0 -0.10489033242E+03 -0.51626361129E+03  0.62722061298E+03  0.82427275918E+03  0.92140034725E+02 0.  0.
          1    1    3    3  502    0  0.33999615205E+02  0.21024706237E+03  0.58622119602E+03  0.62371074364E+03  0.00000000000E+00 0. -1.
         -2    1    3    3    0  502  0.67236671648E+02  0.93344672980E+02  0.26178320462E+03  0.28594482721E+03  0.00000000000E+00 0.  1.
         11    1    5    5    0    0 -0.39780258570E+02  0.10090545580E+03 -0.65081610669E+02  0.12649109071E+03  0.00000000000E+00 0. -1.
        -11    1    5    5    0    0  0.43434304136E+02  0.11176642014E+03 -0.12033133876E+03  0.16987613881E+03  0.00000000000E+00 0.  1.
          3    1    6    6  503    0  0.23929129785E+01 -0.20772659380E+03  0.22818311606E+03  0.30858321124E+03  0.00000000000E+00 0. -1.
         -3    1    6    6    0  503 -0.10728324540E+03 -0.30853701749E+03  0.39903749692E+03  0.51568954794E+03  0.00000000000E+00 0.  1.
<mgrwt>
<rscale>  0 0.15679556E+04</rscale>
<asrwt>0</asrwt>
<pdfrwt beam="1">  1        1 0.25539289E+00 0.15679556E+04</pdfrwt>
<pdfrwt beam="2">  1       -2 0.56960270E-01 0.15679556E+04</pdfrwt>
<totfact> 0.12383358E+01</totfact>
</mgrwt>
</event>
<event>
12    4  0.4207946E-008  0.1577828E+04  0.7818608E-02  0.8834286E-01
          1   -1    0    0  501    0  0.00000000000E+00  0.00000000000E+00  0.22930286345E+04  0.22930286345E+04  0.00000000000E+00 0. -1.
         -2   -1    0    0    0  501 -0.00000000000E+00 -0.00000000000E+00 -0.27142493397E+03  0.27142493397E+03  0.00000000000E+00 0.  1.
        -24    2    1    2    0    0 -0.45376155163E+03 -0.25725924012E+03  0.75778689773E+03  0.92318362670E+03  0.77104888822E+02 0.  0.
        254    2    1    2    0    0  0.45376155163E+03  0.25725924012E+03  0.12638168028E+04  0.16412699418E+04  0.90799352879E+03 0.  0.
         23    2    4    4    0    0  0.67908158615E+03  0.16566623737E+02  0.98486739822E+03  0.11999457414E+04  0.92085484621E+02 0.  0.
         23    2    4    4    0    0 -0.22532003452E+03  0.24069261638E+03  0.27894940458E+03  0.44132420039E+03  0.90841763556E+02 0.  0.
          3    1    3    3  502    0 -0.44833700928E+03 -0.26263702327E+03  0.74531819554E+03  0.90856122110E+03  0.00000000000E+00 0. -1.
         -4    1    3    3    0  502 -0.54245423537E+01  0.53777831552E+01  0.12468702187E+02  0.14622405604E+02  0.00000000000E+00 0.  1.
         11    1    5    5    0    0  0.53789375381E+02 -0.10877871972E+02  0.12397131042E+03  0.13557474252E+03  0.00000000000E+00 0. -1.
        -11    1    5    5    0    0  0.62529221077E+03  0.27444495709E+02  0.86089608780E+03  0.10643709988E+04  0.00000000000E+00 0.  1.
          1    1    6    6  503    0 -0.26591917195E+01 -0.77886627136E+01  0.50941792148E+01  0.96791130451E+01  0.00000000000E+00 0. -1.
         -1    1    6    6    0  503 -0.22266084280E+03  0.24848127909E+03  0.27385522536E+03  0.43164508735E+03  0.00000000000E+00 0.  1.
<mgrwt>
<rscale>  0 0.15778278E+04</rscale>
<asrwt>0</asrwt>
<pdfrwt beam="1">  1        1 0.35277362E+00 0.15778278E+04</pdfrwt>
<pdfrwt beam="2">  1       -2 0.41757684E-01 0.15778278E+04</pdfrwt>
<totfact> 0.86423703E+00</totfact>
</mgrwt>
</event>
<event>
12    4  0.4207946E-008  0.2106746E+04  0.7818608E-02  0.8558278E-01
          1   -1    0    0  501    0  0.00000000000E+00  0.00000000000E+00  0.53991266318E+03  0.53991266318E+03  0.00000000000E+00 0. -1.
         -2   -1    0    0    0  501 -0.00000000000E+00 -0.00000000000E+00 -0.20551367435E+04  0.20551367435E+04  0.00000000000E+00 0.  1.
        -24    2    1    2    0    0  0.35179521451E+03 -0.49937323812E+03 -0.13661509543E+04  0.14985659017E+04  0.78726284792E+02 0.  0.
        254    2    1    2    0    0 -0.35179521451E+03  0.49937323812E+03 -0.14907312602E+03  0.10964835050E+04  0.89828713442E+03 0.  0.
         23    2    4    4    0    0 -0.12693107258E+03 -0.24468298892E+03  0.34952210809E+02  0.29266271743E+03  0.91915977300E+02 0.  0.
         23    2    4    4    0    0 -0.22486414193E+03  0.74405622704E+03 -0.18402533683E+03  0.80382078754E+03  0.89883160623E+02 0.  0.
          1    1    3    3  502    0  0.15347858143E+03 -0.22583502684E+03 -0.51718786529E+03  0.58484222001E+03  0.00000000000E+00 0. -1.
         -2    1    3    3    0  502  0.19831663309E+03 -0.27353821128E+03 -0.84896308900E+03  0.91372368169E+03  0.00000000000E+00 0.  1.
         11    1    5    5    0    0 -0.84341387491E+02 -0.22205876392E+03  0.85672877060E+01  0.23769089738E+03  0.00000000000E+00 0. -1.
        -11    1    5    5    0    0 -0.42589685092E+02 -0.22624224994E+02  0.26384923103E+02  0.54971820053E+02  0.00000000000E+00 0.  1.
          1    1    6    6  503    0 -0.16711483994E+03  0.60284032801E+03 -0.11369349399E+03  0.63582233476E+03  0.00000000000E+00 0. -1.
         -1    1    6    6    0  503 -0.57749301994E+02  0.14121589903E+03 -0.70331842840E+02  0.16799845278E+03  0.00000000000E+00 0.  1.
<mgrwt>
<rscale>  0 0.21067457E+04</rscale>
<asrwt>0</asrwt>
<pdfrwt beam="1">  1        1 0.83063487E-01 0.21067457E+04</pdfrwt>
<pdfrwt beam="2">  1       -2 0.31617488E+00 0.21067457E+04</pdfrwt>
<totfact> 0.81116220E-01</totfact>
</mgrwt>
</event>
<event>
12    4  0.4207946E-008  0.1303405E+04  0.7818608E-02  0.9026869E-01
         -2   -1    0    0    0  501 -0.00000000000E+00  0.00000000000E+00  0.48748228630E+03  0.48748228630E+03  0.00000000000E+00 0.  1.
          1   -1    0    0  501    0  0.00000000000E+00 -0.00000000000E+00 -0.87124477530E+03  0.87124477530E+03  0.00000000000E+00 0. -1.
        -24    2    1    2    0    0  0.20608204741E+03 -0.12787539654E+02 -0.37378284772E+03  0.43507928972E+03  0.83348903158E+02 0.  0.
        254    2    1    2    0    0 -0.20608204741E+03  0.12787539654E+02 -0.99796412788E+01  0.92364777188E+03  0.90021790797E+03 0.  0.
         23    2    4    4    0    0  0.58420502435E+02  0.25108415035E+03  0.32553578835E+03  0.42599765654E+03  0.95101252450E+02 0.  0.
         23    2    4    4    0    0 -0.26450254984E+03 -0.23829661069E+03 -0.33551542963E+03  0.49765011534E+03  0.91313527102E+02 0.  0.
          3    1    3    3  502    0  0.17797749620E+03  0.13990998273E+02 -0.33815856840E+03  0.38239110158E+03  0.00000000000E+00 0. -1.
         -4    1    3    3    0  502  0.28104551204E+02 -0.26778537927E+02 -0.35624279320E+02  0.52688188135E+02  0.00000000000E+00 0.  1.
         11    1    5    5    0    0 -0.17446033930E+02  0.11043129695E+03  0.16638880669E+03  0.20046114446E+03  0.00000000000E+00 0.  1.
        -11    1    5    5    0    0  0.75866536365E+02  0.14065285340E+03  0.15914698166E+03  0.22553651208E+03  0.00000000000E+00 0. -1.
          3    1    6    6  503    0 -0.57746471599E+02 -0.37687336733E+02 -0.23191169518E+02  0.72751774382E+02  0.00000000000E+00 0. -1.
         -3    1    6    6    0  503 -0.20675607824E+03 -0.20060927396E+03 -0.31232426012E+03  0.42489834096E+03  0.00000000000E+00 0.  1.
<mgrwt>
<rscale>  0 0.13034054E+04</rscale>
<asrwt>0</asrwt>
<pdfrwt beam="1">  1        1 0.13403766E+00 0.13034054E+04</pdfrwt>
<pdfrwt beam="2">  1       -2 0.74997276E-01 0.13034054E+04</pdfrwt>
<totfact> 0.26427231E+01</totfact>
</mgrwt>
</event>
<event>
12    4  0.4207946E-008  0.1957983E+04  0.7818608E-02  0.8626521E-01
          1   -1    0    0  501    0  0.00000000000E+00  0.00000000000E+00  0.27243774213E+04  0.27243774213E+04  0.00000000000E+00 0. -1.
         -2   -1    0    0    0  501 -0.00000000000E+00 -0.00000000000E+00 -0.35179576350E+03  0.35179576350E+03  0.00000000000E+00 0.  1.
        -24    2    1    2    0    0  0.39152039074E+03 -0.43901832484E+03  0.17053331193E+04  0.18057140058E+04  0.80104413248E+02 0.  0.
        254    2    1    2    0    0 -0.39152039074E+03  0.43901832484E+03  0.66724853851E+03  0.12704591790E+04  0.90709459678E+03 0.  0.
         23    2    4    4    0    0 -0.58530673638E+03  0.51732189807E+03  0.30695840685E+03  0.84411931757E+03  0.90044638269E+02 0.  0.
         23    2    4    4    0    0  0.19378634563E+03 -0.78303573234E+02  0.36029013166E+03  0.42633986146E+03  0.90951092147E+02 0.  0.
          1    1    3    3  502    0  0.31275089552E+03 -0.32992558568E+03  0.12153231313E+04  0.12975647684E+04  0.00000000000E+00 0. -1.
         -2    1    3    3    0  502  0.78769495219E+02 -0.10909273916E+03  0.49000998807E+03  0.50814923745E+03  0.00000000000E+00 0.  1.
         11    1    5    5    0    0 -0.21754521618E+03  0.13654739446E+03  0.10679763612E+03  0.27816694106E+03  0.00000000000E+00 0. -1.
        -11    1    5    5    0    0 -0.36776152020E+03  0.38077450361E+03  0.20016077074E+03  0.56595237651E+03  0.00000000000E+00 0.  1.
          3    1    6    6  503    0  0.39234452955E+02  0.17035129699E+02  0.10198098084E+03  0.11058778592E+03  0.00000000000E+00 0. -1.
         -3    1    6    6    0  503  0.15455189268E+03 -0.95338702934E+02  0.25830915082E+03  0.31575207553E+03  0.00000000000E+00 0.  1.
<mgrwt>
<rscale>  0 0.19579831E+04</rscale>
<asrwt>0</asrwt>
<pdfrwt beam="1">  1        1 0.41913497E+00 0.19579831E+04</pdfrwt>
<pdfrwt beam="2">  1       -2 0.54122427E-01 0.19579831E+04</pdfrwt>
<totfact> 0.24826689E+00</totfact>
</mgrwt>
</event>
<event>
12    4  0.4207946E-008  0.1348967E+04  0.7818608E-02  0.8991610E-01
         -2   -1    0    0    0  501 -0.00000000000E+00  0.00000000000E+00  0.13097417474E+03  0.13097417474E+03  0.00000000000E+00 0.  1.
          1   -1    0    0  501    0  0.00000000000E+00 -0.00000000000E+00 -0.34734177327E+04  0.34734177327E+04  0.00000000000E+00 0. -1.
        -24    2    1    2    0    0 -0.22153305186E+03 -0.19586671510E+03 -0.15049742662E+04  0.15357165383E+04  0.77698654298E+02 0.  0.
        254    2    1    2    0    0  0.22153305186E+03  0.19586671510E+03 -0.18374692917E+04  0.20686753692E+04  0.90315210329E+03 0.  0.
         23    2    4    4    0    0  0.27841834442E+03 -0.52094615399E+02 -0.17629600623E+04  0.17879927360E+04  0.93054925361E+02 0.  0.
         23    2    4    4    0    0 -0.56885292567E+02  0.24796133050E+03 -0.74509229456E+02  0.28068263320E+03  0.92251598204E+02 0.  0.
          3    1    3    3  502    0 -0.14940241912E+03 -0.13470630532E+03 -0.11888745221E+04  0.12057734036E+04  0.00000000000E+00 0. -1.
         -4    1    3    3    0  502 -0.72130632737E+02 -0.61160409775E+02 -0.31609974410E+03  0.32994313468E+03  0.00000000000E+00 0.  1.
         11    1    5    5    0    0  0.21148508541E+02  0.20824858162E+02 -0.13569271651E+03  0.13890085473E+03  0.00000000000E+00 0. -1.
        -11    1    5    5    0    0  0.25726983588E+03 -0.72919473561E+02 -0.16272673458E+04  0.16490918812E+04  0.00000000000E+00 0.  1.
          2    1    6    6  503    0 -0.15739553001E+02  0.73108332836E+02 -0.67777784644E+02  0.10092764710E+03  0.00000000000E+00 0. -1.
         -2    1    6    6    0  503 -0.41145739565E+02  0.17485299766E+03 -0.67314448121E+01  0.17975498609E+03  0.00000000000E+00 0.  1.
<mgrwt>
<rscale>  0 0.13489670E+04</rscale>
<asrwt>0</asrwt>
<pdfrwt beam="1">  1        1 0.53437186E+00 0.13489670E+04</pdfrwt>
<pdfrwt beam="2">  1       -2 0.20149877E-01 0.13489670E+04</pdfrwt>
<totfact> 0.48302072E+00</totfact>
</mgrwt>
</event>
<event>
12    4  0.4207946E-008  0.2033248E+04  0.7818608E-02  0.8591232E-01
         -2   -1    0    0    0  501 -0.00000000000E+00  0.00000000000E+00  0.14987148582E+04  0.14987148582E+04  0.00000000000E+00 0.  1.
          1   -1    0    0  501    0  0.00000000000E+00 -0.00000000000E+00 -0.68960694901E+03  0.68960694901E+03  0.00000000000E+00 0. -1.
        -24    2    1    2    0    0 -0.25430405168E+03 -0.49959574217E+03  0.95852904619E+03  0.11133480829E+04  0.80619879685E+02 0.  0.
        254    2    1    2    0    0  0.25430405168E+03  0.49959574217E+03 -0.14942113704E+03  0.10749737243E+04  0.90497258267E+03 0.  0.
         23    2    4    4    0    0 -0.14751710935E+03 -0.15673659223E+03 -0.18739791026E+03  0.29915392958E+03  0.89707524312E+02 0.  0.
         23    2    4    4    0    0  0.40182116102E+03  0.65633233440E+03  0.37976773217E+02  0.77581979469E+03  0.90673810489E+02 0.  0.
          1    1    3    3  502    0 -0.23720870654E+02 -0.87678907450E+02  0.20411903344E+03  0.22341631617E+03  0.00000000000E+00 0. -1.
         -2    1    3    3    0  502 -0.23058318102E+03 -0.41191683472E+03  0.75441001275E+03  0.88993176673E+03  0.00000000000E+00 0.  1.
         11    1    5    5    0    0 -0.16664793475E+02 -0.13950701006E+02  0.88172940383E+01  0.23453828564E+02  0.00000000000E+00 0.  1.
        -11    1    5    5    0    0 -0.13085231587E+03 -0.14278589122E+03 -0.19621520430E+03  0.27570010101E+03  0.00000000000E+00 0. -1.
          3    1    6    6  503    0  0.28719305947E+03  0.52388845398E+03  0.54271452073E+02  0.59990362237E+03  0.00000000000E+00 0. -1.
         -3    1    6    6    0  503  0.11462810155E+03  0.13244388042E+03 -0.16294678856E+02  0.17591617232E+03  0.00000000000E+00 0.  1.
<mgrwt>
<rscale>  0 0.20332478E+04</rscale>
<asrwt>0</asrwt>
<pdfrwt beam="1">  1        1 0.10609338E+00 0.20332478E+04</pdfrwt>
<pdfrwt beam="2">  1       -2 0.23057152E+00 0.20332478E+04</pdfrwt>
<totfact> 0.19141326E+00</totfact>
</mgrwt>
</event>
<event>
12    4  0.4207946E-008  0.2055101E+04  0.7818608E-02  0.8581284E-01
         -2   -1    0    0    0  501 -0.00000000000E+00  0.00000000000E+00  0.12547989532E+04  0.12547989532E+04  0.00000000000E+00 0.  1.
          1   -1    0    0  501    0  0.00000000000E+00 -0.00000000000E+00 -0.84145736648E+03  0.84145736648E+03  0.00000000000E+00 0. -1.
        -24    2    1    2    0    0 -0.39253504162E+03 -0.27337544913E+03 -0.52487041962E+03  0.71440176902E+03  0.77865493663E+02 0.  0.
        254    2    1    2    0    0  0.39253504162E+03  0.27337544913E+03  0.93821200630E+03  0.13818545506E+04  0.89468560689E+03 0.  0.
         23    2    4    4    0    0  0.10779157263E+03  0.57144920350E+03  0.60699830354E+03  0.84532915344E+03  0.89225679247E+02 0.  0.
         23    2    4    4    0    0  0.28474346900E+03 -0.29807375437E+03  0.33121370275E+03  0.53652539717E+03  0.90720332542E+02 0.  0.
          1    1    3    3  502    0 -0.18228246911E+03 -0.10205890195E+03 -0.27730776498E+03  0.34719233075E+03  0.00000000000E+00 0. -1.
         -2    1    3    3    0  502 -0.21025257251E+03 -0.17131654719E+03 -0.24756265464E+03  0.36720943828E+03  0.00000000000E+00 0.  1.
         11    1    5    5    0    0  0.30515592584E+02  0.29351628937E+03  0.36052871073E+03  0.46590123930E+03  0.00000000000E+00 0. -1.
        -11    1    5    5    0    0  0.77275980043E+02  0.27793291413E+03  0.24646959281E+03  0.37942791414E+03  0.00000000000E+00 0.  1.
          1    1    6    6  503    0  0.19007468677E+03 -0.13426678316E+03  0.17495350068E+03  0.29114374973E+03  0.00000000000E+00 0. -1.
         -1    1    6    6    0  503  0.94668782230E+02 -0.16380697121E+03  0.15626020207E+03  0.24538164743E+03  0.00000000000E+00 0.  1.
<mgrwt>
<rscale>  0 0.20551008E+04</rscale>
<asrwt>0</asrwt>
<pdfrwt beam="1">  1        1 0.12945498E+00 0.20551008E+04</pdfrwt>
<pdfrwt beam="2">  1       -2 0.19304599E+00 0.20551008E+04</pdfrwt>
<totfact> 0.24356827E+00</totfact>
</mgrwt>
</event>
<event>
12    4  0.4207946E-008  0.1692574E+04  0.7818608E-02  0.8765611E-01
          1   -1    0    0  501    0  0.00000000000E+00  0.00000000000E+00  0.26800406667E+04  0.26800406667E+04  0.00000000000E+00 0. -1.
         -2   -1    0    0    0  501 -0.00000000000E+00 -0.00000000000E+00 -0.26723549206E+03  0.26723549206E+03  0.00000000000E+00 0.  1.
        -24    2    1    2    0    0  0.12308021466E+03  0.59947033214E+03  0.88124385426E+03  0.10757673451E+04  0.78557187566E+02 0.  0.
        254    2    1    2    0    0 -0.12308021466E+03 -0.59947033214E+03  0.15315613204E+04  0.18715088137E+04  0.88450649698E+03 0.  0.
         23    2    4    4    0    0 -0.34037564317E+03 -0.70929867504E+03  0.97028036667E+03  0.12530545761E+04  0.98699503043E+02 0.  0.
         23    2    4    4    0    0  0.21729542850E+03  0.10982834289E+03  0.56128095371E+03  0.61845423756E+03  0.90386762324E+02 0.  0.
          1    1    3    3  502    0  0.80406358674E+02  0.26418736914E+03  0.44810358497E+03  0.52636201553E+03  0.00000000000E+00 0. -1.
         -2    1    3    3    0  502  0.42673855991E+02  0.33528296300E+03  0.43314026930E+03  0.54940532956E+03  0.00000000000E+00 0.  1.
         11    1    5    5    0    0 -0.27630741013E+03 -0.47889486302E+03  0.70388052565E+03  0.89506081867E+03  0.00000000000E+00 0. -1.
        -11    1    5    5    0    0 -0.64068233037E+02 -0.23040381201E+03  0.26639984102E+03  0.35799375744E+03  0.00000000000E+00 0.  1.
          1    1    6    6  503    0  0.11320981739E+03  0.44489458072E+02  0.17519991015E+03  0.21328568435E+03  0.00000000000E+00 0. -1.
         -1    1    6    6    0  503  0.10408561111E+03  0.65338884823E+02  0.38608104356E+03  0.40516855320E+03  0.00000000000E+00 0.  1.
<mgrwt>
<rscale>  0 0.16925744E+04</rscale>
<asrwt>0</asrwt>
<pdfrwt beam="1">  1        1 0.41231393E+00 0.16925744E+04</pdfrwt>
<pdfrwt beam="2">  1       -2 0.41113154E-01 0.16925744E+04</pdfrwt>
<totfact> 0.47614121E+00</totfact>
</mgrwt>
</event>
<event>
12    4  0.4207946E-008  0.3638493E+04  0.7818608E-02  0.8081731E-01
          1   -1    0    0  501    0  0.00000000000E+00  0.00000000000E+00  0.15658688952E+04  0.15658688952E+04  0.00000000000E+00 0. -1.
         -2   -1    0    0    0  501 -0.00000000000E+00 -0.00000000000E+00 -0.21136242487E+04  0.21136242487E+04  0.00000000000E+00 0.  1.
        -24    2    1    2    0    0 -0.11448329414E+04  0.37502596398E+03 -0.14666101963E+04  0.18996154108E+04  0.79412238917E+02 0.  0.
        254    2    1    2    0    0  0.11448329414E+04 -0.37502596398E+03  0.91885484278E+03  0.17798777331E+04  0.93401476717E+03 0.  0.
         23    2    4    4    0    0  0.27342973100E+03 -0.55830967204E+03  0.39188410184E+03  0.74063594430E+03  0.92168026100E+02 0.  0.
         23    2    4    4    0    0  0.87140321037E+03  0.18328370806E+03  0.52697074094E+03  0.10392417888E+04  0.96896135364E+02 0.  0.
          3    1    3    3  502    0 -0.50943939391E+03  0.14897490995E+03 -0.59026496322E+03  0.79381027120E+03  0.00000000000E+00 0. -1.
         -4    1    3    3    0  502 -0.63539354747E+03  0.22605105403E+03 -0.87634523307E+03  0.11058051396E+04  0.00000000000E+00 0.  1.
         11    1    5    5    0    0  0.27528100219E+03 -0.50535766584E+03  0.36003202694E+03  0.67881445256E+03  0.00000000000E+00 0. -1.
        -11    1    5    5    0    0 -0.18512711883E+01 -0.52952006199E+02  0.31852074902E+02  0.61821491741E+02  0.00000000000E+00 0.  1.
          1    1    6    6  503    0  0.55576742509E+03  0.13123992155E+03  0.38840726463E+03  0.69062403015E+03  0.00000000000E+00 0. -1.
         -1    1    6    6    0  503  0.31563578528E+03  0.52043786503E+02  0.13856347630E+03  0.34861775862E+03  0.00000000000E+00 0.  1.
<mgrwt>
<rscale>  0 0.36384934E+04</rscale>
<asrwt>0</asrwt>
<pdfrwt beam="1">  1        1 0.24090291E+00 0.36384934E+04</pdfrwt>
<pdfrwt beam="2">  1       -2 0.32517296E+00 0.36384934E+04</pdfrwt>
<totfact> 0.92782808E-02</totfact>
</mgrwt>
</event>
<event>
12    4  0.4207946E-008  0.1560825E+04  0.7818608E-02  0.8844983E-01
          1   -1    0    0  501    0  0.00000000000E+00  0.00000000000E+00  0.54350964723E+03  0.54350964723E+03  0.00000000000E+00 0. -1.
         -2   -1    0    0    0  501 -0.00000000000E+00 -0.00000000000E+00 -0.11205758155E+04  0.11205758155E+04  0.00000000000E+00 0.  1.
        -24    2    1    2    0    0  0.21920415717E+03 -0.31066646142E+03 -0.58006048751E+03  0.69728621152E+03  0.71928984666E+02 0.  0.
        254    2    1    2    0    0 -0.21920415717E+03  0.31066646142E+03  0.29943192271E+01  0.96679925122E+03  0.88889128325E+03 0.  0.
         23    2    4    4    0    0  0.25317370953E+03  0.38602110038E+03  0.69694991220E+02  0.47582541753E+03  0.91886990568E+02 0.  0.
         23    2    4    4    0    0 -0.47237786670E+03 -0.75354638953E+02 -0.66700671993E+02  0.49097383369E+03  0.88244859143E+02 0.  0.
          3    1    3    3  502    0  0.18172175760E+03 -0.20646627212E+03 -0.38822201957E+03  0.47578088990E+03  0.00000000000E+00 0. -1.
         -4    1    3    3    0  502  0.37482399567E+02 -0.10420018930E+03 -0.19183846794E+03  0.22150532163E+03  0.00000000000E+00 0.  1.
         11    1    5    5    0    0  0.18264442986E+02  0.27875879594E-01 -0.17844825356E+01  0.18351431349E+02  0.00000000000E+00 0.  1.
        -11    1    5    5    0    0  0.23490926654E+03  0.38599322450E+03  0.71479473755E+02  0.45747398618E+03  0.00000000000E+00 0. -1.
          2    1    6    6  503    0 -0.29342958234E+03 -0.86889122421E+02 -0.26244697709E+02  0.30714723431E+03  0.00000000000E+00 0. -1.
         -2    1    6    6    0  503 -0.17894828435E+03  0.11534483468E+02 -0.40455974284E+02  0.18382659937E+03  0.00000000000E+00 0.  1.
<mgrwt>
<rscale>  0 0.15608251E+04</rscale>
<asrwt>0</asrwt>
<pdfrwt beam="1">  1        1 0.83616870E-01 0.15608251E+04</pdfrwt>
<pdfrwt beam="2">  1       -2 0.17239628E+00 0.15608251E+04</pdfrwt>
<totfact> 0.68025063E+00</totfact>
</mgrwt>
</event>
<event>
12    4  0.4207946E-008  0.2371005E+04  0.7818608E-02  0.8450439E-01
         -2   -1    0    0    0  501 -0.00000000000E+00  0.00000000000E+00  0.13156231468E+04  0.13156231468E+04  0.00000000000E+00 0.  1.
          1   -1    0    0  501    0  0.00000000000E+00 -0.00000000000E+00 -0.10682516402E+04  0.10682516402E+04  0.00000000000E+00 0. -1.
        -24    2    1    2    0    0 -0.63969448144E+03  0.78350544133E+03  0.13386039257E+03  0.10234466663E+04  0.80216381642E+02 0.  0.
        254    2    1    2    0    0  0.63969448144E+03 -0.78350544133E+03  0.11351111402E+03  0.13604281207E+04  0.90265723978E+03 0.  0.
         23    2    4    4    0    0  0.29219523300E+03 -0.13458294921E+02  0.36402611472E+03  0.47452420523E+03  0.84255737253E+02 0.  0.
         23    2    4    4    0    0  0.34749924844E+03 -0.77004714641E+03 -0.25051500070E+03  0.88590391551E+03  0.91321665471E+02 0.  0.
          3    1    3    3  502    0 -0.12832080458E+03  0.15510661938E+03 -0.54429821616E+01  0.20138003455E+03  0.00000000000E+00 0. -1.
         -4    1    3    3    0  502 -0.51137367687E+03  0.62839882195E+03  0.13930337473E+03  0.82206663175E+03  0.00000000000E+00 0.  1.
         11    1    5    5    0    0  0.28518846422E+03  0.39814032317E+01  0.33532889909E+03  0.44022015204E+03  0.00000000000E+00 0. -1.
        -11    1    5    5    0    0  0.70067687812E+01 -0.17439698153E+02  0.28697215634E+02  0.34304053194E+02  0.00000000000E+00 0.  1.
          4    1    6    6  503    0  0.33305332717E+03 -0.67143855450E+03 -0.23154413788E+03  0.78445327394E+03  0.00000000000E+00 0. -1.
         -4    1    6    6    0  503  0.14445921273E+02 -0.98608591906E+02 -0.18970862827E+02  0.10145064157E+03  0.00000000000E+00 0.  1.
<mgrwt>
<rscale>  0 0.23710053E+04</rscale>
<asrwt>0</asrwt>
<pdfrwt beam="1">  1        1 0.16434641E+00 0.23710053E+04</pdfrwt>
<pdfrwt beam="2">  1       -2 0.20240356E+00 0.23710053E+04</pdfrwt>
<totfact> 0.13542324E+00</totfact>
</mgrwt>
</event>
<event>
12    4  0.4207946E-008  0.2324986E+04  0.7818608E-02  0.8468134E-01
         -2   -1    0    0    0  501 -0.00000000000E+00  0.00000000000E+00  0.92010917736E+03  0.92010917736E+03  0.00000000000E+00 0.  1.
          1   -1    0    0  501    0  0.00000000000E+00 -0.00000000000E+00 -0.14687282520E+04  0.14687282520E+04  0.00000000000E+00 0. -1.
        -24    2    1    2    0    0  0.16659077287E+03 -0.34990946218E+03 -0.11594190575E+04  0.12251091147E+04  0.80316093106E+02 0.  0.
        254    2    1    2    0    0 -0.16659077287E+03  0.34990946218E+03  0.61079998284E+03  0.11637283146E+04  0.91159083689E+03 0.  0.
         23    2    4    4    0    0 -0.26414498430E+03 -0.20093757827E+03  0.46489805236E+03  0.57813556176E+03  0.89230295246E+02 0.  0.
         23    2    4    4    0    0  0.97554211433E+02  0.55084704046E+03  0.14590193048E+03  0.58559275287E+03  0.93178392086E+02 0.  0.
          1    1    3    3  502    0  0.12143617568E+03 -0.28336753210E+03 -0.81328793253E+03  0.86975925646E+03  0.00000000000E+00 0. -1.
         -2    1    3    3    0  502  0.45154597184E+02 -0.66541930083E+02 -0.34613112495E+03  0.35534985826E+03  0.00000000000E+00 0.  1.
         11    1    5    5    0    0 -0.24263013172E+03 -0.14949392502E+03  0.41420307273E+03  0.50277430314E+03  0.00000000000E+00 0. -1.
        -11    1    5    5    0    0 -0.21514852580E+02 -0.51443653250E+02  0.50694979631E+02  0.75361258622E+02  0.00000000000E+00 0.  1.
          4    1    6    6  503    0  0.42257651140E+02  0.31657970668E+03  0.37422360935E+02  0.32157246906E+03  0.00000000000E+00 0. -1.
         -4    1    6    6    0  503  0.55296560293E+02  0.23426733378E+03  0.10847956954E+03  0.26402028381E+03  0.00000000000E+00 0.  1.
<mgrwt>
<rscale>  0 0.23249863E+04</rscale>
<asrwt>0</asrwt>
<pdfrwt beam="1">  1        1 0.22595819E+00 0.23249863E+04</pdfrwt>
<pdfrwt beam="2">  1       -2 0.14155526E+00 0.23249863E+04</pdfrwt>
<totfact> 0.19004956E+00</totfact>
</mgrwt>
</event>
<event>
12    4  0.4207946E-008  0.1897326E+04  0.7818608E-02  0.8656189E-01
         -2   -1    0    0    0  501 -0.00000000000E+00  0.00000000000E+00  0.31502787614E+03  0.31502787614E+03  0.00000000000E+00 0.  1.
          1   -1    0    0  501    0  0.00000000000E+00 -0.00000000000E+00 -0.28567676853E+04  0.28567676853E+04  0.00000000000E+00 0. -1.
        -24    2    1    2    0    0 -0.18153380347E+03 -0.11348306562E+03 -0.21731219399E+04  0.21851458647E+04  0.81058969366E+02 0.  0.
        254    2    1    2    0    0  0.18153380347E+03  0.11348306562E+03 -0.36861786933E+03  0.98664969677E+03  0.88981209396E+03 0.  0.
         23    2    4    4    0    0 -0.25764586704E+03  0.14401394506E+03 -0.43395486231E+03  0.53238876619E+03  0.89440296700E+02 0.  0.
         23    2    4    4    0    0  0.43917967051E+03 -0.30530879441E+02  0.65336992976E+02  0.45426093058E+03  0.90956873343E+02 0.  0.
          1    1    3    3  502    0 -0.18989967260E+03 -0.10709796420E+03 -0.20962517948E+04  0.21075586461E+04  0.00000000000E+00 0. -1.
         -2    1    3    3    0  502  0.83658691343E+01 -0.63851014114E+01 -0.76870145116E+02  0.77587218642E+02  0.00000000000E+00 0.  1.
         11    1    5    5    0    0 -0.92421159675E+01  0.86869155197E+01  0.18598346622E+01  0.12819445923E+02  0.00000000000E+00 0. -1.
        -11    1    5    5    0    0 -0.24840375107E+03  0.13532702954E+03 -0.43581469697E+03  0.51956932027E+03  0.00000000000E+00 0.  1.
          3    1    6    6  503    0  0.15890134411E+03 -0.45158501936E+02 -0.36996898418E+01  0.16523503007E+03  0.00000000000E+00 0. -1.
         -3    1    6    6    0  503  0.28027832640E+03  0.14627622495E+02  0.69036682818E+02  0.28902590051E+03  0.00000000000E+00 0.  1.
<mgrwt>
<rscale>  0 0.18973260E+04</rscale>
<asrwt>0</asrwt>
<pdfrwt beam="1">  1        1 0.43950270E+00 0.18973260E+04</pdfrwt>
<pdfrwt beam="2">  1       -2 0.48465829E-01 0.18973260E+04</pdfrwt>
<totfact> 0.25205255E+00</totfact>
</mgrwt>
</event>
<event>
12    4  0.4207946E-008  0.1330672E+04  0.7818608E-02  0.9005590E-01
          1   -1    0    0  501    0  0.00000000000E+00  0.00000000000E+00  0.98386395332E+03  0.98386395332E+03  0.00000000000E+00 0. -1.
         -2   -1    0    0    0  501 -0.00000000000E+00 -0.00000000000E+00 -0.44993195954E+03  0.44993195954E+03  0.00000000000E+00 0.  1.
        -24    2    1    2    0    0  0.32267295759E+03  0.95918119610E+02  0.40226013665E+02  0.34747494909E+03  0.76174699459E+02 0.  0.
        254    2    1    2    0    0 -0.32267295759E+03 -0.95918119610E+02  0.49370598011E+03  0.10863209638E+04  0.90720974328E+03 0.  0.
         23    2    4    4    0    0 -0.11964449522E+03 -0.16573892049E+03  0.72430264384E+03  0.75799714466E+03  0.90339119159E+02 0.  0.
         23    2    4    4    0    0 -0.20302846238E+03  0.69820800876E+02 -0.23059666373E+03  0.32832381910E+03  0.92337468551E+02 0.  0.
          1    1    3    3  502    0  0.18119410698E+03  0.50089367306E+02 -0.15575851742E+02  0.18863418640E+03  0.00000000000E+00 0. -1.
         -2    1    3    3    0  502  0.14147885061E+03  0.45828752304E+02  0.55801865408E+02  0.15884076269E+03  0.00000000000E+00 0.  1.
         11    1    5    5    0    0  0.65861374436E+01 -0.90402424253E+01  0.74491341698E+01  0.13438481663E+02  0.00000000000E+00 0. -1.
        -11    1    5    5    0    0 -0.12623063266E+03 -0.15669867806E+03  0.71685350967E+03  0.74455866300E+03  0.00000000000E+00 0.  1.
          4    1    6    6  503    0 -0.17309786806E+02  0.42225267892E+02 -0.52094587257E+02  0.69256393130E+02  0.00000000000E+00 0. -1.
         -4    1    6    6    0  503 -0.18571867557E+03  0.27595532984E+02 -0.17850207647E+03  0.25906742597E+03  0.00000000000E+00 0.  1.
<mgrwt>
<rscale>  0 0.13306718E+04</rscale>
<asrwt>0</asrwt>
<pdfrwt beam="1">  1        1 0.15136368E+00 0.13306718E+04</pdfrwt>
<pdfrwt beam="2">  1       -2 0.69220302E-01 0.13306718E+04</pdfrwt>
<totfact> 0.25505135E+01</totfact>
</mgrwt>
</event>
<event>
12    4  0.4207946E-008  0.1800003E+04  0.7818608E-02  0.8706298E-01
          1   -1    0    0  501    0  0.00000000000E+00  0.00000000000E+00  0.56415358235E+03  0.56415358235E+03  0.00000000000E+00 0. -1.
         -2   -1    0    0    0  501 -0.00000000000E+00 -0.00000000000E+00 -0.14357833990E+04  0.14357833990E+04  0.00000000000E+00 0.  1.
        -24    2    1    2    0    0 -0.58748222011E+03 -0.19920472921E+03 -0.29370103280E+02  0.62603469532E+03  0.78987047643E+02 0.  0.
        254    2    1    2    0    0  0.58748222011E+03  0.19920472921E+03 -0.84225971334E+03  0.13739022860E+04  0.89072340469E+03 0.  0.
         23    2    4    4    0    0  0.42132068704E+03  0.35440533696E+03 -0.95464622312E+03  0.11056606197E+04  0.89564114003E+02 0.  0.
         23    2    4    4    0    0  0.16616153307E+03 -0.15520060775E+03  0.11238650978E+03  0.26824166626E+03  0.87326858495E+02 0.  0.
          3    1    3    3  502    0 -0.45981486536E+03 -0.12272469231E+03 -0.10557894697E+02  0.47602786647E+03  0.00000000000E+00 0. -1.
         -4    1    3    3    0  502 -0.12766735475E+03 -0.76480036894E+02 -0.18812208583E+02  0.15000682886E+03  0.00000000000E+00 0.  1.
         11    1    5    5    0    0  0.68961831193E+02  0.20181068894E+02 -0.11155791063E+03  0.13269580675E+03  0.00000000000E+00 0.  1.
        -11    1    5    5    0    0  0.35235885585E+03  0.33422426807E+03 -0.84308831249E+03  0.97296481299E+03  0.00000000000E+00 0. -1.
          3    1    6    6  503    0  0.69057060070E+02 -0.11562872993E+03  0.87056916810E+02  0.16036766350E+03  0.00000000000E+00 0. -1.
         -3    1    6    6    0  503  0.97104473001E+02 -0.39571877825E+02  0.25329592975E+02  0.10787400276E+03  0.00000000000E+00 0.  1.
<mgrwt>
<rscale>  0 0.18000026E+04</rscale>
<asrwt>0</asrwt>
<pdfrwt beam="1">  1        1 0.86792860E-01 0.18000026E+04</pdfrwt>
<pdfrwt beam="2">  1       -2 0.22088975E+00 0.18000026E+04</pdfrwt>
<totfact> 0.30130639E+00</totfact>
</mgrwt>
</event>
<event>
12    4  0.4207946E-008  0.1778476E+04  0.7818608E-02  0.8717830E-01
          1   -1    0    0  501    0  0.00000000000E+00  0.00000000000E+00  0.97815397891E+03  0.97815397891E+03  0.00000000000E+00 0. -1.
         -4   -1    0    0    0  501 -0.00000000000E+00 -0.00000000000E+00 -0.80840491918E+03  0.80840491918E+03  0.00000000000E+00 0.  1.
        -24    2    1    2    0    0  0.25572262118E+03  0.44812428939E+03  0.47523732000E+03  0.70593910929E+03  0.79310011887E+02 0.  0.
        254    2    1    2    0    0 -0.25572262118E+03 -0.44812428939E+03 -0.30548826026E+03  0.10806197888E+04  0.89900312183E+03 0.  0.
         23    2    4    4    0    0 -0.30374228300E+03 -0.22108334726E+03  0.25761372127E+03  0.46457962539E+03  0.91280764826E+02 0.  0.
         23    2    4    4    0    0  0.48019661811E+02 -0.22704094212E+03 -0.56310198153E+03  0.61604016341E+03  0.92564377640E+02 0.  0.
          3    1    3    3  502    0  0.13906651079E+03  0.29440907319E+03  0.33674761424E+03  0.46841771155E+03  0.00000000000E+00 0. -1.
         -4    1    3    3    0  502  0.11665611040E+03  0.15371521619E+03  0.13848970576E+03  0.23752139774E+03  0.00000000000E+00 0.  1.
         11    1    5    5    0    0 -0.14305891001E+03 -0.11404817539E+03  0.71557877456E+02  0.19645194799E+03  0.00000000000E+00 0. -1.
        -11    1    5    5    0    0 -0.16068337299E+03 -0.10703517187E+03  0.18605584381E+03  0.26812767740E+03  0.00000000000E+00 0.  1.
          1    1    6    6  503    0 -0.18234310593E+02 -0.13425328634E+03 -0.28962715008E+03  0.31975040429E+03  0.00000000000E+00 0. -1.
         -1    1    6    6    0  503  0.66253972405E+02 -0.92787655778E+02 -0.27347483145E+03  0.29628975912E+03  0.00000000000E+00 0.  1.
<mgrwt>
<rscale>  0 0.17784763E+04</rscale>
<asrwt>0</asrwt>
<pdfrwt beam="1">  1        1 0.15048523E+00 0.17784763E+04</pdfrwt>
<pdfrwt beam="2">  1       -4 0.12436999E+00 0.17784763E+04</pdfrwt>
<totfact> 0.34943501E+00</totfact>
</mgrwt>
</event>
<event>
12    4  0.4207946E-008  0.1477767E+04  0.7818608E-02  0.8899374E-01
         -2   -1    0    0    0  501 -0.00000000000E+00  0.00000000000E+00  0.47190822958E+03  0.47190822958E+03  0.00000000000E+00 0.  1.
          1   -1    0    0  501    0  0.00000000000E+00 -0.00000000000E+00 -0.11568960801E+04  0.11568960801E+04  0.00000000000E+00 0. -1.
        -24    2    1    2    0    0 -0.20825742949E+03 -0.10641110010E+03  0.21258556071E+03  0.32597323297E+03  0.79821355719E+02 0.  0.
        254    2    1    2    0    0  0.20825742949E+03  0.10641110010E+03 -0.89757341120E+03  0.13028310767E+04  0.91489688312E+03 0.  0.
         23    2    4    4    0    0 -0.35457669927E+03  0.35529077476E+02 -0.32019566166E+03  0.48823102791E+03  0.94113356433E+02 0.  0.
         23    2    4    4    0    0  0.56283412876E+03  0.70882022627E+02 -0.57737774954E+03  0.81460004878E+03  0.91660548678E+02 0.  0.
          1    1    3    3  502    0 -0.41396097202E+02 -0.16558875064E+02  0.89512955406E+02  0.10000201194E+03  0.00000000000E+00 0. -1.
         -2    1    3    3    0  502 -0.16686133229E+03 -0.89852225039E+02  0.12307260530E+03  0.22597122103E+03  0.00000000000E+00 0.  1.
         11    1    5    5    0    0 -0.30341099099E+03  0.50844568014E+02 -0.23275591767E+03  0.38577029015E+03  0.00000000000E+00 0. -1.
        -11    1    5    5    0    0 -0.51165708279E+02 -0.15315490538E+02 -0.87439743993E+02  0.10246073777E+03  0.00000000000E+00 0.  1.
          3    1    6    6  503    0  0.48601614649E+03  0.56258427034E+02 -0.44777503972E+03  0.66323388895E+03  0.00000000000E+00 0. -1.
         -3    1    6    6    0  503  0.76817982264E+02  0.14623595593E+02 -0.12960270982E+03  0.15136615982E+03  0.00000000000E+00 0.  1.
<mgrwt>
<rscale>  0 0.14777669E+04</rscale>
<asrwt>0</asrwt>
<pdfrwt beam="1">  1        1 0.17798401E+00 0.14777669E+04</pdfrwt>
<pdfrwt beam="2">  1       -2 0.72601267E-01 0.14777669E+04</pdfrwt>
<totfact> 0.16764335E+01</totfact>
</mgrwt>
</event>
<event>
12    4  0.4207946E-008  0.1834869E+04  0.7818608E-02  0.8687973E-01
         -2   -1    0    0    0  501 -0.00000000000E+00  0.00000000000E+00  0.14340617064E+04  0.14340617064E+04  0.00000000000E+00 0.  1.
          1   -1    0    0  501    0  0.00000000000E+00 -0.00000000000E+00 -0.58692430362E+03  0.58692430362E+03  0.00000000000E+00 0. -1.
        -24    2    1    2    0    0  0.62561967631E+03 -0.10377233359E+03  0.55211270144E+03  0.84456699408E+03  0.79349201582E+02 0.  0.
        254    2    1    2    0    0 -0.62561967631E+03  0.10377233359E+03  0.29502470136E+03  0.11764190160E+04  0.94591408177E+03 0.  0.
         23    2    4    4    0    0 -0.30413734122E+03  0.48242789769E+03  0.34065684695E+03  0.66943429946E+03  0.82819050506E+02 0.  0.
         23    2    4    4    0    0 -0.32148233509E+03 -0.37865556410E+03 -0.45632145595E+02  0.50698471649E+03  0.90665771122E+02 0.  0.
          1    1    3    3  502    0  0.27378957444E+03 -0.21818248270E+02  0.28069671467E+03  0.39271798108E+03  0.00000000000E+00 0. -1.
         -2    1    3    3    0  502  0.35183010186E+03 -0.81954085321E+02  0.27141598676E+03  0.45184901300E+03  0.00000000000E+00 0.  1.
         11    1    5    5    0    0 -0.98962681965E+02  0.96915043090E+02  0.65056346693E+02  0.15303093231E+03  0.00000000000E+00 0. -1.
        -11    1    5    5    0    0 -0.20517465926E+03  0.38551285460E+03  0.27560050026E+03  0.51640336715E+03  0.00000000000E+00 0.  1.
          3    1    6    6  503    0 -0.67294127062E+02 -0.32315162920E+02 -0.16065734730E+02  0.76360180225E+02  0.00000000000E+00 0. -1.
         -3    1    6    6    0  503 -0.25418820803E+03 -0.34634040118E+03 -0.29566410865E+02  0.43062453627E+03  0.00000000000E+00 0.  1.
<mgrwt>
<rscale>  0 0.18348686E+04</rscale>
<asrwt>0</asrwt>
<pdfrwt beam="1">  1        1 0.90296047E-01 0.18348686E+04</pdfrwt>
<pdfrwt beam="2">  1       -2 0.22062488E+00 0.18348686E+04</pdfrwt>
<totfact> 0.28500714E+00</totfact>
</mgrwt>
</event>
<event>
12    4  0.4207946E-008  0.1676233E+04  0.7818608E-02  0.8775037E-01
         -2   -1    0    0    0  501 -0.00000000000E+00  0.00000000000E+00  0.42351324680E+03  0.42351324680E+03  0.00000000000E+00 0.  1.
          1   -1    0    0  501    0  0.00000000000E+00 -0.00000000000E+00 -0.16585995697E+04  0.16585995697E+04  0.00000000000E+00 0. -1.
        -24    2    1    2    0    0 -0.25598676072E+03 -0.52365346949E+03 -0.29348380801E+03  0.65751001745E+03  0.80277641436E+02 0.  0.
        254    2    1    2    0    0  0.25598676072E+03  0.52365346949E+03 -0.94160251491E+03  0.14246027991E+04  0.89617836465E+03 0.  0.
         23    2    4    4    0    0  0.48451703761E+03  0.14718555416E+03 -0.19021375520E+03  0.54890625485E+03  0.93254795368E+02 0.  0.
         23    2    4    4    0    0 -0.22853027690E+03  0.37646791533E+03 -0.75138875971E+03  0.87569654422E+03  0.91132818466E+02 0.  0.
          3    1    3    3  502    0 -0.98296414117E+02 -0.28562164718E+03 -0.13386881771E+03  0.33039789757E+03  0.00000000000E+00 0. -1.
         -4    1    3    3    0  502 -0.15769034660E+03 -0.23803182231E+03 -0.15961499030E+03  0.32711211988E+03  0.00000000000E+00 0.  1.
         11    1    5    5    0    0  0.30753663790E+03  0.48779463332E+02 -0.98345366702E+02  0.32654254064E+03  0.00000000000E+00 0.  1.
        -11    1    5    5    0    0  0.17698039971E+03  0.98406090829E+02 -0.91868388497E+02  0.22236371421E+03  0.00000000000E+00 0. -1.
          1    1    6    6  503    0 -0.29240665122E+02  0.79073034021E+02 -0.87940000598E+02  0.12182366318E+03  0.00000000000E+00 0. -1.
         -1    1    6    6    0  503 -0.19928961177E+03  0.29739488131E+03 -0.66344875911E+03  0.75387288103E+03  0.00000000000E+00 0.  1.
<mgrwt>
<rscale>  0 0.16762325E+04</rscale>
<asrwt>0</asrwt>
<pdfrwt beam="1">  1        1 0.25516917E+00 0.16762325E+04</pdfrwt>
<pdfrwt beam="2">  1       -2 0.65155883E-01 0.16762325E+04</pdfrwt>
<totfact> 0.92462054E+00</totfact>
</mgrwt>
</event>
<event>
12    4  0.4207946E-008  0.1439891E+04  0.7818608E-02  0.8925439E-01
          1   -1    0    0  501    0  0.00000000000E+00  0.00000000000E+00  0.12347642139E+04  0.12347642139E+04  0.00000000000E+00 0. -1.
         -2   -1    0    0    0  501 -0.00000000000E+00 -0.00000000000E+00 -0.41977394668E+03  0.41977394668E+03  0.00000000000E+00 0.  1.
        -24    2    1    2    0    0 -0.48970173723E+02 -0.16038100180E+03 -0.20291858930E+03  0.27505088365E+03  0.79730113906E+02 0.  0.
        254    2    1    2    0    0  0.48970173723E+02  0.16038100180E+03  0.10179088565E+04  0.13794872769E+04  0.91582015886E+03 0.  0.
         23    2    4    4    0    0  0.44649716360E+03  0.12512807238E+03  0.76198992954E+03  0.89668553282E+03  0.91649006717E+02 0.  0.
         23    2    4    4    0    0 -0.39752698988E+03  0.35252929418E+02  0.25591892699E+03  0.48280174412E+03  0.91282803538E+02 0.  0.
          3    1    3    3  502    0 -0.32470365209E+02 -0.39342731315E+02 -0.19363821404E+02  0.54563107532E+02  0.00000000000E+00 0. -1.
         -4    1    3    3    0  502 -0.16499808514E+02 -0.12103827048E+03 -0.18355476789E+03  0.22048777612E+03  0.00000000000E+00 0.  1.
         11    1    5    5    0    0  0.41574650402E+03  0.95802375115E+02  0.72021191679E+03  0.83709524893E+03  0.00000000000E+00 0. -1.
        -11    1    5    5    0    0  0.30750659577E+02  0.29325697263E+02  0.41778012750E+02  0.59590283886E+02  0.00000000000E+00 0.  1.
          4    1    6    6  503    0 -0.24410824787E+03  0.49233698818E+02  0.19827061483E+03  0.31831435796E+03  0.00000000000E+00 0. -1.
         -4    1    6    6    0  503 -0.15341874201E+03 -0.13980769400E+02  0.57648312163E+02  0.16448738616E+03  0.00000000000E+00 0.  1.
<mgrwt>
<rscale>  0 0.14398915E+04</rscale>
<asrwt>0</asrwt>
<pdfrwt beam="1">  1        1 0.18996372E+00 0.14398915E+04</pdfrwt>
<pdfrwt beam="2">  1       -2 0.64580608E-01 0.14398915E+04</pdfrwt>
<totfact> 0.19024112E+01</totfact>
</mgrwt>
</event>
<event>
12    4  0.4207946E-008  0.1325503E+04  0.7818608E-02  0.9009582E-01
          1   -1    0    0  501    0  0.00000000000E+00  0.00000000000E+00  0.25748086642E+04  0.25748086642E+04  0.00000000000E+00 0. -1.
         -2   -1    0    0    0  501 -0.00000000000E+00 -0.00000000000E+00 -0.17059107769E+03  0.17059107769E+03  0.00000000000E+00 0.  1.
        -24    2    1    2    0    0  0.65811365164E+01  0.28215608055E+03  0.22082305023E+03  0.36704267582E+03  0.79386026543E+02 0.  0.
        254    2    1    2    0    0 -0.65811365164E+01 -0.28215608055E+03  0.21833945363E+04  0.23783570661E+04  0.89984180137E+03 0.  0.
         23    2    4    4    0    0 -0.22542774430E+03 -0.47719931442E+03  0.80833488744E+03  0.96952996782E+03  0.89700694861E+02 0.  0.
         23    2    4    4    0    0  0.21884660779E+03  0.19504323387E+03  0.13750596489E+04  0.14088270983E+04  0.89827913629E+02 0.  0.
          3    1    3    3  502    0 -0.23827513253E+02  0.69273185086E+02  0.87105282120E+02  0.11381500223E+03  0.00000000000E+00 0. -1.
         -4    1    3    3    0  502  0.30408649770E+02  0.21288289547E+03  0.13371776811E+03  0.25322767359E+03  0.00000000000E+00 0.  1.
         11    1    5    5    0    0 -0.13997319149E+03 -0.38468194286E+03  0.61349724151E+03  0.73753071586E+03  0.00000000000E+00 0. -1.
        -11    1    5    5    0    0 -0.85454552811E+02 -0.92517371561E+02  0.19483764593E+03  0.23199925196E+03  0.00000000000E+00 0.  1.
          4    1    6    6  503    0  0.19949957769E+03  0.17959446941E+03  0.13351145990E+04  0.13618315782E+04  0.00000000000E+00 0. -1.
         -4    1    6    6    0  503  0.19347030096E+02  0.15448764461E+02  0.39945049837E+02  0.46995520035E+02  0.00000000000E+00 0.  1.
<mgrwt>
<rscale>  0 0.13255027E+04</rscale>
<asrwt>0</asrwt>
<pdfrwt beam="1">  1        1 0.39612438E+00 0.13255027E+04</pdfrwt>
<pdfrwt beam="2">  1       -2 0.26244783E-01 0.13255027E+04</pdfrwt>
<totfact> 0.13652493E+01</totfact>
</mgrwt>
</event>
<event>
12    4  0.4207946E-008  0.1895062E+04  0.7818608E-02  0.8657318E-01
          1   -1    0    0  501    0  0.00000000000E+00  0.00000000000E+00  0.15569318113E+04  0.15569318113E+04  0.00000000000E+00 0. -1.
         -2   -1    0    0    0  501 -0.00000000000E+00 -0.00000000000E+00 -0.57665665509E+03  0.57665665509E+03  0.00000000000E+00 0.  1.
        -24    2    1    2    0    0  0.10969576601E+03  0.29230267205E+03  0.11315637817E+04  0.11763148135E+04  0.76196687063E+02 0.  0.
        254    2    1    2    0    0 -0.10969576601E+03 -0.29230267205E+03 -0.15128862554E+03  0.95727365289E+03  0.89219425302E+03 0.  0.
         23    2    4    4    0    0  0.10570146627E+01 -0.59923652470E+03 -0.10322459366E+03  0.61488865074E+03  0.91363046427E+02 0.  0.
         23    2    4    4    0    0 -0.11075278068E+03  0.30693385265E+03 -0.48064031884E+02  0.34238500215E+03  0.91884548248E+02 0.  0.
          1    1    3    3  502    0  0.78921493021E+02  0.25023858378E+03  0.10194940931E+04  0.10527184603E+04  0.00000000000E+00 0. -1.
         -2    1    3    3    0  502  0.30774272992E+02  0.42064088266E+02  0.11206968863E+03  0.12359635314E+03  0.00000000000E+00 0.  1.
         11    1    5    5    0    0 -0.35594552523E+02 -0.11464839701E+03 -0.25792206605E+02  0.12278625749E+03  0.00000000000E+00 0. -1.
        -11    1    5    5    0    0  0.36651567186E+02 -0.48458812769E+03 -0.77432387052E+02  0.49210239325E+03  0.00000000000E+00 0.  1.
          3    1    6    6  503    0 -0.10660939253E+02  0.25656806106E+02 -0.33434395507E+02  0.43471670410E+02  0.00000000000E+00 0. -1.
         -3    1    6    6    0  503 -0.10009184142E+03  0.28127704654E+03 -0.14629636377E+02  0.29891333174E+03  0.00000000000E+00 0.  1.
<mgrwt>
<rscale>  0 0.18950621E+04</rscale>
<asrwt>0</asrwt>
<pdfrwt beam="1">  1        1 0.23952797E+00 0.18950621E+04</pdfrwt>
<pdfrwt beam="2">  1       -2 0.88716409E-01 0.18950621E+04</pdfrwt>
<totfact> 0.53617911E+00</totfact>
</mgrwt>
</event>
<event>
12    4  0.4207946E-008  0.1259903E+04  0.7818608E-02  0.9061981E-01
         -2   -1    0    0    0  501 -0.00000000000E+00  0.00000000000E+00  0.60161870769E+03  0.60161870769E+03  0.00000000000E+00 0.  1.
          1   -1    0    0  501    0  0.00000000000E+00 -0.00000000000E+00 -0.65961831149E+03  0.65961831149E+03  0.00000000000E+00 0. -1.
        -24    2    1    2    0    0 -0.10559287814E+03 -0.26602878122E+03  0.10191017837E+03  0.31545151040E+03  0.84869326646E+02 0.  0.
        254    2    1    2    0    0  0.10559287814E+03  0.26602878122E+03 -0.15990978217E+03  0.94578550878E+03  0.88714030561E+03 0.  0.
         23    2    4    4    0    0 -0.29126925371E+03  0.12137443001E+03  0.19906703836E+03  0.38409378247E+03  0.91273312383E+02 0.  0.
         23    2    4    4    0    0  0.39686213186E+03  0.14465435121E+03 -0.35897682053E+03  0.56169172631E+03  0.90602454144E+02 0.  0.
          3    1    3    3  502    0  0.71593473473E+01 -0.84174581929E+02  0.25450337387E+02  0.88228885125E+02  0.00000000000E+00 0. -1.
         -4    1    3    3    0  502 -0.11275222549E+03 -0.18185419929E+03  0.76459840979E+02  0.22722262528E+03  0.00000000000E+00 0.  1.
         11    1    5    5    0    0 -0.61893845179E+01  0.15043109200E+02 -0.58190396383E+01  0.17276134910E+02  0.00000000000E+00 0. -1.
        -11    1    5    5    0    0 -0.28507986919E+03  0.10633132081E+03  0.20488607800E+03  0.36681764756E+03  0.00000000000E+00 0.  1.
          3    1    6    6  503    0  0.15868091994E+03  0.69229579877E+02 -0.92017647171E+02  0.19606023685E+03  0.00000000000E+00 0. -1.
         -3    1    6    6    0  503  0.23818121192E+03  0.75424771332E+02 -0.26695917336E+03  0.36563148946E+03  0.00000000000E+00 0.  1.
<mgrwt>
<rscale>  0 0.12599027E+04</rscale>
<asrwt>0</asrwt>
<pdfrwt beam="1">  1        1 0.10147974E+00 0.12599027E+04</pdfrwt>
<pdfrwt beam="2">  1       -2 0.92556724E-01 0.12599027E+04</pdfrwt>
<totfact> 0.25465109E+01</totfact>
</mgrwt>
</event>
<event>
12    4  0.4207946E-008  0.1248060E+04  0.7818608E-02  0.9071800E-01
         -4   -1    0    0    0  501 -0.00000000000E+00  0.00000000000E+00  0.62414595775E+03  0.62414595775E+03  0.00000000000E+00 0.  1.
          3   -1    0    0  501    0  0.00000000000E+00 -0.00000000000E+00 -0.62391399683E+03  0.62391399683E+03  0.00000000000E+00 0. -1.
        -24    2    1    2    0    0  0.27907189152E+03  0.77901397867E+02  0.32391445316E+02  0.30194926111E+03  0.78577363983E+02 0.  0.
        254    2    1    2    0    0 -0.27907189152E+03 -0.77901397867E+02 -0.32159484391E+02  0.94611069347E+03  0.90007858736E+03 0.  0.
         23    2    4    4    0    0  0.61029656815E+02 -0.43191144727E+03 -0.30736609911E+02  0.44674419133E+03  0.91452260783E+02 0.  0.
         23    2    4    4    0    0 -0.34010154834E+03  0.35401004941E+03 -0.14228744798E+01  0.49936650214E+03  0.91502462388E+02 0.  0.
          3    1    3    3  502    0  0.19676117458E+03  0.39666082574E+02 -0.11675288364E+02  0.20105887269E+03  0.00000000000E+00 0. -1.
         -4    1    3    3    0  502  0.82310716936E+02  0.38235315293E+02  0.44066733680E+02  0.10089038842E+03  0.00000000000E+00 0.  1.
         11    1    5    5    0    0  0.69305889074E+01 -0.33196141856E+03 -0.23016324446E+02  0.33283053896E+03  0.00000000000E+00 0. -1.
        -11    1    5    5    0    0  0.54099067908E+02 -0.99950028715E+02 -0.77202854645E+01  0.11391365237E+03  0.00000000000E+00 0.  1.
          3    1    6    6  503    0 -0.28049566937E+03  0.33020639490E+03 -0.15975409364E+02  0.43355426128E+03  0.00000000000E+00 0. -1.
         -3    1    6    6    0  503 -0.59605878966E+02  0.23803654505E+02  0.14552534885E+02  0.65812240857E+02  0.00000000000E+00 0.  1.
<mgrwt>
<rscale>  0 0.12480599E+04</rscale>
<asrwt>0</asrwt>
<pdfrwt beam="1">  1        3 0.95986769E-01 0.12480599E+04</pdfrwt>
<pdfrwt beam="2">  1       -4 0.96022455E-01 0.12480599E+04</pdfrwt>
<totfact> 0.19689710E+00</totfact>
</mgrwt>
</event>
<event>
12    4  0.4207946E-008  0.2836785E+04  0.7818608E-02  0.8291938E-01
          1   -1    0    0  501    0  0.00000000000E+00  0.00000000000E+00  0.95614085489E+03  0.95614085489E+03  0.00000000000E+00 0. -1.
         -2   -1    0    0    0  501 -0.00000000000E+00 -0.00000000000E+00 -0.21041227517E+04  0.21041227517E+04  0.00000000000E+00 0.  1.
        -24    2    1    2    0    0  0.10149725887E+04  0.14468959088E+03 -0.13093074578E+04  0.16649284952E+04  0.81218479897E+02 0.  0.
        254    2    1    2    0    0 -0.10149725887E+04 -0.14468959088E+03  0.16132556095E+03  0.13953351114E+04  0.93264661205E+03 0.  0.
         23    2    4    4    0    0 -0.78721338085E+03  0.32049911084E+02  0.50297455335E+03  0.93920784280E+03  0.91628963104E+02 0.  0.
         23    2    4    4    0    0 -0.22775920789E+03 -0.17673950196E+03 -0.34164899240E+03  0.45612726862E+03  0.90647354309E+02 0.  0.
          3    1    3    3  502    0  0.32461808741E+02  0.80551634424E+01 -0.23153930390E+02  0.40678731265E+02  0.00000000000E+00 0. -1.
         -4    1    3    3    0  502  0.98251078000E+03  0.13663442743E+03 -0.12861535274E+04  0.16242497639E+04  0.00000000000E+00 0.  1.
         11    1    5    5    0    0 -0.76580360212E+03  0.26288318226E+02  0.46822344476E+03  0.89798631777E+03  0.00000000000E+00 0. -1.
        -11    1    5    5    0    0 -0.21409778736E+02  0.57615928583E+01  0.34751108586E+02  0.41221525029E+02  0.00000000000E+00 0.  1.
          2    1    6    6  503    0 -0.20234668582E+03 -0.18618699229E+03 -0.31456827211E+03  0.41780734218E+03  0.00000000000E+00 0. -1.
         -2    1    6    6    0  503 -0.25412522070E+02  0.94474903276E+01 -0.27080720290E+02  0.38319926447E+02  0.00000000000E+00 0.  1.
<mgrwt>
<rscale>  0 0.28367853E+04</rscale>
<asrwt>0</asrwt>
<pdfrwt beam="1">  1        1 0.14709860E+00 0.28367853E+04</pdfrwt>
<pdfrwt beam="2">  1       -2 0.32371119E+00 0.28367853E+04</pdfrwt>
<totfact> 0.28178456E-01</totfact>
</mgrwt>
</event>
<event>
12    4  0.4207946E-008  0.1370252E+04  0.7818608E-02  0.8975637E-01
         -2   -1    0    0    0  501 -0.00000000000E+00  0.00000000000E+00  0.35462714548E+03  0.35462714548E+03  0.00000000000E+00 0.  1.
          1   -1    0    0  501    0  0.00000000000E+00 -0.00000000000E+00 -0.13236376135E+04  0.13236376135E+04  0.00000000000E+00 0. -1.
        -24    2    1    2    0    0 -0.33872987371E+03 -0.83097113764E+02 -0.79201901484E+02  0.36667627584E+03  0.80842392393E+02 0.  0.
        254    2    1    2    0    0  0.33872987371E+03  0.83097113764E+02 -0.88980856655E+03  0.13115884832E+04  0.89825497850E+03 0.  0.
         23    2    4    4    0    0  0.29239032155E+03  0.15750564345E+03 -0.10517329175E+04  0.11065561285E+04  0.89577943686E+02 0.  0.
         23    2    4    4    0    0  0.46339552162E+02 -0.74408529683E+02  0.16192435093E+03  0.20503235464E+03  0.90193057612E+02 0.  0.
          3    1    3    3  502    0 -0.31809743085E+03 -0.61358111064E+02 -0.55981729410E+02  0.32876244818E+03  0.00000000000E+00 0. -1.
         -4    1    3    3    0  502 -0.20632442858E+02 -0.21739002699E+02 -0.23220172073E+02  0.37913827659E+02  0.00000000000E+00 0.  1.
         11    1    5    5    0    0  0.26605240225E+02  0.36340007893E+02 -0.79270963374E+02  0.91171928878E+02  0.00000000000E+00 0. -1.
        -11    1    5    5    0    0  0.26578508132E+03  0.12116563555E+03 -0.97246195411E+03  0.10153841996E+04  0.00000000000E+00 0.  1.
          2    1    6    6  503    0  0.49379573912E+01  0.87140411899E+01 -0.70319773655E+01  0.12237918235E+02  0.00000000000E+00 0. -1.
         -2    1    6    6    0  503  0.41401594770E+02 -0.83122570873E+02  0.16895632830E+03  0.19279443641E+03  0.00000000000E+00 0.  1.
<mgrwt>
<rscale>  0 0.13702523E+04</rscale>
<asrwt>0</asrwt>
<pdfrwt beam="1">  1        1 0.20363656E+00 0.13702523E+04</pdfrwt>
<pdfrwt beam="2">  1       -2 0.54558021E-01 0.13702523E+04</pdfrwt>
<totfact> 0.23582323E+01</totfact>
</mgrwt>
</event>
<event>
12    4  0.4207946E-008  0.1082330E+04  0.7818608E-02  0.9222587E-01
         -2   -1    0    0    0  501 -0.00000000000E+00  0.00000000000E+00  0.15400551468E+03  0.15400551468E+03  0.00000000000E+00 0.  1.
          1   -1    0    0  501    0  0.00000000000E+00 -0.00000000000E+00 -0.19016189470E+04  0.19016189470E+04  0.00000000000E+00 0. -1.
        -24    2    1    2    0    0 -0.34734533597E+02  0.32063587939E+02 -0.57447925026E+01  0.92782838283E+02  0.79630967238E+02 0.  0.
        254    2    1    2    0    0  0.34734533597E+02 -0.32063587939E+02 -0.17418686398E+04  0.19628416234E+04  0.90355205643E+03 0.  0.
         23    2    4    4    0    0  0.30929982664E+03 -0.33249077199E+03 -0.11402917135E+04  0.12307697583E+04  0.91172966509E+02 0.  0.
         23    2    4    4    0    0 -0.27456529304E+03  0.30042718406E+03 -0.60157692629E+03  0.73207186508E+03  0.91606901168E+02 0.  0.
          1    1    3    3  502    0 -0.20085557951E+02 -0.23879879764E+02  0.10142140338E+02  0.32810688904E+02  0.00000000000E+00 0. -1.
         -2    1    3    3    0  502 -0.14648975646E+02  0.55943467702E+02 -0.15886932841E+02  0.59972149379E+02  0.00000000000E+00 0.  1.
         11    1    5    5    0    0  0.28028187463E+03 -0.32041639860E+03 -0.11011283693E+04  0.11805542272E+04  0.00000000000E+00 0.  1.
        -11    1    5    5    0    0  0.29017952008E+02 -0.12074373396E+02 -0.39163344222E+02  0.50215531086E+02  0.00000000000E+00 0. -1.
          4    1    6    6  503    0 -0.43242893453E+02  0.74958182367E+01 -0.66119185850E+02  0.79359195199E+02  0.00000000000E+00 0. -1.
         -4    1    6    6    0  503 -0.23132239959E+03  0.29293136582E+03 -0.53545774044E+03  0.65271266989E+03  0.00000000000E+00 0.  1.
<mgrwt>
<rscale>  0 0.10823305E+04</rscale>
<asrwt>0</asrwt>
<pdfrwt beam="1">  1        1 0.29255679E+00 0.10823305E+04</pdfrwt>
<pdfrwt beam="2">  1       -2 0.23693154E-01 0.10823305E+04</pdfrwt>
<totfact> 0.48222067E+01</totfact>
</mgrwt>
</event>
<event>
12    4  0.4207946E-008  0.1260049E+04  0.7818608E-02  0.9061860E-01
          1   -1    0    0  501    0  0.00000000000E+00  0.00000000000E+00  0.13550645497E+04  0.13550645497E+04  0.00000000000E+00 0. -1.
         -2   -1    0    0    0  501 -0.00000000000E+00 -0.00000000000E+00 -0.29292417980E+03  0.29292417980E+03  0.00000000000E+00 0.  1.
        -24    2    1    2    0    0  0.19005133110E+03  0.14419995975E+03  0.54394676933E+03  0.59935366647E+03  0.80209680254E+02 0.  0.
        254    2    1    2    0    0 -0.19005133110E+03 -0.14419995975E+03  0.51819360054E+03  0.10486350630E+04  0.87988507822E+03 0.  0.
         23    2    4    4    0    0 -0.29963574265E+03 -0.33972171116E+03 -0.16121676728E+02  0.46224588675E+03  0.90658325905E+02 0.  0.
         23    2    4    4    0    0  0.10958441155E+03  0.19552175141E+03  0.53431527727E+03  0.58638917625E+03  0.90121872888E+02 0.  0.
          1    1    3    3  502    0  0.12637283843E+03  0.70331752804E+02  0.40120201922E+03  0.42647357476E+03  0.00000000000E+00 0. -1.
         -2    1    3    3    0  502  0.63678492669E+02  0.73868206944E+02  0.14274475011E+03  0.17288009171E+03  0.00000000000E+00 0.  1.
         11    1    5    5    0    0 -0.28578350225E+02 -0.84108231829E+02 -0.12103362568E+02  0.89651593117E+02  0.00000000000E+00 0. -1.
        -11    1    5    5    0    0 -0.27105739242E+03 -0.25561347933E+03 -0.40183141602E+01  0.37259429363E+03  0.00000000000E+00 0.  1.
          2    1    6    6  503    0  0.31864208477E+02  0.14545365926E+03  0.34176825454E+03  0.37279704208E+03  0.00000000000E+00 0. -1.
         -2    1    6    6    0  503  0.77720203068E+02  0.50068092143E+02  0.19254702273E+03  0.21359213417E+03  0.00000000000E+00 0.  1.
<mgrwt>
<rscale>  0 0.12600495E+04</rscale>
<asrwt>0</asrwt>
<pdfrwt beam="1">  1        1 0.20847147E+00 0.12600495E+04</pdfrwt>
<pdfrwt beam="2">  1       -2 0.45065259E-01 0.12600495E+04</pdfrwt>
<totfact> 0.33358371E+01</totfact>
</mgrwt>
</event>
<event>
12    4  0.4207946E-008  0.4103044E+04  0.7818608E-02  0.7984076E-01
         -2   -1    0    0    0  501 -0.00000000000E+00  0.00000000000E+00  0.20284127664E+04  0.20284127664E+04  0.00000000000E+00 0.  1.
          1   -1    0    0  501    0  0.00000000000E+00 -0.00000000000E+00 -0.20748944446E+04  0.20748944446E+04  0.00000000000E+00 0. -1.
        -24    2    1    2    0    0 -0.11467006209E+03 -0.67977835204E+03  0.18036052829E+04  0.19325422027E+04  0.80495450074E+02 0.  0.
        254    2    1    2    0    0  0.11467006209E+03  0.67977835204E+03 -0.18500869611E+04  0.21707650084E+04  0.90230323439E+03 0.  0.
         23    2    4    4    0    0 -0.21135707519E+03  0.97967823399E+02 -0.12310743396E+04  0.12564371473E+04  0.93918942930E+02 0.  0.
         23    2    4    4    0    0  0.32602713728E+03  0.58181052864E+03 -0.61901262156E+03  0.91432786110E+03  0.89563533075E+02 0.  0.
          1    1    3    3  502    0  0.25516990602E+01 -0.48512307309E+01  0.43248278129E+02  0.43594256145E+02  0.00000000000E+00 0. -1.
         -2    1    3    3    0  502 -0.11722176115E+03 -0.67492712130E+03  0.17603570048E+04  0.18889479465E+04  0.00000000000E+00 0.  1.
         11    1    5    5    0    0 -0.51650989452E+02  0.54678819955E+02 -0.23593217797E+03  0.24763196616E+03  0.00000000000E+00 0. -1.
        -11    1    5    5    0    0 -0.15970608574E+03  0.43289003444E+02 -0.99514216160E+03  0.10088051811E+04  0.00000000000E+00 0.  1.
          1    1    6    6  503    0  0.11882836898E+03  0.14331035248E+03 -0.20205624214E+03  0.27474490603E+03  0.00000000000E+00 0. -1.
         -1    1    6    6    0  503  0.20719876830E+03  0.43850017616E+03 -0.41695637942E+03  0.63958295507E+03  0.00000000000E+00 0.  1.
<mgrwt>
<rscale>  0 0.41030439E+04</rscale>
<asrwt>0</asrwt>
<pdfrwt beam="1">  1        1 0.31921453E+00 0.41030439E+04</pdfrwt>
<pdfrwt beam="2">  1       -2 0.31206350E+00 0.41030439E+04</pdfrwt>
<totfact> 0.48460207E-02</totfact>
</mgrwt>
</event>
<event>
12    4  0.4207946E-008  0.1773005E+04  0.7818608E-02  0.8720788E-01
         -2   -1    0    0    0  501 -0.00000000000E+00  0.00000000000E+00  0.47689623724E+03  0.47689623724E+03  0.00000000000E+00 0.  1.
          1   -1    0    0  501    0  0.00000000000E+00 -0.00000000000E+00 -0.16479195876E+04  0.16479195876E+04  0.00000000000E+00 0. -1.
        -24    2    1    2    0    0  0.60388339470E+03 -0.22200976830E+03 -0.59149963611E+03  0.87772038079E+03  0.80979971070E+02 0.  0.
        254    2    1    2    0    0 -0.60388339470E+03  0.22200976830E+03 -0.57952371422E+03  0.12470954440E+04  0.89746076212E+03 0.  0.
         23    2    4    4    0    0  0.18487544224E+03  0.22189493627E+03 -0.22764846446E+03  0.37872123661E+03  0.90496739180E+02 0.  0.
         23    2    4    4    0    0 -0.78875883694E+03  0.11483202033E+00 -0.35187524977E+03  0.86837420742E+03  0.90094709460E+02 0.  0.
          1    1    3    3  502    0  0.35490344087E+03 -0.10416590250E+03 -0.38128877120E+03  0.53121381253E+03  0.00000000000E+00 0. -1.
         -2    1    3    3    0  502  0.24897995383E+03 -0.11784386579E+03 -0.21021086492E+03  0.34650656825E+03  0.00000000000E+00 0.  1.
         11    1    5    5    0    0 -0.98490471767E+01  0.18621242079E+02 -0.13352229841E+02  0.24940658142E+02  0.00000000000E+00 0. -1.
        -11    1    5    5    0    0  0.19472448941E+03  0.20327369420E+03 -0.21429623461E+03  0.35378057847E+03  0.00000000000E+00 0.  1.
          1    1    6    6  503    0 -0.47094107446E+02 -0.21671270950E+02 -0.25682935772E+02  0.57854231743E+02  0.00000000000E+00 0. -1.
         -1    1    6    6    0  503 -0.74166472949E+03  0.21786102971E+02 -0.32619231399E+03  0.81051997567E+03  0.00000000000E+00 0.  1.
<mgrwt>
<rscale>  0 0.17730050E+04</rscale>
<asrwt>0</asrwt>
<pdfrwt beam="1">  1        1 0.25352609E+00 0.17730050E+04</pdfrwt>
<pdfrwt beam="2">  1       -2 0.73368651E-01 0.17730050E+04</pdfrwt>
<totfact> 0.71995881E+00</totfact>
</mgrwt>
</event>
<event>
12    4  0.4207946E-008  0.3621248E+04  0.7818608E-02  0.8085642E-01
         -2   -1    0    0    0  501 -0.00000000000E+00  0.00000000000E+00  0.12290167801E+04  0.12290167801E+04  0.00000000000E+00 0.  1.
          1   -1    0    0  501    0  0.00000000000E+00 -0.00000000000E+00 -0.26674652110E+04  0.26674652110E+04  0.00000000000E+00 0. -1.
        -24    2    1    2    0    0  0.53233973677E+03  0.16104876500E+04 -0.70553329582E+03  0.18387916500E+04  0.79507447847E+02 0.  0.
        254    2    1    2    0    0 -0.53233973677E+03 -0.16104876500E+04 -0.73291513505E+03  0.20576903411E+04  0.90546611114E+03 0.  0.
         23    2    4    4    0    0  0.24448778785E+02 -0.32801013583E+03 -0.54636210724E+03  0.64409241379E+03  0.90305555152E+02 0.  0.
         23    2    4    4    0    0 -0.55678851555E+03 -0.12824775142E+04 -0.18655302781E+03  0.14135979273E+04  0.93247211248E+02 0.  0.
          3    1    3    3  502    0  0.35854359492E+03  0.11265297263E+04 -0.52834383075E+03  0.12949015164E+04  0.00000000000E+00 0. -1.
         -4    1    3    3    0  502  0.17379614185E+03  0.48395792377E+03 -0.17718946508E+03  0.54389013360E+03  0.00000000000E+00 0.  1.
         11    1    5    5    0    0  0.70541288004E+01 -0.27400386840E+03 -0.38161545077E+03  0.46984915973E+03  0.00000000000E+00 0.  1.
        -11    1    5    5    0    0  0.17394649985E+02 -0.54006267425E+02 -0.16474665647E+03  0.17424325406E+03  0.00000000000E+00 0. -1.
          3    1    6    6  503    0 -0.11961009717E+02 -0.96796863337E+01 -0.88113321977E+01  0.17731374906E+02  0.00000000000E+00 0. -1.
         -3    1    6    6    0  503 -0.54482750584E+03 -0.12727978279E+04 -0.17774169562E+03  0.13958665524E+04  0.00000000000E+00 0.  1.
<mgrwt>
<rscale>  0 0.36212481E+04</rscale>
<asrwt>0</asrwt>
<pdfrwt beam="1">  1        1 0.41037926E+00 0.36212481E+04</pdfrwt>
<pdfrwt beam="2">  1       -2 0.18907951E+00 0.36212481E+04</pdfrwt>
<totfact> 0.11560491E-01</totfact>
</mgrwt>
</event>
<event>
12    4  0.4207946E-008  0.1967426E+04  0.7818608E-02  0.8622003E-01
          1   -1    0    0  501    0  0.00000000000E+00  0.00000000000E+00  0.16697929131E+04  0.16697929131E+04  0.00000000000E+00 0. -1.
         -2   -1    0    0    0  501 -0.00000000000E+00 -0.00000000000E+00 -0.57952751720E+03  0.57952751720E+03  0.00000000000E+00 0.  1.
        -24    2    1    2    0    0  0.57007724044E+03 -0.52214662749E+03  0.50258574780E+03  0.92562617598E+03  0.81032234914E+02 0.  0.
        254    2    1    2    0    0 -0.57007724044E+03  0.52214662749E+03  0.58767964811E+03  0.13236942543E+04  0.89954096597E+03 0.  0.
         23    2    4    4    0    0 -0.23233203811E+03  0.36596940285E+03 -0.16979065513E+03  0.47492878440E+03  0.93897305223E+02 0.  0.
         23    2    4    4    0    0 -0.33774520233E+03  0.15617722465E+03  0.75747030323E+03  0.84876546992E+03  0.90434592184E+02 0.  0.
          3    1    3    3  502    0  0.25616232180E+01  0.35137658374E+00 -0.24776432475E+01  0.35810745701E+01  0.00000000000E+00 0. -1.
         -4    1    3    3    0  502  0.56751561722E+03 -0.52249800408E+03  0.50506339105E+03  0.92204510141E+03  0.00000000000E+00 0.  1.
         11    1    5    5    0    0 -0.21123734826E+03  0.35631575596E+03 -0.14015591940E+03  0.43729374222E+03  0.00000000000E+00 0.  1.
        -11    1    5    5    0    0 -0.21094689852E+02  0.96536468913E+01 -0.29634735724E+02  0.37635042177E+02  0.00000000000E+00 0. -1.
          1    1    6    6  503    0 -0.91056153500E+02  0.11371766268E+01  0.19957566241E+03  0.21936946298E+03  0.00000000000E+00 0. -1.
         -1    1    6    6    0  503 -0.24668904883E+03  0.15504004802E+03  0.55789464082E+03  0.62939600694E+03  0.00000000000E+00 0.  1.
<mgrwt>
<rscale>  0 0.19674257E+04</rscale>
<asrwt>0</asrwt>
<pdfrwt beam="1">  1        1 0.25689122E+00 0.19674257E+04</pdfrwt>
<pdfrwt beam="2">  1       -2 0.89158080E-01 0.19674257E+04</pdfrwt>
<totfact> 0.44080093E+00</totfact>
</mgrwt>
</event>
<event>
12    4  0.4207946E-008  0.2571466E+04  0.7818608E-02  0.8377959E-01
          1   -1    0    0  501    0  0.00000000000E+00  0.00000000000E+00  0.21728778863E+04  0.21728778863E+04  0.00000000000E+00 0. -1.
         -2   -1    0    0    0  501 -0.00000000000E+00 -0.00000000000E+00 -0.76079255683E+03  0.76079255683E+03  0.00000000000E+00 0.  1.
        -24    2    1    2    0    0 -0.53753352554E+03 -0.79822124408E+03  0.11537570470E+04  0.15044791836E+04  0.78758141529E+02 0.  0.
        254    2    1    2    0    0  0.53753352554E+03  0.79822124408E+03  0.25832828250E+03  0.14291912595E+04  0.10245753800E+04 0.  0.
         23    2    4    4    0    0  0.18350473416E+03  0.70828357381E+03 -0.26596466278E+03  0.78376267926E+03  0.90593196083E+02 0.  0.
         23    2    4    4    0    0  0.35402879138E+03  0.89937670270E+02  0.52429294528E+03  0.64542858027E+03  0.90938386318E+02 0.  0.
          1    1    3    3  502    0 -0.71531259018E+01 -0.93012968140E+01  0.32051564908E+02  0.34131864081E+02  0.00000000000E+00 0. -1.
         -2    1    3    3    0  502 -0.53038039964E+03 -0.78891994726E+03  0.11217054821E+04  0.14703473196E+04  0.00000000000E+00 0.  1.
         11    1    5    5    0    0  0.13870736166E+03  0.63581991028E+03 -0.21995804289E+03  0.68694121373E+03  0.00000000000E+00 0.  1.
        -11    1    5    5    0    0  0.44797372500E+02  0.72463663521E+02 -0.46006619888E+02  0.96821465530E+02  0.00000000000E+00 0. -1.
          1    1    6    6  503    0  0.57268873651E+02  0.20360062572E+02  0.38562200684E+02  0.71981243104E+02  0.00000000000E+00 0. -1.
         -1    1    6    6    0  503  0.29675991773E+03  0.69577607698E+02  0.48573074459E+03  0.57344733717E+03  0.00000000000E+00 0.  1.
<mgrwt>
<rscale>  0 0.25714660E+04</rscale>
<asrwt>0</asrwt>
<pdfrwt beam="1">  1        1 0.33428890E+00 0.25714660E+04</pdfrwt>
<pdfrwt beam="2">  1       -2 0.11704501E+00 0.25714660E+04</pdfrwt>
<totfact> 0.99626021E-01</totfact>
</mgrwt>
</event>
<event>
12    4  0.4207946E-008  0.1193246E+04  0.7818608E-02  0.9118789E-01
         -2   -1    0    0    0  501 -0.00000000000E+00  0.00000000000E+00  0.16577732289E+04  0.16577732289E+04  0.00000000000E+00 0.  1.
          1   -1    0    0  501    0  0.00000000000E+00 -0.00000000000E+00 -0.21472113977E+03  0.21472113977E+03  0.00000000000E+00 0. -1.
        -24    2    1    2    0    0  0.58549585325E+01 -0.70582271416E+02  0.70791834126E+03  0.71632927025E+03  0.83445239161E+02 0.  0.
        254    2    1    2    0    0 -0.58549585325E+01  0.70582271416E+02  0.73513374787E+03  0.11561650984E+04  0.88953918969E+03 0.  0.
         23    2    4    4    0    0  0.19546776470E+03  0.39981734698E+03  0.56365571468E+03  0.72378738535E+03  0.89993647074E+02 0.  0.
         23    2    4    4    0    0 -0.20132272324E+03 -0.32923507556E+03  0.17147803319E+03  0.43237771308E+03  0.92839630725E+02 0.  0.
          3    1    3    3  502    0 -0.13679784675E+02 -0.34241280528E+02  0.93215597680E+02  0.10024345092E+03  0.00000000000E+00 0. -1.
         -4    1    3    3    0  502  0.19534743208E+02 -0.36340990888E+02  0.61470274358E+03  0.61608581933E+03  0.00000000000E+00 0.  1.
         11    1    5    5    0    0  0.14960204315E+03  0.24599437641E+03  0.41440946250E+03  0.50460797373E+03  0.00000000000E+00 0.  1.
        -11    1    5    5    0    0  0.45865721557E+02  0.15382297057E+03  0.14924625218E+03  0.21917941162E+03  0.00000000000E+00 0. -1.
          2    1    6    6  503    0 -0.21964223931E+02 -0.26999384357E+02  0.49197407685E+02  0.60264241565E+02  0.00000000000E+00 0. -1.
         -2    1    6    6    0  503 -0.17935849930E+03 -0.30223569120E+03  0.12228062550E+03  0.37211347151E+03  0.00000000000E+00 0.  1.
<mgrwt>
<rscale>  0 0.11932459E+04</rscale>
<asrwt>0</asrwt>
<pdfrwt beam="1">  1        1 0.33034023E-01 0.11932459E+04</pdfrwt>
<pdfrwt beam="2">  1       -2 0.25504203E+00 0.11932459E+04</pdfrwt>
<totfact> 0.70278037E+00</totfact>
</mgrwt>
</event>
<event>
12    4  0.4207946E-008  0.1940954E+04  0.7818608E-02  0.8634735E-01
          3   -1    0    0  501    0  0.00000000000E+00  0.00000000000E+00  0.13113456149E+04  0.13113456149E+04  0.00000000000E+00 0. -1.
         -4   -1    0    0    0  501 -0.00000000000E+00 -0.00000000000E+00 -0.71821277282E+03  0.71821277282E+03  0.00000000000E+00 0.  1.
        -24    2    1    2    0    0  0.13672570468E+03  0.41172612746E+03 -0.42731936931E+03  0.61445616271E+03  0.82110962445E+02 0.  0.
        254    2    1    2    0    0 -0.13672570468E+03 -0.41172612746E+03  0.10204522114E+04  0.14151022250E+04  0.87919239597E+03 0.  0.
         23    2    4    4    0    0  0.50408152382E+02  0.16354161011E+03 -0.33500479142E+02  0.19649048885E+03  0.90550483397E+02 0.  0.
         23    2    4    4    0    0 -0.18713385707E+03 -0.57526773757E+03  0.10539526906E+04  0.12186117362E+04  0.90808806061E+02 0.  0.
          1    1    3    3  502    0 -0.67084938345E+01  0.68694829474E+02 -0.54756415727E+02  0.88103623928E+02  0.00000000000E+00 0. -1.
         -2    1    3    3    0  502  0.14343419852E+03  0.34303129799E+03 -0.37256295358E+03  0.52635253879E+03  0.00000000000E+00 0.  1.
         11    1    5    5    0    0  0.75594550764E+02  0.13932672602E+03 -0.24343207433E+02  0.16037164474E+03  0.00000000000E+00 0. -1.
        -11    1    5    5    0    0 -0.25186398381E+02  0.24214884086E+02 -0.91572717100E+01  0.36118844111E+02  0.00000000000E+00 0.  1.
          1    1    6    6  503    0 -0.17406815605E+03 -0.41190025935E+03  0.79578928847E+03  0.91282097820E+03  0.00000000000E+00 0. -1.
         -1    1    6    6    0  503 -0.13065701013E+02 -0.16336747822E+03  0.25816340210E+03  0.30579075798E+03  0.00000000000E+00 0.  1.
<mgrwt>
<rscale>  0 0.19409535E+04</rscale>
<asrwt>0</asrwt>
<pdfrwt beam="1">  1        3 0.20174548E+00 0.19409535E+04</pdfrwt>
<pdfrwt beam="2">  1       -4 0.11049427E+00 0.19409535E+04</pdfrwt>
<totfact> 0.19915397E-01</totfact>
</mgrwt>
</event>
<event>
12    4  0.4207946E-008  0.1990489E+04  0.7818608E-02  0.8611080E-01
         -2   -1    0    0    0  501 -0.00000000000E+00  0.00000000000E+00  0.37627759410E+04  0.37627759410E+04  0.00000000000E+00 0.  1.
          1   -1    0    0  501    0  0.00000000000E+00 -0.00000000000E+00 -0.26323972294E+03  0.26323972294E+03  0.00000000000E+00 0. -1.
        -24    2    1    2    0    0 -0.29355614775E+03 -0.41019274824E+02  0.28552597982E+04  0.28716376585E+04  0.77048902061E+02 0.  0.
        254    2    1    2    0    0  0.29355614775E+03  0.41019274824E+02  0.64427641980E+03  0.11543780055E+04  0.91084503709E+03 0.  0.
         23    2    4    4    0    0  0.52377566000E+03 -0.18129870903E+03  0.19534553152E+03  0.59486681474E+03  0.92176389010E+02 0.  0.
         23    2    4    4    0    0 -0.23021951225E+03  0.22231798385E+03  0.44893088828E+03  0.55951119072E+03  0.95328486396E+02 0.  0.
          3    1    3    3  502    0 -0.98290466618E+02  0.22078277773E+02  0.88025791766E+03  0.88600364998E+03  0.00000000000E+00 0. -1.
         -4    1    3    3    0  502 -0.19526568113E+03 -0.63097552597E+02  0.19750018806E+04  0.19856340085E+04  0.00000000000E+00 0.  1.
         11    1    5    5    0    0  0.28057424023E+03 -0.14441779277E+03  0.99564898386E+02  0.33089510746E+03  0.00000000000E+00 0.  1.
        -11    1    5    5    0    0  0.24320141977E+03 -0.36880916260E+02  0.95780633134E+02  0.26397170728E+03  0.00000000000E+00 0. -1.
          4    1    6    6  503    0 -0.18541565007E+03  0.11638839437E+03  0.29552471681E+03  0.36777721501E+03  0.00000000000E+00 0. -1.
         -4    1    6    6    0  503 -0.44803862181E+02  0.10592958949E+03  0.15340617147E+03  0.19173397571E+03  0.00000000000E+00 0.  1.
<mgrwt>
<rscale>  0 0.19904895E+04</rscale>
<asrwt>0</asrwt>
<pdfrwt beam="1">  1        1 0.40498422E-01 0.19904895E+04</pdfrwt>
<pdfrwt beam="2">  1       -2 0.57888857E+00 0.19904895E+04</pdfrwt>
<totfact> 0.51481134E-02</totfact>
</mgrwt>
</event>
<event>
12    4  0.4207946E-008  0.2578890E+04  0.7818608E-02  0.8375407E-01
          1   -1    0    0  501    0  0.00000000000E+00  0.00000000000E+00  0.86036407538E+03  0.86036407538E+03  0.00000000000E+00 0. -1.
         -2   -1    0    0    0  501 -0.00000000000E+00 -0.00000000000E+00 -0.19325177461E+04  0.19325177461E+04  0.00000000000E+00 0.  1.
        -24    2    1    2    0    0 -0.10929841122E+04 -0.29533387740E+03 -0.62127317024E+03  0.12939063352E+04  0.79855391565E+02 0.  0.
        254    2    1    2    0    0  0.10929841122E+04  0.29533387740E+03 -0.45088050047E+03  0.14989754863E+04  0.87281035407E+03 0.  0.
         23    2    4    4    0    0  0.91419237999E+03  0.98161082383E+02 -0.67094617039E+03  0.11418203949E+04  0.90563485515E+02 0.  0.
         23    2    4    4    0    0  0.17879173218E+03  0.19717279501E+03  0.22006566993E+03  0.35715509138E+03  0.91034420039E+02 0.  0.
          1    1    3    3  502    0 -0.86376656906E+03 -0.26184837864E+03 -0.47504014952E+03  0.10199609811E+04  0.00000000000E+00 0. -1.
         -2    1    3    3    0  502 -0.22921754311E+03 -0.33485498755E+02 -0.14623302071E+03  0.27394535412E+03  0.00000000000E+00 0.  1.
         11    1    5    5    0    0  0.81972482125E+03  0.62779147880E+02 -0.58140696613E+03  0.10069379644E+04  0.00000000000E+00 0. -1.
        -11    1    5    5    0    0  0.94467558736E+02  0.35381934502E+02 -0.89539204261E+02  0.13488243044E+03  0.00000000000E+00 0.  1.
          4    1    6    6  503    0  0.94917095221E+02  0.43668013626E+02  0.62619927054E+02  0.12180888984E+03  0.00000000000E+00 0.  1.
         -4    1    6    6    0  503  0.83874636963E+02  0.15350478139E+03  0.15744574287E+03  0.23534620155E+03  0.00000000000E+00 0. -1.
<mgrwt>
<rscale>  0 0.25788903E+04</rscale>
<asrwt>0</asrwt>
<pdfrwt beam="1">  1        1 0.13236370E+00 0.25788903E+04</pdfrwt>
<pdfrwt beam="2">  1       -2 0.29731042E+00 0.25788903E+04</pdfrwt>
<totfact> 0.50144498E-01</totfact>
</mgrwt>
</event>
<event>
12    4  0.4207946E-008  0.1723869E+04  0.7818608E-02  0.8747867E-01
          1   -1    0    0  501    0  0.00000000000E+00  0.00000000000E+00  0.20635977746E+04  0.20635977746E+04  0.00000000000E+00 0. -1.
         -2   -1    0    0    0  501 -0.00000000000E+00 -0.00000000000E+00 -0.36001747327E+03  0.36001747327E+03  0.00000000000E+00 0.  1.
        -24    2    1    2    0    0  0.27452184188E+02 -0.45066613574E+03  0.14458005872E+02  0.45875166895E+03  0.79940424728E+02 0.  0.
        254    2    1    2    0    0 -0.27452184188E+02  0.45066613574E+03  0.16891222954E+04  0.19648635789E+04  0.89649381842E+03 0.  0.
         23    2    4    4    0    0 -0.30890765494E+03  0.96836128024E+02  0.13528732707E+04  0.13940959566E+04  0.91849195485E+02 0.  0.
         23    2    4    4    0    0  0.28145547076E+03  0.35383000772E+03  0.33624902475E+03  0.57076762231E+03  0.91101128678E+02 0.  0.
          1    1    3    3  502    0  0.28905921880E+02 -0.89069054656E+02 -0.19194461614E+02  0.95589100705E+02  0.00000000000E+00 0. -1.
         -2    1    3    3    0  502 -0.14537376915E+01 -0.36159708109E+03  0.33652467486E+02  0.36316256824E+03  0.00000000000E+00 0.  1.
         11    1    5    5    0    0 -0.25167238682E+03  0.63508504609E+02  0.90986703201E+03  0.94616612515E+03  0.00000000000E+00 0. -1.
        -11    1    5    5    0    0 -0.57235268123E+02  0.33327623415E+02  0.44300623868E+03  0.44792983146E+03  0.00000000000E+00 0.  1.
          3    1    6    6  503    0  0.22860801084E+03  0.22092518905E+03  0.24081785388E+03  0.39882678010E+03  0.00000000000E+00 0. -1.
         -3    1    6    6    0  503  0.52847459918E+02  0.13290481867E+03  0.95431170872E+02  0.17194084221E+03  0.00000000000E+00 0.  1.
<mgrwt>
<rscale>  0 0.17238692E+04</rscale>
<asrwt>0</asrwt>
<pdfrwt beam="1">  1        1 0.31747658E+00 0.17238692E+04</pdfrwt>
<pdfrwt beam="2">  1       -2 0.55387305E-01 0.17238692E+04</pdfrwt>
<totfact> 0.68950998E+00</totfact>
</mgrwt>
</event>
<event>
12    4  0.4207946E-008  0.2230296E+04  0.7818608E-02  0.8505923E-01
         -2   -1    0    0    0  501 -0.00000000000E+00  0.00000000000E+00  0.13252649303E+04  0.13252649303E+04  0.00000000000E+00 0.  1.
          1   -1    0    0  501    0  0.00000000000E+00 -0.00000000000E+00 -0.93834491966E+03  0.93834491966E+03  0.00000000000E+00 0. -1.
        -24    2    1    2    0    0  0.38969086708E+03  0.70862837899E+03  0.63182111931E+03  0.10293619588E+04  0.79843371816E+02 0.  0.
        254    2    1    2    0    0 -0.38969086708E+03 -0.70862837899E+03 -0.24490110864E+03  0.12342478912E+04  0.89965446285E+03 0.  0.
         23    2    4    4    0    0 -0.38849710701E+02  0.17186115575E+03 -0.19774380931E+03  0.28010492405E+03  0.91162478470E+02 0.  0.
         23    2    4    4    0    0 -0.35084115638E+03 -0.88048953473E+03 -0.47157299329E+02  0.95414296715E+03  0.99063883945E+02 0.  0.
          3    1    3    3  502    0  0.45378169772E+02  0.10406153188E+03  0.57810459085E+02  0.12739713454E+03  0.00000000000E+00 0. -1.
         -4    1    3    3    0  502  0.34431269731E+03  0.60456684710E+03  0.57401066022E+03  0.90196482425E+03  0.00000000000E+00 0.  1.
         11    1    5    5    0    0 -0.64682413267E+02  0.86051871531E+02 -0.93015084241E+02  0.14226926961E+03  0.00000000000E+00 0.  1.
        -11    1    5    5    0    0  0.25832702566E+02  0.85809284214E+02 -0.10472872507E+03  0.13783565444E+03  0.00000000000E+00 0. -1.
          4    1    6    6  503    0 -0.55041152183E+02 -0.24394906089E+03 -0.31483369998E+02  0.25205530213E+03  0.00000000000E+00 0.  1.
         -4    1    6    6    0  503 -0.29580000420E+03 -0.63654047384E+03 -0.15673929331E+02  0.70208766502E+03  0.00000000000E+00 0. -1.
<mgrwt>
<rscale>  0 0.22302965E+04</rscale>
<asrwt>0</asrwt>
<pdfrwt beam="1">  1        1 0.14436076E+00 0.22302965E+04</pdfrwt>
<pdfrwt beam="2">  1       -2 0.20388691E+00 0.22302965E+04</pdfrwt>
<totfact> 0.16931453E+00</totfact>
</mgrwt>
</event>
<event>
12    4  0.4207946E-008  0.1113313E+04  0.7818608E-02  0.9192312E-01
         -2   -1    0    0    0  501 -0.00000000000E+00  0.00000000000E+00  0.56160112621E+03  0.56160112621E+03  0.00000000000E+00 0.  1.
          1   -1    0    0  501    0  0.00000000000E+00 -0.00000000000E+00 -0.55175581973E+03  0.55175581973E+03  0.00000000000E+00 0. -1.
        -24    2    1    2    0    0  0.89189424449E+02 -0.46881948649E+02 -0.14430628218E+03  0.19313067932E+03  0.79514059623E+02 0.  0.
        254    2    1    2    0    0 -0.89189424449E+02  0.46881948649E+02  0.15415158866E+03  0.92022626661E+03  0.90161022562E+03 0.  0.
         23    2    4    4    0    0  0.17616057760E+03  0.39034248211E+03 -0.33751848801E+02  0.43901480871E+03  0.90526308521E+02 0.  0.
         23    2    4    4    0    0 -0.26535000205E+03 -0.34346053346E+03  0.18790343746E+03  0.48121145790E+03  0.88775017770E+02 0.  0.
          3    1    3    3  502    0  0.25340767366E+02 -0.56620010550E+02 -0.54909111526E+02  0.82843168783E+02  0.00000000000E+00 0. -1.
         -4    1    3    3    0  502  0.63848657083E+02  0.97380619017E+01 -0.89397170651E+02  0.11028751054E+03  0.00000000000E+00 0.  1.
         11    1    5    5    0    0  0.77329067343E+02  0.77401369163E+02 -0.13041754545E+02  0.11018549798E+03  0.00000000000E+00 0.  1.
        -11    1    5    5    0    0  0.98831510253E+02  0.31294111294E+03 -0.20710094257E+02  0.32882931073E+03  0.00000000000E+00 0. -1.
          3    1    6    6  503    0 -0.25804075094E+03 -0.33664072754E+03  0.16304451406E+03  0.45441778370E+03  0.00000000000E+00 0. -1.
         -3    1    6    6    0  503 -0.73092511063E+01 -0.68198059209E+01  0.24858923399E+02  0.26793674199E+02  0.00000000000E+00 0.  1.
<mgrwt>
<rscale>  0 0.11133134E+04</rscale>
<asrwt>0</asrwt>
<pdfrwt beam="1">  1        1 0.84885511E-01 0.11133134E+04</pdfrwt>
<pdfrwt beam="2">  1       -2 0.86400173E-01 0.11133134E+04</pdfrwt>
<totfact> 0.39059771E+01</totfact>
</mgrwt>
</event>
<event>
12    4  0.4207946E-008  0.2041746E+04  0.7818608E-02  0.8587348E-01
         -2   -1    0    0    0  501 -0.00000000000E+00  0.00000000000E+00  0.20530637720E+04  0.20530637720E+04  0.00000000000E+00 0.  1.
          1   -1    0    0  501    0  0.00000000000E+00 -0.00000000000E+00 -0.50762270966E+03  0.50762270966E+03  0.00000000000E+00 0. -1.
        -24    2    1    2    0    0  0.66929114449E+03  0.30376050947E+03  0.11362626064E+04  0.13556375821E+04  0.80246245162E+02 0.  0.
        254    2    1    2    0    0 -0.66929114449E+03 -0.30376050947E+03  0.40917845594E+03  0.12050488996E+04  0.86284109691E+03 0.  0.
         23    2    4    4    0    0 -0.49138166067E+03  0.15560041597E+03  0.46639066871E+03  0.70079928964E+03  0.89061566425E+02 0.  0.
         23    2    4    4    0    0 -0.17790948382E+03 -0.45936092544E+03 -0.57212212769E+02  0.50424961000E+03  0.91269861638E+02 0.  0.
          3    1    3    3  502    0  0.60002505849E+02  0.52222955646E+02  0.14078093665E+03  0.16169975241E+03  0.00000000000E+00 0. -1.
         -4    1    3    3    0  502  0.60928863864E+03  0.25153755383E+03  0.99548166979E+03  0.11939378296E+04  0.00000000000E+00 0.  1.
         11    1    5    5    0    0 -0.18838400911E+03  0.82157870012E+02  0.13550272544E+03  0.24616953323E+03  0.00000000000E+00 0.  1.
        -11    1    5    5    0    0 -0.30299765156E+03  0.73442545954E+02  0.33088794327E+03  0.45462975641E+03  0.00000000000E+00 0. -1.
          4    1    6    6  503    0 -0.82557336551E+02 -0.13151301592E+03 -0.48607299039E+02  0.16270850222E+03  0.00000000000E+00 0. -1.
         -4    1    6    6    0  503 -0.95352147273E+02 -0.32784790952E+03 -0.86049137307E+01  0.34154110778E+03  0.00000000000E+00 0.  1.
<mgrwt>
<rscale>  0 0.20417461E+04</rscale>
<asrwt>0</asrwt>
<pdfrwt beam="1">  1        1 0.78095802E-01 0.20417461E+04</pdfrwt>
<pdfrwt beam="2">  1       -2 0.31585596E+00 0.20417461E+04</pdfrwt>
<totfact> 0.89316730E-01</totfact>
</mgrwt>
</event>
<event>
12    4  0.4207946E-008  0.1585158E+04  0.7818608E-02  0.8829718E-01
         -2   -1    0    0    0  501 -0.00000000000E+00  0.00000000000E+00  0.54146355885E+03  0.54146355885E+03  0.00000000000E+00 0.  1.
          1   -1    0    0  501    0  0.00000000000E+00 -0.00000000000E+00 -0.11601552215E+04  0.11601552215E+04  0.00000000000E+00 0. -1.
        -24    2    1    2    0    0 -0.33665879990E+03  0.98916198962E+02 -0.63758225752E+03  0.73210545986E+03  0.79647393430E+02 0.  0.
        254    2    1    2    0    0  0.33665879990E+03 -0.98916198962E+02  0.18890594840E+02  0.96951332053E+03  0.90359042832E+03 0.  0.
         23    2    4    4    0    0  0.29522082814E+02  0.43421182454E+02  0.42257863489E+03  0.43547882662E+03  0.91171011338E+02 0.  0.
         23    2    4    4    0    0  0.30713671708E+03 -0.14233738142E+03 -0.40368804005E+03  0.53403449392E+03  0.87383716348E+02 0.  0.
          1    1    3    3  502    0 -0.29418764201E+03  0.56196565345E+02 -0.53610697349E+03  0.61409698720E+03  0.00000000000E+00 0. -1.
         -2    1    3    3    0  502 -0.42471157890E+02  0.42719633617E+02 -0.10147528403E+03  0.11800847265E+03  0.00000000000E+00 0.  1.
         11    1    5    5    0    0 -0.11056866777E+02 -0.48920478223E+00  0.27367527344E+01  0.11401028014E+02  0.00000000000E+00 0. -1.
        -11    1    5    5    0    0  0.40578949591E+02  0.43910387236E+02  0.41984188216E+03  0.42407779860E+03  0.00000000000E+00 0.  1.
          3    1    6    6  503    0  0.12798892899E+03 -0.22118759866E+02 -0.19178331750E+03  0.23162738688E+03  0.00000000000E+00 0. -1.
         -3    1    6    6    0  503  0.17914778810E+03 -0.12021862155E+03 -0.21190472256E+03  0.30240710704E+03  0.00000000000E+00 0.  1.
<mgrwt>
<rscale>  0 0.15851584E+04</rscale>
<asrwt>0</asrwt>
<pdfrwt beam="1">  1        1 0.17848542E+00 0.15851584E+04</pdfrwt>
<pdfrwt beam="2">  1       -2 0.83302087E-01 0.15851584E+04</pdfrwt>
<totfact> 0.12151125E+01</totfact>
</mgrwt>
</event>
<event>
12    4  0.4207946E-008  0.1406330E+04  0.7818608E-02  0.8949249E-01
         -2   -1    0    0    0  501 -0.00000000000E+00  0.00000000000E+00  0.30278831736E+03  0.30278831736E+03  0.00000000000E+00 0.  1.
          1   -1    0    0  501    0  0.00000000000E+00 -0.00000000000E+00 -0.16329602464E+04  0.16329602464E+04  0.00000000000E+00 0. -1.
        -24    2    1    2    0    0 -0.18644410764E+03  0.35004782887E+03 -0.58446947403E+03  0.71082466408E+03  0.79826369182E+02 0.  0.
        254    2    1    2    0    0  0.18644410764E+03 -0.35004782887E+03 -0.74570245499E+03  0.12249238997E+04  0.88717051395E+03 0.  0.
         23    2    4    4    0    0  0.12911089243E+03  0.13169856254E+03  0.11270955625E+03  0.23507521145E+03  0.92427144550E+02 0.  0.
         23    2    4    4    0    0  0.57333215213E+02 -0.48174639141E+03 -0.85841201123E+03  0.98984868821E+03  0.86962988208E+02 0.  0.
          3    1    3    3  502    0 -0.15200191226E+03  0.33117640565E+03 -0.51253612625E+03  0.62886856632E+03  0.00000000000E+00 0. -1.
         -4    1    3    3    0  502 -0.34442195381E+02  0.18871423216E+02 -0.71933347784E+02  0.81956097761E+02  0.00000000000E+00 0.  1.
         11    1    5    5    0    0  0.55143826328E+01  0.57316915884E+02  0.11132570521E+02  0.58647859200E+02  0.00000000000E+00 0.  1.
        -11    1    5    5    0    0  0.12359650979E+03  0.74381646660E+02  0.10157698572E+03  0.17642735225E+03  0.00000000000E+00 0. -1.
          1    1    6    6  503    0  0.48434049094E+02 -0.25028815401E+03 -0.37033586352E+03  0.44959834181E+03  0.00000000000E+00 0. -1.
         -1    1    6    6    0  503  0.88991661197E+01 -0.23145823740E+03 -0.48807614772E+03  0.54025034640E+03  0.00000000000E+00 0.  1.
<mgrwt>
<rscale>  0 0.14063304E+04</rscale>
<asrwt>0</asrwt>
<pdfrwt beam="1">  1        1 0.25122465E+00 0.14063304E+04</pdfrwt>
<pdfrwt beam="2">  1       -2 0.46582819E-01 0.14063304E+04</pdfrwt>
<totfact> 0.19794184E+01</totfact>
</mgrwt>
</event>
<event>
12    4  0.4207946E-008  0.1667367E+04  0.7818608E-02  0.8780198E-01
         -2   -1    0    0    0  501 -0.00000000000E+00  0.00000000000E+00  0.34828021936E+03  0.34828021936E+03  0.00000000000E+00 0.  1.
          1   -1    0    0  501    0  0.00000000000E+00 -0.00000000000E+00 -0.19955998605E+04  0.19955998605E+04  0.00000000000E+00 0. -1.
        -24    2    1    2    0    0  0.33925517966E+03  0.18393682931E+01  0.88370470722E+02  0.36043204619E+03  0.83692649736E+02 0.  0.
        254    2    1    2    0    0 -0.33925517966E+03 -0.18393682931E+01 -0.17356901118E+04  0.19834480336E+04  0.89796908501E+03 0.  0.
         23    2    4    4    0    0 -0.41149101072E+03  0.35652751285E+03 -0.12667934268E+04  0.13819059207E+04  0.91987326430E+02 0.  0.
         23    2    4    4    0    0  0.72235831056E+02 -0.35836688114E+03 -0.46889668501E+03  0.60154211290E+03  0.91345364365E+02 0.  0.
          3    1    3    3  502    0  0.54826629724E+02  0.31089386854E+02  0.88082709605E+01  0.63640356215E+02  0.00000000000E+00 0. -1.
         -4    1    3    3    0  502  0.28442854994E+03 -0.29250018561E+02  0.79562199761E+02  0.29679168997E+03  0.00000000000E+00 0.  1.
         11    1    5    5    0    0 -0.17640359850E+03  0.18625894580E+03 -0.69101412736E+03  0.73709643105E+03  0.00000000000E+00 0. -1.
        -11    1    5    5    0    0 -0.23508741222E+03  0.17026856705E+03 -0.57577929944E+03  0.64480948967E+03  0.00000000000E+00 0.  1.
          1    1    6    6  503    0 -0.19381617805E+02 -0.40088684859E+02 -0.71392404168E+02  0.84140508290E+02  0.00000000000E+00 0. -1.
         -1    1    6    6    0  503  0.91617448861E+02 -0.31827819628E+03 -0.39750428085E+03  0.51740160461E+03  0.00000000000E+00 0.  1.
<mgrwt>
<rscale>  0 0.16673667E+04</rscale>
<asrwt>0</asrwt>
<pdfrwt beam="1">  1        1 0.30701536E+00 0.16673667E+04</pdfrwt>
<pdfrwt beam="2">  1       -2 0.53581573E-01 0.16673667E+04</pdfrwt>
<totfact> 0.82535059E+00</totfact>
</mgrwt>
</event>
<event>
12    4  0.4207946E-008  0.3536667E+04  0.7818608E-02  0.8105155E-01
         -2   -1    0    0    0  501 -0.00000000000E+00  0.00000000000E+00  0.15389669874E+04  0.15389669874E+04  0.00000000000E+00 0.  1.
          1   -1    0    0  501    0  0.00000000000E+00 -0.00000000000E+00 -0.20318851562E+04  0.20318851562E+04  0.00000000000E+00 0. -1.
        -24    2    1    2    0    0 -0.14712393878E+03 -0.10086935729E+04  0.10818425848E+04  0.14886152361E+04  0.80521831550E+02 0.  0.
        254    2    1    2    0    0  0.14712393878E+03  0.10086935729E+04 -0.15747607536E+04  0.20822369075E+04  0.90373166942E+03 0.  0.
         23    2    4    4    0    0 -0.73527624521E+02  0.10697311604E+04 -0.14498226523E+04  0.18055328888E+04  0.90731595109E+02 0.  0.
         23    2    4    4    0    0  0.22065156330E+03 -0.61037587510E+02 -0.12493810135E+03  0.27670401868E+03  0.92427730189E+02 0.  0.
          1    1    3    3  502    0 -0.73629265789E+02 -0.74188251420E+03  0.77374246696E+03  0.10744711903E+04  0.00000000000E+00 0. -1.
         -2    1    3    3    0  502 -0.73494672989E+02 -0.26681105871E+03  0.30810011784E+03  0.41414404573E+03  0.00000000000E+00 0.  1.
         11    1    5    5    0    0 -0.64812594023E+02  0.86694274008E+03 -0.11131414897E+04  0.14124002135E+04  0.00000000000E+00 0. -1.
        -11    1    5    5    0    0 -0.87150304983E+01  0.20278842033E+03 -0.33668116254E+03  0.39313267530E+03  0.00000000000E+00 0.  1.
          1    1    6    6  503    0  0.15708736888E+03 -0.18012788777E+01 -0.10031969528E+03  0.18639669345E+03  0.00000000000E+00 0. -1.
         -1    1    6    6    0  503  0.63564194421E+02 -0.59236308632E+02 -0.24618406065E+02  0.90307325228E+02  0.00000000000E+00 0.  1.
<mgrwt>
<rscale>  0 0.35366675E+04</rscale>
<asrwt>0</asrwt>
<pdfrwt beam="1">  1        1 0.31259772E+00 0.35366675E+04</pdfrwt>
<pdfrwt beam="2">  1       -2 0.23676415E+00 0.35366675E+04</pdfrwt>
<totfact> 0.15730021E-01</totfact>
</mgrwt>
</event>
<event>
12    4  0.4207946E-008  0.3177689E+04  0.7818608E-02  0.8194734E-01
         -2   -1    0    0    0  501 -0.00000000000E+00  0.00000000000E+00  0.20293167322E+04  0.20293167322E+04  0.00000000000E+00 0.  1.
          1   -1    0    0  501    0  0.00000000000E+00 -0.00000000000E+00 -0.12439790667E+04  0.12439790667E+04  0.00000000000E+00 0. -1.
        -24    2    1    2    0    0 -0.95057883832E+03 -0.20023224714E+03 -0.77568322241E+03  0.12459180003E+04  0.83271371509E+02 0.  0.
        254    2    1    2    0    0  0.95057883832E+03  0.20023224714E+03  0.15610208879E+04  0.20273777987E+04  0.85427246554E+03 0.  0.
         23    2    4    4    0    0  0.28344382120E+03 -0.78416980059E+01 -0.17475385424E+02  0.29873792243E+03  0.92396240160E+02 0.  0.
         23    2    4    4    0    0  0.66713501712E+03  0.20807394514E+03  0.15784962733E+04  0.17286398762E+04  0.90451307800E+02 0.  0.
          3    1    3    3  502    0 -0.70272022163E+03 -0.18292130182E+03 -0.59335111332E+03  0.93773208126E+03  0.00000000000E+00 0. -1.
         -4    1    3    3    0  502 -0.24785861669E+03 -0.17310945318E+02 -0.18233210909E+03  0.30818591905E+03  0.00000000000E+00 0.  1.
         11    1    5    5    0    0  0.27818070059E+02 -0.30498123269E+02 -0.72148352993E+01  0.41905064051E+02  0.00000000000E+00 0. -1.
        -11    1    5    5    0    0  0.25562575114E+03  0.22656425263E+02 -0.10260550125E+02  0.25683285838E+03  0.00000000000E+00 0.  1.
          4    1    6    6  503    0  0.47599418156E+03  0.11374569345E+03  0.10361784062E+04  0.11459381454E+04  0.00000000000E+00 0. -1.
         -4    1    6    6    0  503  0.19114083556E+03  0.94328251692E+02  0.54231786712E+03  0.58270173080E+03  0.00000000000E+00 0.  1.
<mgrwt>
<rscale>  0 0.31776894E+04</rscale>
<asrwt>0</asrwt>
<pdfrwt beam="1">  1        1 0.19138140E+00 0.31776894E+04</pdfrwt>
<pdfrwt beam="2">  1       -2 0.31220257E+00 0.31776894E+04</pdfrwt>
<totfact> 0.19534228E-01</totfact>
</mgrwt>
</event>
<event>
12    4  0.4207946E-008  0.2728219E+04  0.7818608E-02  0.8325907E-01
          1   -1    0    0  501    0  0.00000000000E+00  0.00000000000E+00  0.73122856756E+03  0.73122856756E+03  0.00000000000E+00 0. -1.
         -2   -1    0    0    0  501 -0.00000000000E+00 -0.00000000000E+00 -0.25447514453E+04  0.25447514453E+04  0.00000000000E+00 0.  1.
        -24    2    1    2    0    0  0.68947675346E+03 -0.81036890163E+03 -0.15206619127E+04  0.18578142292E+04  0.83576953038E+02 0.  0.
        254    2    1    2    0    0 -0.68947675346E+03  0.81036890163E+03 -0.29286096508E+03  0.14181657837E+04  0.89070236049E+03 0.  0.
         23    2    4    4    0    0 -0.47520243070E+02  0.10225974381E+03 -0.42511692315E+03  0.44903288534E+03  0.90503619022E+02 0.  0.
         23    2    4    4    0    0 -0.64195651039E+03  0.70810915781E+03  0.13225595808E+03  0.96913289839E+03  0.90554931858E+02 0.  0.
          3    1    3    3  502    0  0.25328357158E+03 -0.23813847958E+03 -0.48393576782E+03  0.59586603399E+03  0.00000000000E+00 0. -1.
         -4    1    3    3    0  502  0.43619318189E+03 -0.57223042205E+03 -0.10367261449E+04  0.12619481952E+04  0.00000000000E+00 0.  1.
         11    1    5    5    0    0 -0.34031242596E+02  0.11845826530E+03 -0.37201580292E+03  0.39190080851E+03  0.00000000000E+00 0. -1.
        -11    1    5    5    0    0 -0.13489000474E+02 -0.16198521487E+02 -0.53101120231E+02  0.57132076821E+02  0.00000000000E+00 0.  1.
          3    1    6    6  503    0 -0.35029204261E+03  0.33875012597E+03  0.34945251940E+02  0.48854614275E+03  0.00000000000E+00 0. -1.
         -3    1    6    6    0  503 -0.29166446778E+03  0.36935903185E+03  0.97310706136E+02  0.48058675564E+03  0.00000000000E+00 0.  1.
<mgrwt>
<rscale>  0 0.27282192E+04</rscale>
<asrwt>0</asrwt>
<pdfrwt beam="1">  1        1 0.11249670E+00 0.27282192E+04</pdfrwt>
<pdfrwt beam="2">  1       -2 0.39150023E+00 0.27282192E+04</pdfrwt>
<totfact> 0.16408252E-01</totfact>
</mgrwt>
</event>
<event>
12    4  0.4207946E-008  0.1699719E+04  0.7818608E-02  0.8761525E-01
          1   -1    0    0  501    0  0.00000000000E+00  0.00000000000E+00  0.36239466189E+04  0.36239466189E+04  0.00000000000E+00 0. -1.
         -2   -1    0    0    0  501 -0.00000000000E+00 -0.00000000000E+00 -0.19930235857E+03  0.19930235857E+03  0.00000000000E+00 0.  1.
        -24    2    1    2    0    0 -0.21271003484E+03  0.36851453540E+03  0.22107741735E+04  0.22527546204E+04  0.79576451703E+02 0.  0.
        254    2    1    2    0    0  0.21271003484E+03 -0.36851453540E+03  0.12138700868E+04  0.15704943571E+04  0.90106793099E+03 0.  0.
         23    2    4    4    0    0 -0.91627328344E+02 -0.39542523194E+03  0.12233183184E+03  0.43330551459E+03  0.89620926937E+02 0.  0.
         23    2    4    4    0    0  0.30433736319E+03  0.26910696540E+02  0.10915382550E+04  0.11371888425E+04  0.91636702260E+02 0.  0.
          1    1    3    3  502    0 -0.21872524026E+03  0.34536525799E+03  0.20739992587E+04  0.21139041646E+04  0.00000000000E+00 0. -1.
         -2    1    3    3    0  502  0.60152054181E+01  0.23149277406E+02  0.13677491487E+03  0.13885045581E+03  0.00000000000E+00 0.  1.
         11    1    5    5    0    0 -0.36981286201E+02 -0.31912356384E+03  0.85108212096E+02  0.33234149950E+03  0.00000000000E+00 0. -1.
        -11    1    5    5    0    0 -0.54646042143E+02 -0.76301668097E+02  0.37223619742E+02  0.10096401509E+03  0.00000000000E+00 0.  1.
          1    1    6    6  503    0  0.33064735271E+02 -0.84742448757E+01  0.24952139796E+03  0.25184522545E+03  0.00000000000E+00 0. -1.
         -1    1    6    6    0  503  0.27127262791E+03  0.35384941416E+02  0.84201685701E+03  0.88534361704E+03  0.00000000000E+00 0.  1.
<mgrwt>
<rscale>  0 0.16997189E+04</rscale>
<asrwt>0</asrwt>
<pdfrwt beam="1">  1        1 0.55753020E+00 0.16997189E+04</pdfrwt>
<pdfrwt beam="2">  1       -2 0.30661904E-01 0.16997189E+04</pdfrwt>
<totfact> 0.16524621E+00</totfact>
</mgrwt>
</event>
<event>
12    4  0.4207946E-008  0.1155837E+04  0.7818608E-02  0.9152416E-01
         -2   -1    0    0    0  501 -0.00000000000E+00  0.00000000000E+00  0.47681755050E+03  0.47681755050E+03  0.00000000000E+00 0.  1.
          1   -1    0    0  501    0  0.00000000000E+00 -0.00000000000E+00 -0.70045591740E+03  0.70045591740E+03  0.00000000000E+00 0. -1.
        -24    2    1    2    0    0 -0.53175013086E+02 -0.17238811811E+03 -0.15757356733E+03  0.25205024573E+03  0.78451589950E+02 0.  0.
        254    2    1    2    0    0  0.53175013086E+02  0.17238811811E+03 -0.66064799568E+02  0.92522322218E+03  0.90505701910E+03 0.  0.
         23    2    4    4    0    0 -0.34619849591E+03 -0.16129342274E+03 -0.56471498649E+02  0.39679905457E+03  0.91605091310E+02 0.  0.
         23    2    4    4    0    0  0.39937350900E+03  0.33368154085E+03 -0.95933009189E+01  0.52842416761E+03  0.91090609255E+02 0.  0.
          3    1    3    3  502    0  0.28639958516E+01 -0.24729435082E+02 -0.63536174512E+02  0.68239232875E+02  0.00000000000E+00 0. -1.
         -4    1    3    3    0  502 -0.56039008938E+02 -0.14765868303E+03 -0.94037392821E+02  0.18381101285E+03  0.00000000000E+00 0.  1.
         11    1    5    5    0    0 -0.48594889490E+02 -0.42105626894E+02  0.19779397298E+02  0.67272369203E+02  0.00000000000E+00 0.  1.
        -11    1    5    5    0    0 -0.29760360642E+03 -0.11918779585E+03 -0.76250895947E+02  0.32952668536E+03  0.00000000000E+00 0. -1.
          3    1    6    6  503    0  0.20163596918E+03  0.13586007727E+03  0.33460808202E+02  0.24542748491E+03  0.00000000000E+00 0. -1.
         -3    1    6    6    0  503  0.19773753982E+03  0.19782146358E+03 -0.43054109121E+02  0.28299668270E+03  0.00000000000E+00 0.  1.
<mgrwt>
<rscale>  0 0.11558368E+04</rscale>
<asrwt>0</asrwt>
<pdfrwt beam="1">  1        1 0.10776245E+00 0.11558368E+04</pdfrwt>
<pdfrwt beam="2">  1       -2 0.73356547E-01 0.11558368E+04</pdfrwt>
<totfact> 0.39697845E+01</totfact>
</mgrwt>
</event>
<event>
12    4  0.4207946E-008  0.2631023E+04  0.7818608E-02  0.8357739E-01
         -2   -1    0    0    0  501 -0.00000000000E+00  0.00000000000E+00  0.15389498852E+04  0.15389498852E+04  0.00000000000E+00 0.  1.
          1   -1    0    0  501    0  0.00000000000E+00 -0.00000000000E+00 -0.11245136610E+04  0.11245136610E+04  0.00000000000E+00 0. -1.
        -24    2    1    2    0    0 -0.21427597565E+03 -0.76801791071E+03 -0.66480921123E+03  0.10407463611E+04  0.73593450061E+02 0.  0.
        254    2    1    2    0    0  0.21427597565E+03  0.76801791071E+03  0.10792454355E+04  0.16227171851E+04  0.91251008099E+03 0.  0.
         23    2    4    4    0    0  0.47459644807E+03  0.10674985185E+03  0.47595573717E+03  0.68609957674E+03  0.86956575747E+02 0.  0.
         23    2    4    4    0    0 -0.26032047242E+03  0.66126805886E+03  0.60328969830E+03  0.93661760835E+03  0.90839915080E+02 0.  0.
          1    1    3    3  502    0 -0.13911608423E+03 -0.60716832385E+03 -0.50551367356E+03  0.80221613829E+03  0.00000000000E+00 0. -1.
         -2    1    3    3    0  502 -0.75159891421E+02 -0.16084958686E+03 -0.15929553767E+03  0.23853022281E+03  0.00000000000E+00 0.  1.
         11    1    5    5    0    0  0.95651049716E+02  0.33268292832E+02  0.56114764319E+02  0.11577896784E+03  0.00000000000E+00 0.  1.
        -11    1    5    5    0    0  0.37894539836E+03  0.73481559015E+02  0.41984097285E+03  0.57032060890E+03  0.00000000000E+00 0. -1.
          3    1    6    6  503    0 -0.81682234854E+02  0.17614059695E+03  0.11590936355E+03  0.22612491668E+03  0.00000000000E+00 0. -1.
         -3    1    6    6    0  503 -0.17863823756E+03  0.48512746191E+03  0.48738033475E+03  0.71049269168E+03  0.00000000000E+00 0.  1.
<mgrwt>
<rscale>  0 0.26310227E+04</rscale>
<asrwt>0</asrwt>
<pdfrwt beam="1">  1        1 0.17300210E+00 0.26310227E+04</pdfrwt>
<pdfrwt beam="2">  1       -2 0.23676152E+00 0.26310227E+04</pdfrwt>
<totfact> 0.72659489E-01</totfact>
</mgrwt>
</event>
<event>
12    4  0.4207946E-008  0.1473528E+04  0.7818608E-02  0.8902250E-01
          1   -1    0    0  501    0  0.00000000000E+00  0.00000000000E+00  0.14982720855E+04  0.14982720855E+04  0.00000000000E+00 0. -1.
         -2   -1    0    0    0  501 -0.00000000000E+00 -0.00000000000E+00 -0.36229813340E+03  0.36229813340E+03  0.00000000000E+00 0.  1.
        -24    2    1    2    0    0  0.22242582126E+02  0.95481797637E+02  0.95102165338E+03  0.95913409182E+03  0.76710590885E+02 0.  0.
        254    2    1    2    0    0 -0.22242582126E+02 -0.95481797637E+02  0.18495229869E+03  0.90143612705E+03  0.87679429299E+03 0.  0.
         23    2    4    4    0    0  0.15425223053E+03 -0.20854177023E+03 -0.27443981757E+03  0.38839707184E+03  0.90838600769E+02 0.  0.
         23    2    4    4    0    0 -0.17649481266E+03  0.11305997259E+03  0.45939211627E+03  0.51303905522E+03  0.90746787235E+02 0.  0.
          3    1    3    3  502    0  0.49559309354E+02  0.72837189408E+02  0.72727448541E+03  0.73259098987E+03  0.00000000000E+00 0. -1.
         -4    1    3    3    0  502 -0.27316727228E+02  0.22644608229E+02  0.22374716797E+03  0.22654310195E+03  0.00000000000E+00 0.  1.
         11    1    5    5    0    0  0.14439278594E+03 -0.20204639725E+03 -0.28090223963E+03  0.37493745013E+03  0.00000000000E+00 0. -1.
        -11    1    5    5    0    0  0.98594445900E+01 -0.64953729740E+01  0.64624220633E+01  0.13459621712E+02  0.00000000000E+00 0.  1.
          1    1    6    6  503    0 -0.45030683429E+02  0.34814308941E+02  0.49164338280E+02  0.75212570197E+02  0.00000000000E+00 0. -1.
         -1    1    6    6    0  503 -0.13146412923E+03  0.78245663647E+02  0.41022777799E+03  0.43782648502E+03  0.00000000000E+00 0.  1.
<mgrwt>
<rscale>  0 0.14735280E+04</rscale>
<asrwt>0</asrwt>
<pdfrwt beam="1">  1        1 0.23050339E+00 0.14735280E+04</pdfrwt>
<pdfrwt beam="2">  1       -2 0.55738175E-01 0.14735280E+04</pdfrwt>
<totfact> 0.16871862E+01</totfact>
</mgrwt>
</event>
<event>
12    4  0.4207946E-008  0.1188675E+04  0.7818608E-02  0.9122827E-01
         -2   -1    0    0    0  501 -0.00000000000E+00  0.00000000000E+00  0.66447494140E+03  0.66447494140E+03  0.00000000000E+00 0.  1.
          1   -1    0    0  501    0  0.00000000000E+00 -0.00000000000E+00 -0.53160355236E+03  0.53160355236E+03  0.00000000000E+00 0. -1.
        -24    2    1    2    0    0 -0.63630912043E+02 -0.18712796934E+03  0.16285997547E+03  0.26831839277E+03  0.80035107358E+02 0.  0.
        254    2    1    2    0    0  0.63630912043E+02  0.18712796934E+03 -0.29988586426E+02  0.92776010099E+03  0.90596562837E+03 0.  0.
         23    2    4    4    0    0 -0.30425935198E+03  0.38049247235E+03  0.33545570810E+02  0.49735740324E+03  0.94291073022E+02 0.  0.
         23    2    4    4    0    0  0.36789026402E+03 -0.19336450301E+03 -0.63534157235E+02  0.43040269775E+03  0.92069624235E+02 0.  0.
          1    1    3    3  502    0  0.78552118743E+01  0.28069502978E+01  0.38624189797E+00  0.83505991622E+01  0.00000000000E+00 0. -1.
         -2    1    3    3    0  502 -0.71486123917E+02 -0.18993491964E+03  0.16247373357E+03  0.25996779361E+03  0.00000000000E+00 0.  1.
         11    1    5    5    0    0 -0.70683217337E+02  0.42656259976E+02 -0.14554460077E+02  0.83830221497E+02  0.00000000000E+00 0. -1.
        -11    1    5    5    0    0 -0.23357613465E+03  0.33783621237E+03  0.48100030887E+02  0.41352718174E+03  0.00000000000E+00 0.  1.
          1    1    6    6  503    0  0.11348641813E+03 -0.14187483121E+02 -0.22141850289E+02  0.11649340458E+03  0.00000000000E+00 0. -1.
         -1    1    6    6    0  503  0.25440384590E+03 -0.17917701989E+03 -0.41392306946E+02  0.31390929317E+03  0.00000000000E+00 0.  1.
<mgrwt>
<rscale>  0 0.11886753E+04</rscale>
<asrwt>0</asrwt>
<pdfrwt beam="1">  1        1 0.81785162E-01 0.11886753E+04</pdfrwt>
<pdfrwt beam="2">  1       -2 0.10222691E+00 0.11886753E+04</pdfrwt>
<totfact> 0.27637390E+01</totfact>
</mgrwt>
</event>
<event>
12    4  0.4207946E-008  0.1457512E+04  0.7818608E-02  0.8913209E-01
          1   -1    0    0  501    0  0.00000000000E+00  0.00000000000E+00  0.27191703417E+04  0.27191703417E+04  0.00000000000E+00 0. -1.
         -2   -1    0    0    0  501 -0.00000000000E+00 -0.00000000000E+00 -0.19531165568E+03  0.19531165568E+03  0.00000000000E+00 0.  1.
        -24    2    1    2    0    0  0.34932836869E+03  0.26828585875E+03  0.70331661932E+03  0.83366850883E+03  0.79632307657E+02 0.  0.
        254    2    1    2    0    0 -0.34932836869E+03 -0.26828585875E+03  0.18205420667E+04  0.20808134885E+04  0.90631327160E+03 0.  0.
         23    2    4    4    0    0 -0.33875661850E+03 -0.61362741858E+01  0.13942171166E+03  0.37741775622E+03  0.90620354152E+02 0.  0.
         23    2    4    4    0    0 -0.10571750189E+02 -0.26214958457E+03  0.16811203550E+04  0.17033957323E+04  0.80976577944E+02 0.  0.
          1    1    3    3  502    0  0.13554070693E+03  0.10529495453E+03  0.20414497774E+03  0.26670860995E+03  0.00000000000E+00 0. -1.
         -2    1    3    3    0  502  0.21378766176E+03  0.16299090422E+03  0.49917164157E+03  0.56695989887E+03  0.00000000000E+00 0.  1.
         11    1    5    5    0    0 -0.13117146317E+03 -0.38642977249E+02  0.27979603093E+02  0.13957825987E+03  0.00000000000E+00 0.  1.
        -11    1    5    5    0    0 -0.20758515534E+03  0.32506703063E+02  0.11144210857E+03  0.23783949635E+03  0.00000000000E+00 0. -1.
          1    1    6    6  503    0  0.11560129450E+02 -0.94318859907E+01  0.38294026783E+02  0.41097804728E+02  0.00000000000E+00 0. -1.
         -1    1    6    6    0  503 -0.22131879640E+02 -0.25271769857E+03  0.16428263282E+04  0.16622979276E+04  0.00000000000E+00 0.  1.
<mgrwt>
<rscale>  0 0.14575125E+04</rscale>
<asrwt>0</asrwt>
<pdfrwt beam="1">  1        1 0.41833387E+00 0.14575125E+04</pdfrwt>
<pdfrwt beam="2">  1       -2 0.30047949E-01 0.14575125E+04</pdfrwt>
<totfact> 0.83263730E+00</totfact>
</mgrwt>
</event>
<event>
12    4  0.4207946E-008  0.1781659E+04  0.7818608E-02  0.8716114E-01
         -2   -1    0    0    0  501 -0.00000000000E+00  0.00000000000E+00  0.52721014291E+03  0.52721014291E+03  0.00000000000E+00 0.  1.
          1   -1    0    0  501    0  0.00000000000E+00 -0.00000000000E+00 -0.15052385060E+04  0.15052385060E+04  0.00000000000E+00 0. -1.
        -24    2    1    2    0    0  0.39090357601E+03  0.47522326186E+03 -0.10488378107E+03  0.62930426827E+03  0.79878033140E+02 0.  0.
        254    2    1    2    0    0 -0.39090357601E+03 -0.47522326186E+03 -0.87314458200E+03  0.14031443806E+04  0.90982961999E+03 0.  0.
         23    2    4    4    0    0 -0.17626058180E+03 -0.35069043924E+03 -0.10222052586E+04  0.10986591652E+04  0.89982185247E+02 0.  0.
         23    2    4    4    0    0 -0.21464299421E+03 -0.12453282262E+03  0.14906067657E+03  0.30448521545E+03  0.94404037275E+02 0.  0.
          1    1    3    3  502    0  0.26262448697E+03  0.27072996587E+03 -0.88030416769E+02  0.38731858960E+03  0.00000000000E+00 0. -1.
         -2    1    3    3    0  502  0.12827908904E+03  0.20449329600E+03 -0.16853364301E+02  0.24198567867E+03  0.00000000000E+00 0.  1.
         11    1    5    5    0    0 -0.15907538108E+03 -0.34821004699E+03 -0.94650450617E+03  0.10209926512E+04  0.00000000000E+00 0. -1.
        -11    1    5    5    0    0 -0.17185200723E+02 -0.24803922503E+01 -0.75700752406E+02  0.77666513920E+02  0.00000000000E+00 0.  1.
          4    1    6    6  503    0 -0.15946936272E+03 -0.11845423671E+03  0.75912509451E+02  0.21266074610E+03  0.00000000000E+00 0. -1.
         -4    1    6    6    0  503 -0.55173631496E+02 -0.60785859146E+01  0.73148167120E+02  0.91824469354E+02  0.00000000000E+00 0.  1.
<mgrwt>
<rscale>  0 0.17816588E+04</rscale>
<asrwt>0</asrwt>
<pdfrwt beam="1">  1        1 0.23157515E+00 0.17816588E+04</pdfrwt>
<pdfrwt beam="2">  1       -2 0.81109254E-01 0.17816588E+04</pdfrwt>
<totfact> 0.72097572E+00</totfact>
</mgrwt>
</event>
<event>
12    4  0.4207946E-008  0.2346385E+04  0.7818608E-02  0.8459854E-01
         -2   -1    0    0    0  501 -0.00000000000E+00  0.00000000000E+00  0.14279546297E+04  0.14279546297E+04  0.00000000000E+00 0.  1.
          1   -1    0    0  501    0  0.00000000000E+00 -0.00000000000E+00 -0.96388221564E+03  0.96388221564E+03  0.00000000000E+00 0. -1.
        -24    2    1    2    0    0 -0.12253585076E+02 -0.99888129423E+03  0.58191157330E+02  0.10037883855E+04  0.79315331434E+02 0.  0.
        254    2    1    2    0    0  0.12253585076E+02  0.99888129423E+03  0.40588125677E+03  0.13880484599E+04  0.87408520295E+03 0.  0.
         23    2    4    4    0    0 -0.37859508926E+03  0.23640551010E+03  0.22961502754E+03  0.50966019551E+03  0.88366550209E+02 0.  0.
         23    2    4    4    0    0  0.39084867433E+03  0.76247578413E+03  0.17626622923E+03  0.87838826435E+03  0.79775634012E+02 0.  0.
          3    1    3    3  502    0 -0.18403014959E+02 -0.99377163013E+03  0.56098828320E+02  0.99552388337E+03  0.00000000000E+00 0. -1.
         -4    1    3    3    0  502  0.61494298837E+01 -0.51096640918E+01  0.20923290104E+01  0.82645021455E+01  0.00000000000E+00 0.  1.
         11    1    5    5    0    0 -0.12964377650E+03  0.41186279101E+02  0.94596284389E+02  0.16568728193E+03  0.00000000000E+00 0.  1.
        -11    1    5    5    0    0 -0.24895131276E+03  0.19521923100E+03  0.13501874315E+03  0.34397291358E+03  0.00000000000E+00 0. -1.
          1    1    6    6  503    0  0.99701422462E+02  0.17841171776E+03  0.76351613881E+02  0.21817580897E+03  0.00000000000E+00 0. -1.
         -1    1    6    6    0  503  0.29114725187E+03  0.58406406636E+03  0.99914615347E+02  0.66021245539E+03  0.00000000000E+00 0.  1.
<mgrwt>
<rscale>  0 0.23463845E+04</rscale>
<asrwt>0</asrwt>
<pdfrwt beam="1">  1        1 0.14828957E+00 0.23463845E+04</pdfrwt>
<pdfrwt beam="2">  1       -2 0.21968533E+00 0.23463845E+04</pdfrwt>
<totfact> 0.12662051E+00</totfact>
</mgrwt>
</event>
<event>
12    4  0.4207946E-008  0.1164186E+04  0.7818608E-02  0.9144795E-01
         -2   -1    0    0    0  501 -0.00000000000E+00  0.00000000000E+00  0.13503691313E+03  0.13503691313E+03  0.00000000000E+00 0.  1.
          1   -1    0    0  501    0  0.00000000000E+00 -0.00000000000E+00 -0.25091832816E+04  0.25091832816E+04  0.00000000000E+00 0. -1.
        -24    2    1    2    0    0  0.63574269244E+02  0.10758390382E+03 -0.57082622407E+02  0.15884629954E+03  0.79735418884E+02 0.  0.
        254    2    1    2    0    0 -0.63574269244E+02 -0.10758390382E+03 -0.23170637460E+04  0.24853738952E+04  0.89032747433E+03 0.  0.
         23    2    4    4    0    0 -0.20491788329E+03  0.30490728775E+03 -0.58281631681E+03  0.69483487832E+03  0.90337456126E+02 0.  0.
         23    2    4    4    0    0  0.14134361405E+03 -0.41249119157E+03 -0.17342474292E+04  0.17905390169E+04  0.91042982867E+02 0.  0.
          1    1    3    3  502    0 -0.39843238130E+01 -0.10948089288E+02 -0.64791879418E+01  0.13330992900E+02  0.00000000000E+00 0. -1.
         -2    1    3    3    0  502  0.67558593057E+02  0.11853199311E+03 -0.50603434465E+02  0.14551530664E+03  0.00000000000E+00 0.  1.
         11    1    5    5    0    0 -0.68621882619E+00 -0.33140134417E+01  0.12198505331E+01  0.35974458568E+01  0.00000000000E+00 0.  1.
        -11    1    5    5    0    0 -0.20423166447E+03  0.30822130119E+03 -0.58403616734E+03  0.69123743246E+03  0.00000000000E+00 0. -1.
          1    1    6    6  503    0  0.11846637226E+03 -0.21683936785E+03 -0.10339248406E+04  0.10630400599E+04  0.00000000000E+00 0.  1.
         -1    1    6    6    0  503  0.22877241790E+02 -0.19565182371E+03 -0.70032258861E+03  0.72749895700E+03  0.00000000000E+00 0. -1.
<mgrwt>
<rscale>  0 0.11641862E+04</rscale>
<asrwt>0</asrwt>
<pdfrwt beam="1">  1        1 0.38602819E+00 0.11641862E+04</pdfrwt>
<pdfrwt beam="2">  1       -2 0.20774910E-01 0.11641862E+04</pdfrwt>
<totfact> 0.23414551E+01</totfact>
</mgrwt>
</event>
<event>
12    4  0.4207946E-008  0.1599904E+04  0.7818608E-02  0.8820607E-01
          1   -1    0    0  501    0  0.00000000000E+00  0.00000000000E+00  0.19381674135E+04  0.19381674135E+04  0.00000000000E+00 0. -1.
         -2   -1    0    0    0  501 -0.00000000000E+00 -0.00000000000E+00 -0.33016926218E+03  0.33016926218E+03  0.00000000000E+00 0.  1.
        -24    2    1    2    0    0  0.25652622767E+02 -0.43858224122E+02 -0.21296543742E+03  0.23576494190E+03  0.87459873166E+02 0.  0.
        254    2    1    2    0    0 -0.25652622767E+02  0.43858224122E+02  0.18209635887E+04  0.20325717338E+04  0.90158630233E+03 0.  0.
         23    2    4    4    0    0  0.87297670856E+02 -0.40392919935E+03  0.10118084938E+04  0.10965378901E+04  0.88652325735E+02 0.  0.
         23    2    4    4    0    0 -0.11295029362E+03  0.44778742347E+03  0.80915509489E+03  0.93603384364E+03  0.90310815530E+02 0.  0.
          3    1    3    3  502    0  0.29715755983E+02 -0.22808229187E+02 -0.21678661992E+02  0.43280548265E+02  0.00000000000E+00 0. -1.
         -4    1    3    3    0  502 -0.40631332160E+01 -0.21049994935E+02 -0.19128677543E+03  0.19248439364E+03  0.00000000000E+00 0.  1.
         11    1    5    5    0    0  0.24706057761E+02 -0.17880614757E+03  0.33508570911E+03  0.38061064114E+03  0.00000000000E+00 0.  1.
        -11    1    5    5    0    0  0.62591613095E+02 -0.22512305178E+03  0.67672278473E+03  0.71592724899E+03  0.00000000000E+00 0. -1.
          2    1    6    6  503    0 -0.79384071362E+02  0.22143665148E+03  0.33250714222E+03  0.40730458018E+03  0.00000000000E+00 0. -1.
         -2    1    6    6    0  503 -0.33566222261E+02  0.22635077199E+03  0.47664795267E+03  0.52872926346E+03  0.00000000000E+00 0.  1.
<mgrwt>
<rscale>  0 0.15999041E+04</rscale>
<asrwt>0</asrwt>
<pdfrwt beam="1">  1        1 0.29817960E+00 0.15999041E+04</pdfrwt>
<pdfrwt beam="2">  1       -2 0.50795272E-01 0.15999041E+04</pdfrwt>
<totfact> 0.10134110E+01</totfact>
</mgrwt>
</event>
<event>
12    4  0.4207946E-008  0.1912604E+04  0.7818608E-02  0.8648608E-01
         -2   -1    0    0    0  501 -0.00000000000E+00  0.00000000000E+00  0.60084296119E+03  0.60084296119E+03  0.00000000000E+00 0.  1.
          1   -1    0    0  501    0  0.00000000000E+00 -0.00000000000E+00 -0.15220512314E+04  0.15220512314E+04  0.00000000000E+00 0. -1.
        -24    2    1    2    0    0 -0.27692870155E+03  0.33531209205E+03  0.30858772482E+03  0.53892539937E+03  0.78041638561E+02 0.  0.
        254    2    1    2    0    0  0.27692870155E+03 -0.33531209205E+03 -0.12297959950E+04  0.15839687932E+04  0.89857400568E+03 0.  0.
         23    2    4    4    0    0  0.45028294569E+03 -0.19150811455E+03 -0.21805437221E+03  0.54369968342E+03  0.92906121388E+02 0.  0.
         23    2    4    4    0    0 -0.17335424413E+03 -0.14380397750E+03 -0.10117416228E+04  0.10402691098E+04  0.88359671559E+02 0.  0.
          3    1    3    3  502    0 -0.32921892869E+02  0.53807351330E+02  0.15605890902E+02  0.64981735265E+02  0.00000000000E+00 0. -1.
         -4    1    3    3    0  502 -0.24400680868E+03  0.28150474072E+03  0.29298183392E+03  0.47394366410E+03  0.00000000000E+00 0.  1.
         11    1    5    5    0    0  0.11968533436E+03 -0.31880201647E+02 -0.96392410361E+02  0.15694719906E+03  0.00000000000E+00 0. -1.
        -11    1    5    5    0    0  0.33059761133E+03 -0.15962791291E+03 -0.12166196184E+03  0.38675248436E+03  0.00000000000E+00 0.  1.
          3    1    6    6  503    0 -0.65495572719E+01 -0.49621926995E+02 -0.18811336856E+03  0.19465834626E+03  0.00000000000E+00 0. -1.
         -3    1    6    6    0  503 -0.16680468686E+03 -0.94182050506E+02 -0.82362825426E+03  0.84561076353E+03  0.00000000000E+00 0.  1.
<mgrwt>
<rscale>  0 0.19126043E+04</rscale>
<asrwt>0</asrwt>
<pdfrwt beam="1">  1        1 0.23416173E+00 0.19126043E+04</pdfrwt>
<pdfrwt beam="2">  1       -2 0.92437379E-01 0.19126043E+04</pdfrwt>
<totfact> 0.51461695E+00</totfact>
</mgrwt>
</event>
<event>
12    4  0.4207946E-008  0.1634122E+04  0.7818608E-02  0.8799856E-01
         -2   -1    0    0    0  501 -0.00000000000E+00  0.00000000000E+00  0.54048083981E+03  0.54048083981E+03  0.00000000000E+00 0.  1.
          1   -1    0    0  501    0  0.00000000000E+00 -0.00000000000E+00 -0.12351752103E+04  0.12351752103E+04  0.00000000000E+00 0. -1.
        -24    2    1    2    0    0 -0.12957790386E+03  0.33121274790E+02  0.35244795862E+03  0.38538703991E+03  0.80100905004E+02 0.  0.
        254    2    1    2    0    0  0.12957790386E+03 -0.33121274790E+02 -0.10471423291E+04  0.13902690102E+04  0.90468415001E+03 0.  0.
         23    2    4    4    0    0  0.17316557886E+03 -0.24718867250E+02  0.11236427163E+03  0.22644825524E+03  0.89753789117E+02 0.  0.
         23    2    4    4    0    0 -0.43587674995E+02 -0.84024075406E+01 -0.11595066007E+04  0.11638207549E+04  0.89736874576E+02 0.  0.
          3    1    3    3  502    0 -0.67038754487E+02 -0.23668528882E+02  0.14872554554E+03  0.16484441682E+03  0.00000000000E+00 0. -1.
         -4    1    3    3    0  502 -0.62539149375E+02  0.56789803672E+02  0.20372241309E+03  0.22054262309E+03  0.00000000000E+00 0.  1.
         11    1    5    5    0    0  0.12297876816E+03 -0.61618786787E+01  0.27568312539E+02  0.12618144881E+03  0.00000000000E+00 0.  1.
        -11    1    5    5    0    0  0.50186810697E+02 -0.18556988571E+02  0.84795959093E+02  0.10026680643E+03  0.00000000000E+00 0. -1.
          1    1    6    6  503    0 -0.65161901746E+02 -0.78438199174E+00 -0.54403851223E+03  0.54792754219E+03  0.00000000000E+00 0. -1.
         -1    1    6    6    0  503  0.21574226751E+02 -0.76180255489E+01 -0.61546808847E+03  0.61589321274E+03  0.00000000000E+00 0.  1.
<mgrwt>
<rscale>  0 0.16341218E+04</rscale>
<asrwt>0</asrwt>
<pdfrwt beam="1">  1        1 0.19002696E+00 0.16341218E+04</pdfrwt>
<pdfrwt beam="2">  1       -2 0.83150898E-01 0.16341218E+04</pdfrwt>
<totfact> 0.10708868E+01</totfact>
</mgrwt>
</event>
<event>
12    4  0.4207946E-008  0.1327480E+04  0.7818608E-02  0.9008053E-01
          1   -1    0    0  501    0  0.00000000000E+00  0.00000000000E+00  0.13946427913E+04  0.13946427913E+04  0.00000000000E+00 0. -1.
         -2   -1    0    0    0  501 -0.00000000000E+00 -0.00000000000E+00 -0.31588772392E+03  0.31588772392E+03  0.00000000000E+00 0.  1.
        -24    2    1    2    0    0  0.32070620607E+03 -0.17570382535E+03  0.29153927033E+03  0.47773713898E+03  0.97536264871E+02 0.  0.
        254    2    1    2    0    0 -0.32070620607E+03  0.17570382535E+03  0.78721579704E+03  0.12327933762E+04  0.87541218434E+03 0.  0.
         23    2    4    4    0    0  0.41402765502E+02 -0.13603410731E+03 -0.11693561970E+03  0.20517453114E+03  0.90571417848E+02 0.  0.
         23    2    4    4    0    0 -0.36210897157E+03  0.31173793266E+03  0.90415141674E+03  0.10276188451E+04  0.10103098744E+03 0.  0.
          1    1    3    3  502    0  0.10862160393E+03 -0.92806495934E+02  0.16105306653E+03  0.21529001083E+03  0.00000000000E+00 0. -1.
         -4    1    3    3    0  502  0.21208460214E+03 -0.82897329413E+02  0.13048620380E+03  0.26244712815E+03  0.00000000000E+00 0.  1.
         11    1    5    5    0    0 -0.28893247990E+01 -0.11312157363E+03 -0.55466389997E+02  0.12602126423E+03  0.00000000000E+00 0. -1.
        -11    1    5    5    0    0  0.44292090301E+02 -0.22912533683E+02 -0.61469229699E+02  0.79153266912E+02  0.00000000000E+00 0.  1.
          4    1    6    6  503    0 -0.22560170620E+03  0.25219766133E+03  0.59572494875E+03  0.68511897127E+03  0.00000000000E+00 0. -1.
         -4    1    6    6    0  503 -0.13650726537E+03  0.59540271327E+02  0.30842646799E+03  0.34249987382E+03  0.00000000000E+00 0.  1.
<mgrwt>
<rscale>  0 0.13274796E+04</rscale>
<asrwt>0</asrwt>
<pdfrwt beam="1">  1        1 0.21456043E+00 0.13274796E+04</pdfrwt>
<pdfrwt beam="2">  1       -2 0.48598112E-01 0.13274796E+04</pdfrwt>
<totfact> 0.26730504E+01</totfact>
</mgrwt>
</event>
<event>
12    4  0.4207946E-008  0.2245836E+04  0.7818608E-02  0.8499589E-01
         -2   -1    0    0    0  501 -0.00000000000E+00  0.00000000000E+00  0.78872344767E+03  0.78872344767E+03  0.00000000000E+00 0.  1.
          1   -1    0    0  501    0  0.00000000000E+00 -0.00000000000E+00 -0.15987167145E+04  0.15987167145E+04  0.00000000000E+00 0. -1.
        -24    2    1    2    0    0 -0.53255538263E+03 -0.70711581149E+03 -0.23574005780E+02  0.88917795402E+03  0.80334884962E+02 0.  0.
        254    2    1    2    0    0  0.53255538263E+03  0.70711581149E+03 -0.78641926107E+03  0.14982622082E+04  0.91799040508E+03 0.  0.
         23    2    4    4    0    0 -0.60263773023E+02  0.14101394935E+03  0.16234624689E+03  0.24108736719E+03  0.90830383063E+02 0.  0.
         23    2    4    4    0    0  0.59281915565E+03  0.56610186213E+03 -0.94876550796E+03  0.12571748410E+04  0.91797179119E+02 0.  0.
          3    1    3    3  502    0 -0.52462859773E+03 -0.67665072640E+03 -0.14173431977E+02  0.85632485498E+03  0.00000000000E+00 0. -1.
         -4    1    3    3    0  502 -0.79267848995E+01 -0.30465085085E+02 -0.94005738033E+01  0.32853099031E+02  0.00000000000E+00 0.  1.
         11    1    5    5    0    0 -0.78110410226E+02  0.12960279045E+03  0.11782399828E+03  0.19178272615E+03  0.00000000000E+00 0.  1.
        -11    1    5    5    0    0  0.17846637203E+02  0.11411158904E+02  0.44522248605E+02  0.49304641037E+02  0.00000000000E+00 0. -1.
          3    1    6    6  503    0  0.11217613479E+03  0.13285231931E+03 -0.25323253818E+03  0.30718063474E+03  0.00000000000E+00 0. -1.
         -3    1    6    6    0  503  0.48064302086E+03  0.43324954282E+03 -0.69553296977E+03  0.94999420624E+03  0.00000000000E+00 0.  1.
<mgrwt>
<rscale>  0 0.22458365E+04</rscale>
<asrwt>0</asrwt>
<pdfrwt beam="1">  1        1 0.24595642E+00 0.22458365E+04</pdfrwt>
<pdfrwt beam="2">  1       -2 0.12134207E+00 0.22458365E+04</pdfrwt>
<totfact> 0.23028492E+00</totfact>
</mgrwt>
</event>
<event>
12    4  0.4207946E-008  0.2203705E+04  0.7818608E-02  0.8516887E-01
         -2   -1    0    0    0  501 -0.00000000000E+00  0.00000000000E+00  0.21085986437E+04  0.21085986437E+04  0.00000000000E+00 0.  1.
          1   -1    0    0  501    0  0.00000000000E+00 -0.00000000000E+00 -0.57577547829E+03  0.57577547829E+03  0.00000000000E+00 0. -1.
        -24    2    1    2    0    0 -0.55726274953E+03 -0.40139079476E+02 -0.24790045120E+03  0.61643109681E+03  0.79873310278E+02 0.  0.
        254    2    1    2    0    0  0.55726274953E+03  0.40139079476E+02  0.17807236166E+04  0.20679430252E+04  0.89065079514E+03 0.  0.
         23    2    4    4    0    0  0.70113206391E+03  0.16324904572E+03  0.87021380804E+03  0.11329962277E+04  0.90398885037E+02 0.  0.
         23    2    4    4    0    0 -0.14386931438E+03 -0.12310996624E+03  0.91050980858E+03  0.93494679743E+03  0.96140309470E+02 0.  0.
          3    1    3    3  502    0 -0.68150453687E+02  0.16210103744E+02 -0.48678823061E+02  0.85304628337E+02  0.00000000000E+00 0. -1.
         -4    1    3    3    0  502 -0.48911229584E+03 -0.56349183219E+02 -0.19922162814E+03  0.53112646847E+03  0.00000000000E+00 0.  1.
         11    1    5    5    0    0  0.18539033958E+03  0.33747365038E+02  0.17023820963E+03  0.25394785031E+03  0.00000000000E+00 0. -1.
        -11    1    5    5    0    0  0.51574172432E+03  0.12950168068E+03  0.69997559841E+03  0.87904837744E+03  0.00000000000E+00 0.  1.
          1    1    6    6  503    0 -0.28533071637E+02 -0.84525950927E+02  0.44165031546E+03  0.45057049803E+03  0.00000000000E+00 0. -1.
         -1    1    6    6    0  503 -0.11533624274E+03 -0.38584015315E+02  0.46885949312E+03  0.48437629940E+03  0.00000000000E+00 0.  1.
<mgrwt>
<rscale>  0 0.22037054E+04</rscale>
<asrwt>0</asrwt>
<pdfrwt beam="1">  1        1 0.88580844E-01 0.22037054E+04</pdfrwt>
<pdfrwt beam="2">  1       -2 0.32439979E+00 0.22037054E+04</pdfrwt>
<totfact> 0.65313810E-01</totfact>
</mgrwt>
</event>
<event>
12    4  0.4207946E-008  0.1322802E+04  0.7818608E-02  0.9011675E-01
         -2   -1    0    0    0  501 -0.00000000000E+00  0.00000000000E+00  0.10008847495E+04  0.10008847495E+04  0.00000000000E+00 0.  1.
          1   -1    0    0  501    0  0.00000000000E+00 -0.00000000000E+00 -0.43706491924E+03  0.43706491924E+03  0.00000000000E+00 0. -1.
        -24    2    1    2    0    0  0.33337226202E+01 -0.10321972227E+03  0.53476180048E+03  0.55048319433E+03  0.79975866445E+02 0.  0.
        254    2    1    2    0    0 -0.33337226202E+01  0.10321972227E+03  0.29058029731E+02  0.88746647437E+03  0.88095797247E+03 0.  0.
         23    2    4    4    0    0 -0.37169752600E+03 -0.15356511541E+03  0.10031820155E+03  0.42420128516E+03  0.90231331977E+02 0.  0.
         23    2    4    4    0    0  0.36836380337E+03  0.25678483768E+03 -0.71260171816E+02  0.46326518921E+03  0.88917258970E+02 0.  0.
          3    1    3    3  502    0 -0.71936584525E+01 -0.27488859539E+01  0.16387791117E+01  0.78734168502E+01  0.00000000000E+00 0. -1.
         -4    1    3    3    0  502  0.10527381073E+02 -0.10047083632E+03  0.53312302137E+03  0.54260977748E+03  0.00000000000E+00 0.  1.
         11    1    5    5    0    0 -0.29976962156E+03 -0.10755675064E+03  0.43019395950E+02  0.32137353508E+03  0.00000000000E+00 0. -1.
        -11    1    5    5    0    0 -0.71927904433E+02 -0.46008364768E+02  0.57298805597E+02  0.10282775009E+03  0.00000000000E+00 0.  1.
          2    1    6    6  503    0  0.27336822904E+03  0.19694088631E+03 -0.13949738246E+02  0.33720987018E+03  0.00000000000E+00 0. -1.
         -2    1    6    6    0  503  0.94995574332E+02  0.59843951372E+02 -0.57310433570E+02  0.12605531902E+03  0.00000000000E+00 0.  1.
<mgrwt>
<rscale>  0 0.13228025E+04</rscale>
<asrwt>0</asrwt>
<pdfrwt beam="1">  1        1 0.67240757E-01 0.13228025E+04</pdfrwt>
<pdfrwt beam="2">  1       -2 0.15398227E+00 0.13228025E+04</pdfrwt>
<totfact> 0.12747018E+01</totfact>
</mgrwt>
</event>
<event>
12    4  0.4207946E-008  0.2256244E+04  0.7818608E-02  0.8495376E-01
          1   -1    0    0  501    0  0.00000000000E+00  0.00000000000E+00  0.24568821509E+04  0.24568821509E+04  0.00000000000E+00 0. -1.
         -2   -1    0    0    0  501 -0.00000000000E+00 -0.00000000000E+00 -0.51799752187E+03  0.51799752187E+03  0.00000000000E+00 0.  1.
        -24    2    1    2    0    0  0.43526371701E+03 -0.26451775814E+03  0.18614925800E+04  0.19315653847E+04  0.79787607662E+02 0.  0.
        254    2    1    2    0    0 -0.43526371701E+03  0.26451775814E+03  0.77392049037E+02  0.10433142881E+04  0.90724364240E+03 0.  0.
         23    2    4    4    0    0 -0.48783615987E+03 -0.17795125610E+03  0.21306270821E+03  0.56864179865E+03  0.91142795154E+02 0.  0.
         23    2    4    4    0    0  0.52572442867E+02  0.44246901425E+03 -0.13567065918E+03  0.47467248940E+03  0.91459029732E+02 0.  0.
          1    1    3    3  502    0  0.43883413316E+03 -0.26127562224E+03  0.18442941403E+04  0.19137035359E+04  0.00000000000E+00 0. -1.
         -2    1    3    3    0  502 -0.35704161525E+01 -0.32421359024E+01  0.17198439711E+02  0.17861848874E+02  0.00000000000E+00 0.  1.
         11    1    5    5    0    0 -0.34546802286E+03 -0.16754422934E+03  0.16641464498E+03  0.41846512121E+03  0.00000000000E+00 0.  1.
        -11    1    5    5    0    0 -0.14236813701E+03 -0.10407026759E+02  0.46648063231E+02  0.15017667744E+03  0.00000000000E+00 0. -1.
          2    1    6    6  503    0  0.25015976949E+02  0.38617844880E+03 -0.90533103904E+02  0.39743658151E+03  0.00000000000E+00 0.  1.
         -2    1    6    6    0  503  0.27556465919E+02  0.56290565443E+02 -0.45137555273E+02  0.77235907891E+02  0.00000000000E+00 0. -1.
<mgrwt>
<rscale>  0 0.22562437E+04</rscale>
<asrwt>0</asrwt>
<pdfrwt beam="1">  1        1 0.37798186E+00 0.22562437E+04</pdfrwt>
<pdfrwt beam="2">  1       -2 0.79691928E-01 0.22562437E+04</pdfrwt>
<totfact> 0.16133768E+00</totfact>
</mgrwt>
</event>
<event>
12    4  0.4207946E-008  0.1844348E+04  0.7818608E-02  0.8683065E-01
          3   -1    0    0  501    0  0.00000000000E+00  0.00000000000E+00  0.13195907600E+04  0.13195907600E+04  0.00000000000E+00 0. -1.
         -4   -1    0    0    0  501 -0.00000000000E+00 -0.00000000000E+00 -0.64444617412E+03  0.64444617412E+03  0.00000000000E+00 0.  1.
        -24    2    1    2    0    0 -0.29562694058E+03 -0.59083061847E+03  0.50802680783E+03  0.83749715518E+03  0.82668855905E+02 0.  0.
        254    2    1    2    0    0  0.29562694058E+03  0.59083061847E+03  0.16711777803E+03  0.11265397789E+04  0.89704370800E+03 0.  0.
         23    2    4    4    0    0  0.23314444467E+03  0.76892550672E+03 -0.67519954856E+02  0.81164374112E+03  0.92756947078E+02 0.  0.
         23    2    4    4    0    0  0.62482495916E+02 -0.17809488826E+03  0.23463773289E+03  0.31489603781E+03  0.92102103194E+02 0.  0.
          1    1    3    3  502    0 -0.55549411225E+01  0.19481585159E+00 -0.52775432303E+00  0.55833546114E+01  0.00000000000E+00 0. -1.
         -2    1    3    3    0  502 -0.29007199946E+03 -0.59102543432E+03  0.50855456216E+03  0.83191380057E+03  0.00000000000E+00 0.  1.
         11    1    5    5    0    0  0.45375460724E+02  0.11852763192E+03  0.21939345047E+02  0.12879855134E+03  0.00000000000E+00 0.  1.
        -11    1    5    5    0    0  0.18776898395E+03  0.65039787480E+03 -0.89459299902E+02  0.68284518979E+03  0.00000000000E+00 0. -1.
          1    1    6    6  503    0  0.22573055167E+02 -0.15804005397E+03  0.21029944105E+03  0.26403040807E+03  0.00000000000E+00 0. -1.
         -1    1    6    6    0  503  0.39909440749E+02 -0.20054834286E+02  0.24338291837E+02  0.50865629738E+02  0.00000000000E+00 0.  1.
<mgrwt>
<rscale>  0 0.18443484E+04</rscale>
<asrwt>0</asrwt>
<pdfrwt beam="1">  1        3 0.20301396E+00 0.18443484E+04</pdfrwt>
<pdfrwt beam="2">  1       -4 0.99145565E-01 0.18443484E+04</pdfrwt>
<totfact> 0.25613526E-01</totfact>
</mgrwt>
</event>
<event>
12    4  0.4207946E-008  0.1674239E+04  0.7818608E-02  0.8776195E-01
          1   -1    0    0  501    0  0.00000000000E+00  0.00000000000E+00  0.14772175538E+04  0.14772175538E+04  0.00000000000E+00 0. -1.
         -2   -1    0    0    0  501 -0.00000000000E+00 -0.00000000000E+00 -0.47438422295E+03  0.47438422295E+03  0.00000000000E+00 0.  1.
        -24    2    1    2    0    0 -0.16551112566E+03  0.55596752820E+03  0.20657722036E+03  0.62084937597E+03  0.79284137948E+02 0.  0.
        254    2    1    2    0    0  0.16551112566E+03 -0.55596752820E+03  0.79625611051E+03  0.13307524008E+04  0.89464201423E+03 0.  0.
         23    2    4    4    0    0  0.55777881523E+02 -0.20476536499E+03 -0.17192268265E+03  0.29025144785E+03  0.98226612495E+02 0.  0.
         23    2    4    4    0    0  0.10973324414E+03 -0.35120216321E+03  0.96817879316E+03  0.10405009530E+04  0.99436981517E+02 0.  0.
          3    1    3    3  502    0 -0.55096299006E+02  0.32295186737E+03  0.11447012938E+03  0.34704023012E+03  0.00000000000E+00 0. -1.
         -4    1    3    3    0  502 -0.11041482666E+03  0.23301566083E+03  0.92107090987E+02  0.27380914585E+03  0.00000000000E+00 0.  1.
         11    1    5    5    0    0  0.80042315019E+02 -0.11698905978E+03 -0.91182218298E+02  0.16854497689E+03  0.00000000000E+00 0.  1.
        -11    1    5    5    0    0 -0.24264433495E+02 -0.87776305209E+02 -0.80740464350E+02  0.12170647096E+03  0.00000000000E+00 0. -1.
          4    1    6    6  503    0  0.26686893561E+02 -0.25036372725E+02  0.45732620807E+02  0.58570323996E+02  0.00000000000E+00 0. -1.
         -4    1    6    6    0  503  0.83046350580E+02 -0.32616579049E+03  0.92244617235E+03  0.98193062897E+03  0.00000000000E+00 0.  1.
<mgrwt>
<rscale>  0 0.16742386E+04</rscale>
<asrwt>0</asrwt>
<pdfrwt beam="1">  1        1 0.22726424E+00 0.16742386E+04</pdfrwt>
<pdfrwt beam="2">  1       -2 0.72982188E-01 0.16742386E+04</pdfrwt>
<totfact> 0.96296543E+00</totfact>
</mgrwt>
</event>
<event>
12    4  0.4207946E-008  0.1812540E+04  0.7818608E-02  0.8699659E-01
         -2   -1    0    0    0  501 -0.00000000000E+00  0.00000000000E+00  0.63540128218E+03  0.63540128218E+03  0.00000000000E+00 0.  1.
          1   -1    0    0  501    0  0.00000000000E+00 -0.00000000000E+00 -0.12926093638E+04  0.12926093638E+04  0.00000000000E+00 0. -1.
        -24    2    1    2    0    0  0.19503784290E+03  0.61453492271E+03 -0.25762694114E+02  0.64986797901E+03  0.77277049315E+02 0.  0.
        254    2    1    2    0    0 -0.19503784290E+03 -0.61453492271E+03 -0.63144538755E+03  0.12781426670E+04  0.90511461617E+03 0.  0.
         23    2    4    4    0    0 -0.50341812813E+02 -0.69045219411E+03 -0.77334505995E+03  0.10427183886E+04  0.99702185497E+02 0.  0.
         23    2    4    4    0    0 -0.14469603009E+03  0.75917271402E+02  0.14189967240E+03  0.23542427838E+03  0.92675242683E+02 0.  0.
          1    1    3    3  502    0  0.62880832110E+02  0.15614963921E+03 -0.38340088549E+02  0.17264608673E+03  0.00000000000E+00 0. -1.
         -2    1    3    3    0  502  0.13215701079E+03  0.45838528350E+03  0.12577394435E+02  0.47722189229E+03  0.00000000000E+00 0.  1.
         11    1    5    5    0    0 -0.10930657436E+02 -0.11140419092E+03 -0.75297427018E+02  0.13490765561E+03  0.00000000000E+00 0. -1.
        -11    1    5    5    0    0 -0.39411155378E+02 -0.57904800319E+03 -0.69804763293E+03  0.90781073303E+03  0.00000000000E+00 0.  1.
          2    1    6    6  503    0 -0.82425865449E+02  0.91166235622E+02  0.82494536204E+02  0.14802247909E+03  0.00000000000E+00 0. -1.
         -2    1    6    6    0  503 -0.62270164639E+02 -0.15248964220E+02  0.59405136191E+02  0.87401799294E+02  0.00000000000E+00 0.  1.
<mgrwt>
<rscale>  0 0.18125404E+04</rscale>
<asrwt>0</asrwt>
<pdfrwt beam="1">  1        1 0.19886298E+00 0.18125404E+04</pdfrwt>
<pdfrwt beam="2">  1       -2 0.97754044E-01 0.18125404E+04</pdfrwt>
<totfact> 0.65994449E+00</totfact>
</mgrwt>
</event>
<event>
12    4  0.4207946E-008  0.1668255E+04  0.7818608E-02  0.8779680E-01
         -2   -1    0    0    0  501 -0.00000000000E+00  0.00000000000E+00  0.32438260114E+03  0.32438260114E+03  0.00000000000E+00 0.  1.
          1   -1    0    0  501    0  0.00000000000E+00 -0.00000000000E+00 -0.21449011099E+04  0.21449011099E+04  0.00000000000E+00 0. -1.
        -24    2    1    2    0    0 -0.49875313783E+03 -0.19540142900E+03 -0.10083550874E+04  0.11446478669E+04  0.80637124077E+02 0.  0.
        254    2    1    2    0    0  0.49875313783E+03  0.19540142900E+03 -0.81216342136E+03  0.13246358442E+04  0.89895177060E+03 0.  0.
         23    2    4    4    0    0  0.52077420707E+03  0.47714222311E+03 -0.71669326474E+03  0.10103332720E+04  0.90849375668E+02 0.  0.
         23    2    4    4    0    0 -0.22021069240E+02 -0.28174079410E+03 -0.95470156618E+02  0.31430257218E+03  0.99039151462E+02 0.  0.
          3    1    3    3  502    0 -0.89461282074E+02 -0.22531157065E+02 -0.11982847459E+03  0.15122776647E+03  0.00000000000E+00 0. -1.
         -4    1    3    3    0  502 -0.40929185576E+03 -0.17287027194E+03 -0.88852661284E+03  0.99342010038E+03  0.00000000000E+00 0.  1.
         11    1    5    5    0    0  0.26609917067E+03  0.19996598593E+03 -0.29141087848E+03  0.44239740535E+03  0.00000000000E+00 0. -1.
        -11    1    5    5    0    0  0.25467503640E+03  0.27717623717E+03 -0.42528238627E+03  0.56793586670E+03  0.00000000000E+00 0.  1.
          1    1    6    6  503    0  0.77801907908E+01 -0.14502717281E+02 -0.35023465670E+02  0.38697588101E+02  0.00000000000E+00 0. -1.
         -1    1    6    6    0  503 -0.29801260031E+02 -0.26723807682E+03 -0.60446690948E+02  0.27560498408E+03  0.00000000000E+00 0.  1.
<mgrwt>
<rscale>  0 0.16682549E+04</rscale>
<asrwt>0</asrwt>
<pdfrwt beam="1">  1        1 0.32998478E+00 0.16682549E+04</pdfrwt>
<pdfrwt beam="2">  1       -2 0.49905017E-01 0.16682549E+04</pdfrwt>
<totfact> 0.75644453E+00</totfact>
</mgrwt>
</event>
<event>
12    4  0.4207946E-008  0.3287641E+04  0.7818608E-02  0.8166047E-01
          1   -1    0    0  501    0  0.00000000000E+00  0.00000000000E+00  0.12836144051E+04  0.12836144051E+04  0.00000000000E+00 0. -1.
         -2   -1    0    0    0  501 -0.00000000000E+00 -0.00000000000E+00 -0.21051077377E+04  0.21051077377E+04  0.00000000000E+00 0.  1.
        -24    2    1    2    0    0 -0.96745336300E+03 -0.70198662144E+03  0.58511377393E+03  0.13344242353E+04  0.97870757022E+02 0.  0.
        254    2    1    2    0    0  0.96745336300E+03  0.70198662144E+03 -0.14066071065E+04  0.20542979074E+04  0.90157923337E+03 0.  0.
         23    2    4    4    0    0  0.10997210584E+04  0.57886945436E+03 -0.99127164652E+03  0.15922211779E+04  0.89847373542E+02 0.  0.
         23    2    4    4    0    0 -0.13226769540E+03  0.12311716708E+03 -0.41533545999E+03  0.46207672956E+03  0.91426361606E+02 0.  0.
          1    1    3    3  502    0 -0.74778840922E+02 -0.31325870589E+02  0.58201208605E+02  0.99802634739E+02  0.00000000000E+00 0. -1.
         -2    1    3    3    0  502 -0.89267452208E+03 -0.67066075085E+03  0.52691256532E+03  0.12346216006E+04  0.00000000000E+00 0.  1.
         11    1    5    5    0    0  0.91573858982E+03  0.48746075290E+03 -0.78343831267E+03  0.12999887462E+04  0.00000000000E+00 0. -1.
        -11    1    5    5    0    0  0.18398246858E+03  0.91408701461E+02 -0.20783333385E+03  0.29223243165E+03  0.00000000000E+00 0.  1.
          3    1    6    6  503    0 -0.11880211866E+03  0.55595019072E+02 -0.30517594271E+03  0.33217029601E+03  0.00000000000E+00 0. -1.
         -3    1    6    6    0  503 -0.13465576736E+02  0.67522148011E+02 -0.11015951728E+03  0.12990643355E+03  0.00000000000E+00 0.  1.
<mgrwt>
<rscale>  0 0.32876415E+04</rscale>
<asrwt>0</asrwt>
<pdfrwt beam="1">  1        1 0.19747914E+00 0.32876415E+04</pdfrwt>
<pdfrwt beam="2">  1       -2 0.32386273E+00 0.32876415E+04</pdfrwt>
<totfact> 0.15352623E-01</totfact>
</mgrwt>
</event>
<event>
12    4  0.4207946E-008  0.1193686E+04  0.7818608E-02  0.9118402E-01
         -2   -1    0    0    0  501 -0.00000000000E+00  0.00000000000E+00  0.33287943094E+03  0.33287943094E+03  0.00000000000E+00 0.  1.
          1   -1    0    0  501    0  0.00000000000E+00 -0.00000000000E+00 -0.10701211707E+04  0.10701211707E+04  0.00000000000E+00 0. -1.
        -24    2    1    2    0    0 -0.18615259111E+03 -0.15785356345E+03 -0.22513277984E+03  0.34110876131E+03  0.78101752969E+02 0.  0.
        254    2    1    2    0    0  0.18615259111E+03  0.15785356345E+03 -0.51210895989E+03  0.10618918403E+04  0.89765703863E+03 0.  0.
         23    2    4    4    0    0 -0.32554519612E+03  0.11669753128E+03 -0.38454196466E+03  0.52518174913E+03  0.91352933796E+02 0.  0.
         23    2    4    4    0    0  0.51169778723E+03  0.41156032168E+02 -0.12756699523E+03  0.53671009116E+03  0.90862199177E+02 0.  0.
          1    1    3    3  502    0 -0.11002968009E+03 -0.91153300484E+02 -0.18124388743E+03  0.23079168404E+03  0.00000000000E+00 0. -1.
         -2    1    3    3    0  502 -0.76122911019E+02 -0.66700262966E+02 -0.43888892403E+02  0.11031707727E+03  0.00000000000E+00 0.  1.
         11    1    5    5    0    0 -0.13110228878E+03  0.53185266950E+01 -0.11336741284E+03  0.17340203904E+03  0.00000000000E+00 0.  1.
        -11    1    5    5    0    0 -0.19444290734E+03  0.11137900459E+03 -0.27117455181E+03  0.35177971009E+03  0.00000000000E+00 0. -1.
          2    1    6    6  503    0  0.13393153253E+03 -0.14178431763E+02 -0.16674074974E+01  0.13469025050E+03  0.00000000000E+00 0. -1.
         -2    1    6    6    0  503  0.37776625470E+03  0.55334463932E+02 -0.12589958773E+03  0.40201984066E+03  0.00000000000E+00 0.  1.
<mgrwt>
<rscale>  0 0.11936856E+04</rscale>
<asrwt>0</asrwt>
<pdfrwt beam="1">  1        1 0.16463403E+00 0.11936856E+04</pdfrwt>
<pdfrwt beam="2">  1       -2 0.51212221E-01 0.11936856E+04</pdfrwt>
<totfact> 0.41780047E+01</totfact>
</mgrwt>
</event>
<event>
12    4  0.4207946E-008  0.1250974E+04  0.7818608E-02  0.9069373E-01
          1   -1    0    0  501    0  0.00000000000E+00  0.00000000000E+00  0.13548619048E+03  0.13548619048E+03  0.00000000000E+00 0. -1.
         -2   -1    0    0    0  501 -0.00000000000E+00 -0.00000000000E+00 -0.28876292661E+04  0.28876292661E+04  0.00000000000E+00 0.  1.
        -24    2    1    2    0    0  0.26468449995E+02  0.59637908661E+02 -0.13753646573E+04  0.13782806702E+04  0.61419917032E+02 0.  0.
        254    2    1    2    0    0 -0.26468449995E+02 -0.59637908661E+02 -0.13767784182E+04  0.16448347863E+04  0.89761094158E+03 0.  0.
         23    2    4    4    0    0 -0.21434263978E+03 -0.32455277512E+03 -0.25603021342E+03  0.47425161466E+03  0.89921369847E+02 0.  0.
         23    2    4    4    0    0  0.18787418979E+03  0.26491486646E+03 -0.11207482048E+04  0.11705831717E+04  0.93337160693E+02 0.  0.
          3    1    3    3  502    0  0.26863635804E+02  0.65795271114E+02 -0.87605612206E+03  0.87893401438E+03  0.00000000000E+00 0. -1.
         -4    1    3    3    0  502 -0.39518580855E+00 -0.61573624531E+01 -0.49930853528E+03  0.49934665583E+03  0.00000000000E+00 0.  1.
         11    1    5    5    0    0 -0.73485691948E+02 -0.11828792356E+03 -0.42360094494E+02  0.14555602834E+03  0.00000000000E+00 0. -1.
        -11    1    5    5    0    0 -0.14085694783E+03 -0.20626485157E+03 -0.21367011893E+03  0.32869558632E+03  0.00000000000E+00 0.  1.
          1    1    6    6  503    0  0.19646296716E+03  0.26427593075E+03 -0.10930447161E+04  0.11415718183E+04  0.00000000000E+00 0. -1.
         -1    1    6    6    0  503 -0.85887773707E+01  0.63893570913E+00 -0.27703488759E+02  0.29011353380E+02  0.00000000000E+00 0.  1.
<mgrwt>
<rscale>  0 0.12509738E+04</rscale>
<asrwt>0</asrwt>
<pdfrwt beam="1">  1        1 0.20844028E-01 0.12509738E+04</pdfrwt>
<pdfrwt beam="2">  1       -2 0.44425069E+00 0.12509738E+04</pdfrwt>
<totfact> 0.82224487E-01</totfact>
</mgrwt>
</event>
<event>
12    4  0.4207946E-008  0.1686492E+04  0.7818608E-02  0.8769106E-01
         -2   -1    0    0    0  501 -0.00000000000E+00  0.00000000000E+00  0.74437661122E+03  0.74437661122E+03  0.00000000000E+00 0.  1.
          1   -1    0    0  501    0  0.00000000000E+00 -0.00000000000E+00 -0.95524789311E+03  0.95524789311E+03  0.00000000000E+00 0. -1.
        -24    2    1    2    0    0 -0.16083749366E+03 -0.36750861355E+03  0.34188023456E+03  0.53321019357E+03  0.80620936144E+02 0.  0.
        254    2    1    2    0    0  0.16083749366E+03  0.36750861355E+03 -0.55275151646E+03  0.11664143108E+04  0.94554578155E+03 0.  0.
         23    2    4    4    0    0  0.32568454722E+03 -0.78237476457E+01  0.13201319302E+03  0.36302796184E+03  0.90720353961E+02 0.  0.
         23    2    4    4    0    0 -0.16484705356E+03  0.37533236119E+03 -0.68476470948E+03  0.80338634891E+03  0.92075978688E+02 0.  0.
          1    1    3    3  502    0 -0.77097577072E+00 -0.76419878949E+02  0.53314354382E+02  0.93182684472E+02  0.00000000000E+00 0. -1.
         -2    1    3    3    0  502 -0.16006651789E+03 -0.29108873460E+03  0.28856588018E+03  0.44002750910E+03  0.00000000000E+00 0.  1.
         11    1    5    5    0    0  0.71216911836E+01  0.13045174889E+02  0.19537606448E+02  0.24548179951E+02  0.00000000000E+00 0. -1.
        -11    1    5    5    0    0  0.31856285604E+03 -0.20868922535E+02  0.11247558657E+03  0.33847978189E+03  0.00000000000E+00 0.  1.
          1    1    6    6  503    0  0.23069317780E+01 -0.44963788497E+01 -0.10483065538E+02  0.11637612301E+02  0.00000000000E+00 0. -1.
         -1    1    6    6    0  503 -0.16715398534E+03  0.37982874004E+03 -0.67428164394E+03  0.79174873661E+03  0.00000000000E+00 0.  1.
<mgrwt>
<rscale>  0 0.16864924E+04</rscale>
<asrwt>0</asrwt>
<pdfrwt beam="1">  1        1 0.14696121E+00 0.16864924E+04</pdfrwt>
<pdfrwt beam="2">  1       -2 0.11451948E+00 0.16864924E+04</pdfrwt>
<totfact> 0.81653596E+00</totfact>
</mgrwt>
</event>
<event>
12    4  0.4207946E-008  0.1153390E+04  0.7818608E-02  0.9154662E-01
         -2   -1    0    0    0  501 -0.00000000000E+00  0.00000000000E+00  0.12110582771E+03  0.12110582771E+03  0.00000000000E+00 0.  1.
          1   -1    0    0  501    0  0.00000000000E+00 -0.00000000000E+00 -0.27461680622E+04  0.27461680622E+04  0.00000000000E+00 0. -1.
        -24    2    1    2    0    0  0.18065689684E+02  0.17514194945E+03 -0.84735927729E+03  0.86917708654E+03  0.80311838270E+02 0.  0.
        254    2    1    2    0    0 -0.18065689684E+02 -0.17514194945E+03 -0.17777029572E+04  0.19980968034E+04  0.89507651069E+03 0.  0.
         23    2    4    4    0    0 -0.62492968432E+02 -0.48523804949E+03 -0.14620221462E+04  0.15439577615E+04  0.83279513655E+02 0.  0.
         23    2    4    4    0    0  0.44427278748E+02  0.31009610004E+03 -0.31568081095E+03  0.45413904187E+03  0.91948467059E+02 0.  0.
          3    1    3    3  502    0  0.40337653805E+00 -0.72836218621E+01 -0.12827746899E+02  0.14756861136E+02  0.00000000000E+00 0. -1.
         -4    1    3    3    0  502  0.17662313146E+02  0.18242557132E+03 -0.83453153039E+03  0.85442022541E+03  0.00000000000E+00 0.  1.
         11    1    5    5    0    0 -0.55772031495E+02 -0.47999200858E+03 -0.14542119908E+04  0.15323953021E+04  0.00000000000E+00 0. -1.
        -11    1    5    5    0    0 -0.67209369369E+01 -0.52460409068E+01 -0.78101554425E+01  0.11562459364E+02  0.00000000000E+00 0.  1.
          1    1    6    6  503    0  0.65041357720E+02  0.29092380754E+03 -0.29295889800E+03  0.41796166801E+03  0.00000000000E+00 0. -1.
         -1    1    6    6    0  503 -0.20614078972E+02  0.19172292493E+02 -0.22721912957E+02  0.36177373864E+02  0.00000000000E+00 0.  1.
<mgrwt>
<rscale>  0 0.11533897E+04</rscale>
<asrwt>0</asrwt>
<pdfrwt beam="1">  1        1 0.42248739E+00 0.11533897E+04</pdfrwt>
<pdfrwt beam="2">  1       -2 0.18631666E-01 0.11533897E+04</pdfrwt>
<totfact> 0.19410356E+01</totfact>
</mgrwt>
</event>
<event>
12    4  0.4207946E-008  0.1457931E+04  0.7818608E-02  0.8912921E-01
          1   -1    0    0  501    0  0.00000000000E+00  0.00000000000E+00  0.23785262365E+04  0.23785262365E+04  0.00000000000E+00 0. -1.
         -2   -1    0    0    0  501 -0.00000000000E+00 -0.00000000000E+00 -0.22341170715E+03  0.22341170715E+03  0.00000000000E+00 0.  1.
        -24    2    1    2    0    0  0.42467861705E+03 -0.95128382099E+02  0.82119210259E+03  0.93234653570E+03  0.74244571583E+02 0.  0.
        254    2    1    2    0    0 -0.42467861705E+03  0.95128382099E+02  0.13339224268E+04  0.16695914080E+04  0.90486744446E+03 0.  0.
         23    2    4    4    0    0 -0.23113870401E+03 -0.10411715255E+03  0.13500855860E+04  0.13767200601E+04  0.91441524221E+02 0.  0.
         23    2    4    4    0    0 -0.19353991304E+03  0.19924553465E+03 -0.16163159253E+02  0.29287134786E+03  0.91410599292E+02 0.  0.
          1    1    3    3  502    0  0.36020007356E+03 -0.73102702470E+02  0.62998887242E+03  0.72936553077E+03  0.00000000000E+00 0. -1.
         -2    1    3    3    0  502  0.64478543487E+02 -0.22025679630E+02  0.19120323017E+03  0.20298100493E+03  0.00000000000E+00 0.  1.
         11    1    5    5    0    0 -0.20674997613E+03 -0.12124647033E+03  0.12047122528E+04  0.12283231950E+04  0.00000000000E+00 0.  1.
        -11    1    5    5    0    0 -0.24388727874E+02  0.17129317783E+02  0.14537333323E+03  0.14839686516E+03  0.00000000000E+00 0. -1.
          1    1    6    6  503    0 -0.36974107668E+02  0.78554633391E+02 -0.36422365113E+02  0.94151493591E+02  0.00000000000E+00 0. -1.
         -1    1    6    6    0  503 -0.15656580537E+03  0.12069090126E+03  0.20259205859E+02  0.19871985427E+03  0.00000000000E+00 0.  1.
<mgrwt>
<rscale>  0 0.14579309E+04</rscale>
<asrwt>0</asrwt>
<pdfrwt beam="1">  1        1 0.36592710E+00 0.14579309E+04</pdfrwt>
<pdfrwt beam="2">  1       -2 0.34371034E-01 0.14579309E+04</pdfrwt>
<totfact> 0.11136052E+01</totfact>
</mgrwt>
</event>
<event>
12    4  0.4207946E-008  0.2049521E+04  0.7818608E-02  0.8583812E-01
          1   -1    0    0  501    0  0.00000000000E+00  0.00000000000E+00  0.10414667271E+04  0.10414667271E+04  0.00000000000E+00 0. -1.
         -2   -1    0    0    0  501 -0.00000000000E+00 -0.00000000000E+00 -0.10083220197E+04  0.10083220197E+04  0.00000000000E+00 0.  1.
        -24    2    1    2    0    0  0.39818579997E+03  0.26669595835E+03  0.69410838257E+03  0.84694574001E+03  0.76498197872E+02 0.  0.
        254    2    1    2    0    0 -0.39818579997E+03 -0.26669595835E+03 -0.66096367517E+03  0.12028430067E+04  0.88333439499E+03 0.  0.
         23    2    4    4    0    0  0.20988577815E+03 -0.24557726666E+03 -0.43273352240E+03  0.54793104933E+03  0.92789544879E+02 0.  0.
         23    2    4    4    0    0 -0.60807157812E+03 -0.21118691687E+02 -0.22823015278E+03  0.65491195738E+03  0.81385662284E+02 0.  0.
          3    1    3    3  502    0  0.40112381921E+03  0.26027804456E+03  0.68195009148E+03  0.83288709084E+03  0.00000000000E+00 0. -1.
         -4    1    3    3    0  502 -0.29380192376E+01  0.64179137873E+01  0.12158291087E+02  0.14058649173E+02  0.00000000000E+00 0.  1.
         11    1    5    5    0    0  0.31268233645E+02 -0.52811235162E+01 -0.18159241145E+02  0.36542451202E+02  0.00000000000E+00 0.  1.
        -11    1    5    5    0    0  0.17861754450E+03 -0.24029614314E+03 -0.41457428125E+03  0.51138859812E+03  0.00000000000E+00 0. -1.
          3    1    6    6  503    0 -0.58481382030E+03 -0.84500635900E+01 -0.20523768257E+03  0.61983958759E+03  0.00000000000E+00 0. -1.
         -3    1    6    6    0  503 -0.23257757812E+02 -0.12668628097E+02 -0.22992470210E+02  0.35072369789E+02  0.00000000000E+00 0.  1.
<mgrwt>
<rscale>  0 0.20495208E+04</rscale>
<asrwt>0</asrwt>
<pdfrwt beam="1">  1        1 0.16022565E+00 0.20495208E+04</pdfrwt>
<pdfrwt beam="2">  1       -2 0.15512646E+00 0.20495208E+04</pdfrwt>
<totfact> 0.31167120E+00</totfact>
</mgrwt>
</event>
<event>
12    4  0.4207946E-008  0.1697212E+04  0.7818608E-02  0.8762956E-01
         -2   -1    0    0    0  501 -0.00000000000E+00  0.00000000000E+00  0.50680901749E+03  0.50680901749E+03  0.00000000000E+00 0.  1.
          1   -1    0    0  501    0  0.00000000000E+00 -0.00000000000E+00 -0.14209145517E+04  0.14209145517E+04  0.00000000000E+00 0. -1.
        -24    2    1    2    0    0 -0.40354497270E+02  0.39908269449E+03 -0.85084053800E+03  0.94410102155E+03  0.80632718513E+02 0.  0.
        254    2    1    2    0    0  0.40354497270E+02 -0.39908269449E+03 -0.63264996199E+02  0.98362254763E+03  0.89588803651E+03 0.  0.
         23    2    4    4    0    0  0.31968133465E+03 -0.48584892729E+03 -0.23321175502E+03  0.63324586719E+03  0.91472781530E+02 0.  0.
         23    2    4    4    0    0 -0.27932683738E+03  0.86766232801E+02  0.16994675882E+03  0.35037668044E+03  0.91269141169E+02 0.  0.
          1    1    3    3  502    0 -0.22580096774E+02  0.11045324744E+03 -0.32490518168E+03  0.34390864735E+03  0.00000000000E+00 0. -1.
         -2    1    3    3    0  502 -0.17774400496E+02  0.28862944705E+03 -0.52593535632E+03  0.60019237420E+03  0.00000000000E+00 0.  1.
         11    1    5    5    0    0  0.26787441484E+03 -0.37342482850E+03 -0.21759337237E+03  0.50847780714E+03  0.00000000000E+00 0.  1.
        -11    1    5    5    0    0  0.51806919809E+02 -0.11242409880E+03 -0.15618382651E+02  0.12476806004E+03  0.00000000000E+00 0. -1.
          3    1    6    6  503    0  0.54805396668E+01  0.76891789810E+01  0.11910361497E+02  0.15199226936E+02  0.00000000000E+00 0. -1.
         -3    1    6    6    0  503 -0.28480737704E+03  0.79077053820E+02  0.15803639732E+03  0.33517745350E+03  0.00000000000E+00 0.  1.
<mgrwt>
<rscale>  0 0.16972122E+04</rscale>
<asrwt>0</asrwt>
<pdfrwt beam="1">  1        1 0.21860224E+00 0.16972122E+04</pdfrwt>
<pdfrwt beam="2">  1       -2 0.77970619E-01 0.16972122E+04</pdfrwt>
<totfact> 0.90835981E+00</totfact>
</mgrwt>
</event>
<event>
12    4  0.4207946E-008  0.2224015E+04  0.7818608E-02  0.8508499E-01
          1   -1    0    0  501    0  0.00000000000E+00  0.00000000000E+00  0.24302231632E+04  0.24302231632E+04  0.00000000000E+00 0. -1.
         -2   -1    0    0    0  501 -0.00000000000E+00 -0.00000000000E+00 -0.50882595870E+03  0.50882595870E+03  0.00000000000E+00 0.  1.
        -24    2    1    2    0    0 -0.72415045059E+03  0.54565271353E+03  0.54961839663E+03  0.10634369586E+04  0.81774226837E+02 0.  0.
        254    2    1    2    0    0  0.72415045059E+03 -0.54565271353E+03  0.13717788079E+04  0.18756121633E+04  0.90222676221E+03 0.  0.
         23    2    4    4    0    0 -0.16133729337E+03 -0.28431546760E+03  0.25871120989E+03  0.42654321201E+03  0.90236435197E+02 0.  0.
         23    2    4    4    0    0  0.88548774396E+03 -0.26133724592E+03  0.11130675980E+04  0.14490689513E+04  0.92171834305E+02 0.  0.
          3    1    3    3  502    0 -0.13556153570E+02  0.25806324733E+02  0.25955792251E+02  0.39031254748E+02  0.00000000000E+00 0. -1.
         -4    1    3    3    0  502 -0.71059429702E+03  0.51984638880E+03  0.52366260437E+03  0.10244057039E+04  0.00000000000E+00 0.  1.
         11    1    5    5    0    0 -0.18817372015E+02 -0.63318654881E+02  0.98556587560E+02  0.11864546556E+03  0.00000000000E+00 0. -1.
        -11    1    5    5    0    0 -0.14251992136E+03 -0.22099681272E+03  0.16015462233E+03  0.30789774645E+03  0.00000000000E+00 0.  1.
          3    1    6    6  503    0  0.58651423965E+03 -0.21738012320E+03  0.76252151241E+03  0.98625155420E+03  0.00000000000E+00 0. -1.
         -3    1    6    6    0  503  0.29897350431E+03 -0.43957122720E+02  0.35054608559E+03  0.46281739708E+03  0.00000000000E+00 0.  1.
<mgrwt>
<rscale>  0 0.22240150E+04</rscale>
<asrwt>0</asrwt>
<pdfrwt beam="1">  1        1 0.37388048E+00 0.22240150E+04</pdfrwt>
<pdfrwt beam="2">  1       -2 0.78280918E-01 0.22240150E+04</pdfrwt>
<totfact> 0.17569965E+00</totfact>
</mgrwt>
</event>
<event>
12    4  0.4207946E-008  0.1384604E+04  0.7818608E-02  0.8965039E-01
          1   -1    0    0  501    0  0.00000000000E+00  0.00000000000E+00  0.73933216316E+03  0.73933216316E+03  0.00000000000E+00 0. -1.
         -2   -1    0    0    0  501 -0.00000000000E+00 -0.00000000000E+00 -0.64826381512E+03  0.64826381512E+03  0.00000000000E+00 0.  1.
        -24    2    1    2    0    0 -0.68866281403E+02 -0.15631925813E+03  0.36346792620E+03  0.40977859295E+03  0.81432712655E+02 0.  0.
        254    2    1    2    0    0  0.68866281403E+02  0.15631925813E+03 -0.27239957815E+03  0.97781738533E+03  0.92344303219E+03 0.  0.
         23    2    4    4    0    0 -0.82369599520E+02 -0.16860595259E+03 -0.50060732422E+03  0.54239148825E+03  0.91477403190E+02 0.  0.
         23    2    4    4    0    0  0.15123588092E+03  0.32492521071E+03  0.22820774607E+03  0.43542589708E+03  0.95227371310E+02 0.  0.
          1    1    3    3  502    0 -0.29632647250E+02 -0.31657339270E+02  0.17593131820E+03  0.18119632898E+03  0.00000000000E+00 0. -1.
         -2    1    3    3    0  502 -0.39233634153E+02 -0.12466191886E+03  0.18753660799E+03  0.22858226397E+03  0.00000000000E+00 0.  1.
         11    1    5    5    0    0 -0.39869447380E+02 -0.15869721708E+03 -0.41962307230E+03  0.45039749372E+03  0.00000000000E+00 0. -1.
        -11    1    5    5    0    0 -0.42500152141E+02 -0.99087355115E+01 -0.80984251921E+02  0.91993994536E+02  0.00000000000E+00 0.  1.
          3    1    6    6  503    0  0.59948806134E+02  0.20616863921E+03  0.17319585110E+03  0.27585534251E+03  0.00000000000E+00 0. -1.
         -3    1    6    6    0  503  0.91287074790E+02  0.11875657150E+03  0.55011894965E+02  0.15957055457E+03  0.00000000000E+00 0.  1.
<mgrwt>
<rscale>  0 0.13846043E+04</rscale>
<asrwt>0</asrwt>
<pdfrwt beam="1">  1        1 0.11374341E+00 0.13846043E+04</pdfrwt>
<pdfrwt beam="2">  1       -2 0.99732894E-01 0.13846043E+04</pdfrwt>
<totfact> 0.17801473E+01</totfact>
</mgrwt>
</event>
<event>
12    4  0.4207946E-008  0.1774802E+04  0.7818608E-02  0.8719816E-01
         -4   -1    0    0    0  501 -0.00000000000E+00  0.00000000000E+00  0.73971305707E+03  0.73971305707E+03  0.00000000000E+00 0.  1.
          3   -1    0    0  501    0  0.00000000000E+00 -0.00000000000E+00 -0.10645753495E+04  0.10645753495E+04  0.00000000000E+00 0. -1.
        -24    2    1    2    0    0 -0.47815823053E+03 -0.16290437371E+03 -0.52203540957E+03  0.73092914753E+03  0.81014328757E+02 0.  0.
        254    2    1    2    0    0  0.47815823053E+03  0.16290437371E+03  0.19717311711E+03  0.10733592591E+04  0.92630973896E+03 0.  0.
         23    2    4    4    0    0 -0.11574816229E+03  0.35846295009E+03  0.21075131397E+03  0.44107156416E+03  0.90745163567E+02 0.  0.
         23    2    4    4    0    0  0.59390639283E+03 -0.19555857638E+03 -0.13578196858E+02  0.63228769490E+03  0.92926860778E+02 0.  0.
          1    1    3    3  502    0 -0.38572876113E+03 -0.15384567158E+03 -0.45730751585E+03  0.61772593589E+03  0.00000000000E+00 0. -1.
         -2    1    3    3    0  502 -0.92429469408E+02 -0.90587021261E+01 -0.64727893721E+02  0.11320321164E+03  0.00000000000E+00 0.  1.
         11    1    5    5    0    0 -0.46436960707E+01  0.12603830981E+03  0.98654589609E+02  0.16012478729E+03  0.00000000000E+00 0. -1.
        -11    1    5    5    0    0 -0.11110446622E+03  0.23242464028E+03  0.11209672436E+03  0.28094677688E+03  0.00000000000E+00 0.  1.
          4    1    6    6  503    0  0.11320481342E+03 -0.59312495687E+02  0.28303998057E+02  0.13089850355E+03  0.00000000000E+00 0. -1.
         -4    1    6    6    0  503  0.48070157941E+03 -0.13624608070E+03 -0.41882194915E+02  0.50138919135E+03  0.00000000000E+00 0.  1.
<mgrwt>
<rscale>  0 0.17748017E+04</rscale>
<asrwt>0</asrwt>
<pdfrwt beam="1">  1        3 0.16378082E+00 0.17748017E+04</pdfrwt>
<pdfrwt beam="2">  1       -4 0.11380201E+00 0.17748017E+04</pdfrwt>
<totfact> 0.33567154E-01</totfact>
</mgrwt>
</event>
<event>
12    4  0.4207946E-008  0.2164676E+04  0.7818608E-02  0.8533276E-01
         -2   -1    0    0    0  501 -0.00000000000E+00  0.00000000000E+00  0.87644528387E+03  0.87644528387E+03  0.00000000000E+00 0.  1.
          1   -1    0    0  501    0  0.00000000000E+00 -0.00000000000E+00 -0.13365980613E+04  0.13365980613E+04  0.00000000000E+00 0. -1.
        -24    2    1    2    0    0  0.55492805780E+03 -0.66713057309E+03 -0.42031304688E+03  0.96741864074E+03  0.78913992407E+02 0.  0.
        254    2    1    2    0    0 -0.55492805780E+03  0.66713057309E+03 -0.39839730511E+02  0.12456247044E+04  0.89274035933E+03 0.  0.
         23    2    4    4    0    0 -0.51769964124E+03  0.86803872941E+03  0.72951086319E+01  0.10146385359E+04  0.89072923506E+02 0.  0.
         23    2    4    4    0    0 -0.37228416555E+02 -0.20090815632E+03 -0.47134839143E+02  0.23098616845E+03  0.96865239776E+02 0.  0.
          3    1    3    3  502    0  0.35323164318E+03 -0.45719083955E+03 -0.31340113600E+03  0.65727949120E+03  0.00000000000E+00 0. -1.
         -4    1    3    3    0  502  0.20169641462E+03 -0.20993973353E+03 -0.10691191088E+03  0.31013914953E+03  0.00000000000E+00 0.  1.
         11    1    5    5    0    0 -0.22402819244E+02  0.86410369808E+02  0.25698770250E+00  0.89267599739E+02  0.00000000000E+00 0. -1.
        -11    1    5    5    0    0 -0.49529682200E+03  0.78162835960E+03  0.70381209294E+01  0.92537093620E+03  0.00000000000E+00 0.  1.
          1    1    6    6  503    0 -0.86453324231E+01 -0.13242636316E+02 -0.37745071658E+02  0.40924315801E+02  0.00000000000E+00 0. -1.
         -1    1    6    6    0  503 -0.28583084132E+02 -0.18766552001E+03 -0.93897674848E+01  0.19006185265E+03  0.00000000000E+00 0.  1.
<mgrwt>
<rscale>  0 0.21646756E+04</rscale>
<asrwt>0</asrwt>
<pdfrwt beam="1">  1        1 0.20563047E+00 0.21646756E+04</pdfrwt>
<pdfrwt beam="2">  1       -2 0.13483774E+00 0.21646756E+04</pdfrwt>
<totfact> 0.27053948E+00</totfact>
</mgrwt>
</event>
<event>
12    4  0.4207946E-008  0.1164200E+04  0.7818608E-02  0.9144783E-01
         -2   -1    0    0    0  501 -0.00000000000E+00  0.00000000000E+00  0.41915198788E+03  0.41915198788E+03  0.00000000000E+00 0.  1.
          1   -1    0    0  501    0  0.00000000000E+00 -0.00000000000E+00 -0.80839441480E+03  0.80839441480E+03  0.00000000000E+00 0. -1.
        -24    2    1    2    0    0 -0.15950485391E+03 -0.76863164752E+02  0.53271563547E+02  0.21188827074E+03  0.10348446878E+03 0.  0.
        254    2    1    2    0    0  0.15950485391E+03  0.76863164752E+02 -0.44251399047E+03  0.10156581319E+04  0.89687962665E+03 0.  0.
         23    2    4    4    0    0 -0.28149953692E+03 -0.22569509730E+03 -0.16659553020E+03  0.40806742741E+03  0.92653593542E+02 0.  0.
         23    2    4    4    0    0  0.44100439083E+03  0.30255826206E+03 -0.27591846027E+03  0.60759070453E+03  0.83720325132E+02 0.  0.
          1    1    3    3  502    0 -0.60789143427E+02 -0.71926590545E+02 -0.97333566751E+01  0.94675723489E+02  0.00000000000E+00 0. -1.
         -2    1    3    3    0  502 -0.98715710484E+02 -0.49365742064E+01  0.63004920222E+02  0.11721254725E+03  0.00000000000E+00 0.  1.
         11    1    5    5    0    0 -0.64847080311E+02 -0.13247333831E+02 -0.11098522775E+02  0.67110452884E+02  0.00000000000E+00 0. -1.
        -11    1    5    5    0    0 -0.21665245661E+03 -0.21244776347E+03 -0.15549700742E+03  0.34095697453E+03  0.00000000000E+00 0.  1.
          4    1    6    6  503    0  0.12419966505E+03  0.11143119910E+03 -0.12274703586E+03  0.20714561001E+03  0.00000000000E+00 0. -1.
         -4    1    6    6    0  503  0.31680472579E+03  0.19112706295E+03 -0.15317142441E+03  0.40044509452E+03  0.00000000000E+00 0.  1.
<mgrwt>
<rscale>  0 0.11641995E+04</rscale>
<asrwt>0</asrwt>
<pdfrwt beam="1">  1        1 0.12436837E+00 0.11641995E+04</pdfrwt>
<pdfrwt beam="2">  1       -2 0.64484922E-01 0.11641995E+04</pdfrwt>
<totfact> 0.41981792E+01</totfact>
</mgrwt>
</event>
<event>
12    4  0.4207946E-008  0.1226382E+04  0.7818608E-02  0.9090073E-01
         -2   -1    0    0    0  501 -0.00000000000E+00  0.00000000000E+00  0.15064217268E+03  0.15064217268E+03  0.00000000000E+00 0.  1.
          1   -1    0    0  501    0  0.00000000000E+00 -0.00000000000E+00 -0.24960006031E+04  0.24960006031E+04  0.00000000000E+00 0. -1.
        -24    2    1    2    0    0  0.26632293001E+03  0.10820097295E+03 -0.87003406569E+03  0.91964097566E+03  0.78389380940E+02 0.  0.
        254    2    1    2    0    0 -0.26632293001E+03 -0.10820097295E+03 -0.14753243647E+04  0.17270018001E+04  0.85048097149E+03 0.  0.
         23    2    4    4    0    0 -0.14497531813E+03 -0.19444796969E+03 -0.19252587405E+02  0.26037184284E+03  0.92709107635E+02 0.  0.
         23    2    4    4    0    0 -0.12134761188E+03  0.86246996739E+02 -0.14560717773E+04  0.14666299573E+04  0.93244965239E+02 0.  0.
          3    1    3    3  502    0  0.23728483658E+03  0.81792046454E+02 -0.80931543416E+03  0.84734025309E+03  0.00000000000E+00 0. -1.
         -4    1    3    3    0  502  0.29038093426E+02  0.26408926497E+02 -0.60718631532E+02  0.72300722566E+02  0.00000000000E+00 0.  1.
         11    1    5    5    0    0 -0.33480226563E+02 -0.44639349674E+02 -0.45229808301E+02  0.71828494826E+02  0.00000000000E+00 0. -1.
        -11    1    5    5    0    0 -0.11149509157E+03 -0.14980862002E+03  0.25977220896E+02  0.18854334801E+03  0.00000000000E+00 0.  1.
          3    1    6    6  503    0 -0.94335366859E+02  0.88199369849E+02 -0.83131669005E+03  0.84128813699E+03  0.00000000000E+00 0. -1.
         -3    1    6    6    0  503 -0.27012245019E+02 -0.19523731098E+01 -0.62475508725E+03  0.62534182028E+03  0.00000000000E+00 0.  1.
<mgrwt>
<rscale>  0 0.12263816E+04</rscale>
<asrwt>0</asrwt>
<pdfrwt beam="1">  1        1 0.38400011E+00 0.12263816E+04</pdfrwt>
<pdfrwt beam="2">  1       -2 0.23175718E-01 0.12263816E+04</pdfrwt>
<totfact> 0.19564554E+01</totfact>
</mgrwt>
</event>
<event>
12    4  0.4207946E-008  0.1693927E+04  0.7818608E-02  0.8764835E-01
         -2   -1    0    0    0  501 -0.00000000000E+00  0.00000000000E+00  0.63719555270E+03  0.63719555270E+03  0.00000000000E+00 0.  1.
          1   -1    0    0  501    0  0.00000000000E+00 -0.00000000000E+00 -0.11257885107E+04  0.11257885107E+04  0.00000000000E+00 0. -1.
        -24    2    1    2    0    0 -0.33622612775E+03 -0.18854778917E+03 -0.66108327509E+03  0.76939504932E+03  0.79620145317E+02 0.  0.
        254    2    1    2    0    0  0.33622612775E+03  0.18854778917E+03  0.17249031709E+03  0.99358901409E+03  0.89937085879E+03 0.  0.
         23    2    4    4    0    0  0.28600560870E+03 -0.29533096296E+03 -0.94096486665E+02  0.43167199018E+03  0.92016153013E+02 0.  0.
         23    2    4    4    0    0  0.50220519050E+02  0.48387875212E+03  0.26658680376E+03  0.56191702391E+03  0.89562662592E+02 0.  0.
          1    1    3    3  502    0 -0.31661308751E+03 -0.18267354220E+03 -0.65093227219E+03  0.74654289440E+03  0.00000000000E+00 0. -1.
         -2    1    3    3    0  502 -0.19613040234E+02 -0.58742469654E+01 -0.10151002899E+02  0.22852154920E+02  0.00000000000E+00 0.  1.
         11    1    5    5    0    0  0.27971427765E+03 -0.25004127748E+03 -0.78049393703E+02  0.38321328973E+03  0.00000000000E+00 0. -1.
        -11    1    5    5    0    0  0.62913310441E+01 -0.45289685477E+02 -0.16047092961E+02  0.48458700451E+02  0.00000000000E+00 0.  1.
          3    1    6    6  503    0 -0.19834893240E+02  0.15998645957E+03  0.11168227118E+03  0.19611736264E+03  0.00000000000E+00 0. -1.
         -3    1    6    6    0  503  0.70055412290E+02  0.32389229255E+03  0.15490453258E+03  0.36579966127E+03  0.00000000000E+00 0.  1.
<mgrwt>
<rscale>  0 0.16939273E+04</rscale>
<asrwt>0</asrwt>
<pdfrwt beam="1">  1        1 0.17319823E+00 0.16939273E+04</pdfrwt>
<pdfrwt beam="2">  1       -2 0.98030086E-01 0.16939273E+04</pdfrwt>
<totfact> 0.87654970E+00</totfact>
</mgrwt>
</event>
<event>
12    4  0.4207946E-008  0.2509336E+04  0.7818608E-02  0.8399667E-01
          1   -1    0    0  501    0  0.00000000000E+00  0.00000000000E+00  0.14295209511E+04  0.14295209511E+04  0.00000000000E+00 0. -1.
         -2   -1    0    0    0  501 -0.00000000000E+00 -0.00000000000E+00 -0.11012020478E+04  0.11012020478E+04  0.00000000000E+00 0.  1.
        -24    2    1    2    0    0  0.22760705233E+02  0.10751264960E+04  0.31309756728E+03  0.11229367099E+04  0.80880997682E+02 0.  0.
        254    2    1    2    0    0 -0.22760705233E+02 -0.10751264960E+04  0.15221336007E+02  0.14077862889E+04  0.90841373505E+03 0.  0.
         23    2    4    4    0    0  0.30522773906E+01 -0.87685405173E+03 -0.37716473319E+03  0.95814500860E+03  0.83104013765E+02 0.  0.
         23    2    4    4    0    0 -0.25812982623E+02 -0.19827244427E+03  0.39238606920E+03  0.44964128030E+03  0.90731369539E+02 0.  0.
          1    1    3    3  502    0  0.46648750641E+02  0.63548485625E+03  0.16231250302E+03  0.65754274166E+03  0.00000000000E+00 0. -1.
         -2    1    3    3    0  502 -0.23888045408E+02  0.43964163974E+03  0.15078506426E+03  0.46539396828E+03  0.00000000000E+00 0.  1.
         11    1    5    5    0    0 -0.36080694904E+02 -0.30192419116E+03 -0.14499619292E+03  0.33687375932E+03  0.00000000000E+00 0.  1.
        -11    1    5    5    0    0  0.39132972294E+02 -0.57492986057E+03 -0.23216854027E+03  0.62127124928E+03  0.00000000000E+00 0. -1.
          2    1    6    6  503    0 -0.12747548836E+02 -0.14854139458E+03  0.19382441888E+03  0.24453006208E+03  0.00000000000E+00 0.  1.
         -2    1    6    6    0  503 -0.13065433788E+02 -0.49731049691E+02  0.19856165032E+03  0.20511121822E+03  0.00000000000E+00 0. -1.
<mgrwt>
<rscale>  0 0.25093357E+04</rscale>
<asrwt>0</asrwt>
<pdfrwt beam="1">  1        1 0.21992630E+00 0.25093357E+04</pdfrwt>
<pdfrwt beam="2">  1       -2 0.16941570E+00 0.25093357E+04</pdfrwt>
<totfact> 0.12284772E+00</totfact>
</mgrwt>
</event>
<event>
12    4  0.4207946E-008  0.3945807E+04  0.7818608E-02  0.8015569E-01
         -2   -1    0    0    0  501 -0.00000000000E+00  0.00000000000E+00  0.18865742021E+04  0.18865742021E+04  0.00000000000E+00 0.  1.
          1   -1    0    0  501    0  0.00000000000E+00 -0.00000000000E+00 -0.20631835570E+04  0.20631835570E+04  0.00000000000E+00 0. -1.
        -24    2    1    2    0    0 -0.48260020059E+03 -0.11791593166E+04 -0.14510629876E+04  0.19327147884E+04  0.80517150646E+02 0.  0.
        254    2    1    2    0    0  0.48260020059E+03  0.11791593166E+04  0.12744536327E+04  0.20170429707E+04  0.90604118907E+03 0.  0.
         23    2    4    4    0    0  0.57805320950E+03  0.10021187978E+04  0.59749388640E+03  0.13054924263E+04  0.94466569986E+02 0.  0.
         23    2    4    4    0    0 -0.95453008913E+02  0.17704051883E+03  0.67695974627E+03  0.71155054445E+03  0.87034803509E+02 0.  0.
          1    1    3    3  502    0 -0.26727163156E+03 -0.55496404181E+03 -0.72374556173E+03  0.95038247609E+03  0.00000000000E+00 0. -1.
         -2    1    3    3    0  502 -0.21532856903E+03 -0.62419527480E+03 -0.72731742588E+03  0.98233231226E+03  0.00000000000E+00 0.  1.
         11    1    5    5    0    0  0.38190319701E+03  0.61035310868E+03  0.32857559614E+03  0.79141827849E+03  0.00000000000E+00 0. -1.
        -11    1    5    5    0    0  0.19615001250E+03  0.39176568911E+03  0.26891829026E+03  0.51407414777E+03  0.00000000000E+00 0.  1.
          1    1    6    6  503    0 -0.68632322020E+02  0.15851346143E+03  0.44564444058E+03  0.47794966315E+03  0.00000000000E+00 0. -1.
         -1    1    6    6    0  503 -0.26820686893E+02  0.18527057402E+02  0.23131530569E+03  0.23360088130E+03  0.00000000000E+00 0.  1.
<mgrwt>
<rscale>  0 0.39458073E+04</rscale>
<asrwt>0</asrwt>
<pdfrwt beam="1">  1        1 0.31741285E+00 0.39458073E+04</pdfrwt>
<pdfrwt beam="2">  1       -2 0.29024218E+00 0.39458073E+04</pdfrwt>
<totfact> 0.68034433E-02</totfact>
</mgrwt>
</event>
<event>
12    4  0.4207946E-008  0.1645571E+04  0.7818608E-02  0.8793031E-01
         -4   -1    0    0    0  501 -0.00000000000E+00  0.00000000000E+00  0.97592658194E+03  0.97592658194E+03  0.00000000000E+00 0.  1.
          1   -1    0    0  501    0  0.00000000000E+00 -0.00000000000E+00 -0.69367488271E+03  0.69367488271E+03  0.00000000000E+00 0. -1.
        -24    2    1    2    0    0  0.15473159179E+03 -0.27526378525E+03  0.58420622007E+03  0.66887406573E+03  0.79897379677E+02 0.  0.
        254    2    1    2    0    0 -0.15473159179E+03  0.27526378525E+03 -0.30195452084E+03  0.10007273989E+04  0.90031482123E+03 0.  0.
         23    2    4    4    0    0 -0.25287295734E+03  0.47678136001E+03 -0.45871834304E+03  0.71278719867E+03  0.79861596092E+02 0.  0.
         23    2    4    4    0    0  0.98141365552E+02 -0.20151757477E+03  0.15676382220E+03  0.28794020025E+03  0.89964450731E+02 0.  0.
          3    1    3    3  502    0  0.19210933561E+02 -0.96758373676E+02  0.22208349301E+03  0.24300683265E+03  0.00000000000E+00 0. -1.
         -4    1    3    3    0  502  0.13552065823E+03 -0.17850541157E+03  0.36212272705E+03  0.42586723308E+03  0.00000000000E+00 0.  1.
         11    1    5    5    0    0 -0.88473495010E+01  0.57083803266E+02 -0.29937026283E+02  0.65061983763E+02  0.00000000000E+00 0. -1.
        -11    1    5    5    0    0 -0.24402560784E+03  0.41969755675E+03 -0.42878131676E+03  0.64772521490E+03  0.00000000000E+00 0.  1.
          1    1    6    6  503    0  0.27925871185E+02 -0.22452045012E+01  0.32165642447E+02  0.42655876251E+02  0.00000000000E+00 0. -1.
         -1    1    6    6    0  503  0.70215494367E+02 -0.19927237027E+03  0.12459817975E+03  0.24528432400E+03  0.00000000000E+00 0.  1.
<mgrwt>
<rscale>  0 0.16455707E+04</rscale>
<asrwt>0</asrwt>
<pdfrwt beam="1">  1        1 0.10671921E+00 0.16455707E+04</pdfrwt>
<pdfrwt beam="2">  1       -4 0.15014255E+00 0.16455707E+04</pdfrwt>
<totfact> 0.37794347E+00</totfact>
</mgrwt>
</event>
<event>
12    4  0.4207946E-008  0.1587676E+04  0.7818608E-02  0.8828155E-01
          1   -1    0    0  501    0  0.00000000000E+00  0.00000000000E+00  0.52942600712E+03  0.52942600712E+03  0.00000000000E+00 0. -1.
         -2   -1    0    0    0  501 -0.00000000000E+00 -0.00000000000E+00 -0.11903051549E+04  0.11903051549E+04  0.00000000000E+00 0.  1.
        -24    2    1    2    0    0  0.11952990681E+03  0.15560902842E+03  0.31522525905E+03  0.37994921561E+03  0.80578372730E+02 0.  0.
        254    2    1    2    0    0 -0.11952990681E+03 -0.15560902842E+03 -0.97610440687E+03  0.13397819464E+04  0.89651228800E+03 0.  0.
         23    2    4    4    0    0  0.29511715986E+03  0.38026304862E+02 -0.76752955079E+03  0.82811768079E+03  0.90206119497E+02 0.  0.
         23    2    4    4    0    0 -0.41464706667E+03 -0.19363533328E+03 -0.20857485608E+03  0.51166426565E+03  0.94180772785E+02 0.  0.
          1    1    3    3  502    0  0.12094498513E+03  0.12491222259E+03  0.29719974768E+03  0.34432316623E+03  0.00000000000E+00 0. -1.
         -2    1    3    3    0  502 -0.14150783186E+01  0.30696805822E+02  0.18025511374E+02  0.35626049383E+02  0.00000000000E+00 0.  1.
         11    1    5    5    0    0  0.28738751618E+03  0.54653522454E+02 -0.71845186757E+03  0.77572654846E+03  0.00000000000E+00 0.  1.
        -11    1    5    5    0    0  0.77296436749E+01 -0.16627217592E+02 -0.49077683220E+02  0.52391132326E+02  0.00000000000E+00 0. -1.
          1    1    6    6  503    0 -0.21530869821E+02 -0.24126573842E+02 -0.40313099278E+02  0.51679937055E+02  0.00000000000E+00 0. -1.
         -1    1    6    6    0  503 -0.39311619685E+03 -0.16950875944E+03 -0.16826175680E+03  0.45998432860E+03  0.00000000000E+00 0.  1.
<mgrwt>
<rscale>  0 0.15876757E+04</rscale>
<asrwt>0</asrwt>
<pdfrwt beam="1">  1        1 0.81450156E-01 0.15876757E+04</pdfrwt>
<pdfrwt beam="2">  1       -2 0.18312387E+00 0.15876757E+04</pdfrwt>
<totfact> 0.59295660E+00</totfact>
</mgrwt>
</event>
<event>
12    4  0.4207946E-008  0.1972899E+04  0.7818608E-02  0.8619397E-01
          1   -1    0    0  501    0  0.00000000000E+00  0.00000000000E+00  0.22876144138E+04  0.22876144138E+04  0.00000000000E+00 0. -1.
         -2   -1    0    0    0  501 -0.00000000000E+00 -0.00000000000E+00 -0.42537017529E+03  0.42537017529E+03  0.00000000000E+00 0.  1.
        -24    2    1    2    0    0 -0.31516110676E+03  0.71451622767E+03  0.75112389194E+03  0.10869682660E+04  0.86330455228E+02 0.  0.
        254    2    1    2    0    0  0.31516110676E+03 -0.71451622767E+03  0.11111203466E+04  0.16260163230E+04  0.89413684381E+03 0.  0.
         23    2    4    4    0    0  0.25094913757E+03  0.15055723595E+03  0.37584021231E+03  0.48519127350E+03  0.92259177080E+02 0.  0.
         23    2    4    4    0    0  0.64211969194E+02 -0.86507346362E+03  0.73528013425E+03  0.11408250495E+04  0.91485755147E+02 0.  0.
          1    1    3    3  502    0 -0.24017729213E+03  0.60636650876E+03  0.59558756833E+03  0.88322705243E+03  0.00000000000E+00 0. -1.
         -2    1    3    3    0  502 -0.74983814630E+02  0.10814971891E+03  0.15553632361E+03  0.20374121360E+03  0.00000000000E+00 0.  1.
         11    1    5    5    0    0  0.31586087131E+02  0.55194635311E+02  0.49551867915E+02  0.80619577530E+02  0.00000000000E+00 0. -1.
        -11    1    5    5    0    0  0.21936305044E+03  0.95362600640E+02  0.32628834439E+03  0.40457169597E+03  0.00000000000E+00 0.  1.
          3    1    6    6  503    0 -0.13911041690E+02 -0.31958682617E+02  0.21306093664E+02  0.40851243588E+02  0.00000000000E+00 0. -1.
         -3    1    6    6    0  503  0.78123010883E+02 -0.83311478100E+03  0.71397404059E+03  0.10999738060E+04  0.00000000000E+00 0.  1.
<mgrwt>
<rscale>  0 0.19728993E+04</rscale>
<asrwt>0</asrwt>
<pdfrwt beam="1">  1        1 0.35194067E+00 0.19728993E+04</pdfrwt>
<pdfrwt beam="2">  1       -2 0.65441567E-01 0.19728993E+04</pdfrwt>
<totfact> 0.33356944E+00</totfact>
</mgrwt>
</event>
<event>
12    4  0.4207946E-008  0.1962234E+04  0.7818608E-02  0.8624484E-01
          1   -1    0    0  501    0  0.00000000000E+00  0.00000000000E+00  0.64638902911E+03  0.64638902911E+03  0.00000000000E+00 0. -1.
         -2   -1    0    0    0  501 -0.00000000000E+00 -0.00000000000E+00 -0.14891815278E+04  0.14891815278E+04  0.00000000000E+00 0.  1.
        -24    2    1    2    0    0  0.98481659705E+02 -0.55930969171E+03 -0.90550587806E+03  0.10718224639E+04  0.79602326023E+02 0.  0.
        254    2    1    2    0    0 -0.98481659705E+02  0.55930969171E+03  0.62713379382E+02  0.10637480930E+04  0.89727424399E+03 0.  0.
         23    2    4    4    0    0 -0.14380719714E+03 -0.60432995076E+02 -0.29077621306E+03  0.34300162056E+03  0.93630383857E+02 0.  0.
         23    2    4    4    0    0  0.45325537435E+02  0.61974268678E+03  0.35348959245E+03  0.72074647247E+03  0.91570647249E+02 0.  0.
          3    1    3    3  502    0  0.35898123080E+02 -0.58167034410E+02 -0.10232894268E+03  0.12305808239E+03  0.00000000000E+00 0. -1.
         -2    1    3    3    0  502  0.62583536625E+02 -0.50114265730E+03 -0.80317693538E+03  0.94876438147E+03  0.00000000000E+00 0.  1.
         11    1    5    5    0    0 -0.12708818969E+03 -0.84249704199E+02 -0.25166549743E+03  0.29425319576E+03  0.00000000000E+00 0. -1.
        -11    1    5    5    0    0 -0.16719007446E+02  0.23816709123E+02 -0.39110715636E+02  0.48748424806E+02  0.00000000000E+00 0.  1.
          3    1    6    6  503    0 -0.14771048083E+02  0.36663944131E+03  0.18640017871E+03  0.41156735829E+03  0.00000000000E+00 0. -1.
         -3    1    6    6    0  503  0.60096585517E+02  0.25310324547E+03  0.16708941374E+03  0.30917911418E+03  0.00000000000E+00 0.  1.
<mgrwt>
<rscale>  0 0.19622340E+04</rscale>
<asrwt>0</asrwt>
<pdfrwt beam="1">  1        1 0.99444467E-01 0.19622340E+04</pdfrwt>
<pdfrwt beam="2">  1       -2 0.22910485E+00 0.19622340E+04</pdfrwt>
<totfact> 0.21667693E+00</totfact>
</mgrwt>
</event>
<event>
12    4  0.4207946E-008  0.1397361E+04  0.7818608E-02  0.8955731E-01
         -4   -1    0    0    0  501 -0.00000000000E+00  0.00000000000E+00  0.61949247225E+03  0.61949247225E+03  0.00000000000E+00 0.  1.
          3   -1    0    0  501    0  0.00000000000E+00 -0.00000000000E+00 -0.78799043160E+03  0.78799043160E+03  0.00000000000E+00 0. -1.
        -24    2    1    2    0    0 -0.37293412633E+03  0.52472483192E+02  0.19456380853E+03  0.43145393962E+03  0.80400263351E+02 0.  0.
        254    2    1    2    0    0  0.37293412633E+03 -0.52472483192E+02 -0.36306176788E+03  0.97602896423E+03  0.82400574491E+03 0.  0.
         23    2    4    4    0    0 -0.20697249852E+03 -0.11676987572E+03 -0.28035169126E+03  0.37949931660E+03  0.94603601901E+02 0.  0.
         23    2    4    4    0    0  0.57990662485E+03  0.64297392527E+02 -0.82710076624E+02  0.59652964763E+03  0.92632691273E+02 0.  0.
          1    1    3    3  502    0 -0.10864830762E+03  0.40684332880E+02  0.90638774365E+02  0.14722451260E+03  0.00000000000E+00 0. -1.
         -4    1    3    3    0  502 -0.26428581871E+03  0.11788150312E+02  0.10392503417E+03  0.28422942702E+03  0.00000000000E+00 0.  1.
         11    1    5    5    0    0 -0.88041055603E+02 -0.96259218377E+02 -0.10946892686E+03  0.17029536265E+03  0.00000000000E+00 0. -1.
        -11    1    5    5    0    0 -0.11893144292E+03 -0.20510657341E+02 -0.17088276440E+03  0.20920395395E+03  0.00000000000E+00 0.  1.
          2    1    6    6  503    0  0.19316496877E+03  0.63908068478E+02 -0.40920137887E+02  0.20753651260E+03  0.00000000000E+00 0. -1.
         -2    1    6    6    0  503  0.38674165607E+03  0.38932404868E+00 -0.41789938737E+02  0.38899313502E+03  0.00000000000E+00 0.  1.
<mgrwt>
<rscale>  0 0.13973606E+04</rscale>
<asrwt>0</asrwt>
<pdfrwt beam="1">  1        3 0.12122930E+00 0.13973606E+04</pdfrwt>
<pdfrwt beam="2">  1       -4 0.95306534E-01 0.13973606E+04</pdfrwt>
<totfact> 0.11397011E+00</totfact>
</mgrwt>
</event>
<event>
12    4  0.4207946E-008  0.1723999E+04  0.7818608E-02  0.8747794E-01
         -2   -1    0    0    0  501 -0.00000000000E+00  0.00000000000E+00  0.41625065537E+03  0.41625065537E+03  0.00000000000E+00 0.  1.
          1   -1    0    0  501    0  0.00000000000E+00 -0.00000000000E+00 -0.17850851637E+04  0.17850851637E+04  0.00000000000E+00 0. -1.
        -24    2    1    2    0    0  0.11591212701E+03 -0.57981586778E+03 -0.60602828323E+03  0.85064156165E+03  0.81845736636E+02 0.  0.
        254    2    1    2    0    0 -0.11591212701E+03  0.57981586778E+03 -0.76280622512E+03  0.13506942574E+04  0.94492305417E+03 0.  0.
         23    2    4    4    0    0  0.34324544668E+03  0.53798784104E+03 -0.46082695210E+03  0.79252241103E+03  0.92097439875E+02 0.  0.
         23    2    4    4    0    0 -0.45915757369E+03  0.41828026745E+02 -0.30197927301E+03  0.55817184641E+03  0.88255693899E+02 0.  0.
          1    1    3    3  502    0  0.82786309230E+02 -0.52328157456E+03 -0.51841626177E+03  0.74123720882E+03  0.00000000000E+00 0. -1.
         -2    1    3    3    0  502  0.33125817777E+02 -0.56534293227E+02 -0.87612021452E+02  0.10940435282E+03  0.00000000000E+00 0.  1.
         11    1    5    5    0    0  0.32888724741E+03  0.51125640906E+03 -0.45971250303E+03  0.76215846302E+03  0.00000000000E+00 0. -1.
        -11    1    5    5    0    0  0.14358199272E+02  0.26731431978E+02 -0.11144490695E+01  0.30363948008E+02  0.00000000000E+00 0.  1.
          2    1    6    6  503    0 -0.18222776494E+03  0.15870128170E+02 -0.17227832133E+03  0.25127403225E+03  0.00000000000E+00 0. -1.
         -2    1    6    6    0  503 -0.27692980875E+03  0.25957898575E+02 -0.12970095168E+03  0.30689781416E+03  0.00000000000E+00 0.  1.
<mgrwt>
<rscale>  0 0.17239987E+04</rscale>
<asrwt>0</asrwt>
<pdfrwt beam="1">  1        1 0.27462848E+00 0.17239987E+04</pdfrwt>
<pdfrwt beam="2">  1       -2 0.64038563E-01 0.17239987E+04</pdfrwt>
<totfact> 0.78374840E+00</totfact>
</mgrwt>
</event>
<event>
12    4  0.4207946E-008  0.2182528E+04  0.7818608E-02  0.8525736E-01
         -2   -1    0    0    0  501 -0.00000000000E+00  0.00000000000E+00  0.53739281564E+03  0.53739281564E+03  0.00000000000E+00 0.  1.
          1   -1    0    0  501    0  0.00000000000E+00 -0.00000000000E+00 -0.22159904776E+04  0.22159904776E+04  0.00000000000E+00 0. -1.
        -24    2    1    2    0    0 -0.15184035985E+03 -0.44368328862E+03  0.27765093746E+03  0.55101497337E+03  0.81345573463E+02 0.  0.
        254    2    1    2    0    0  0.15184035985E+03  0.44368328862E+03 -0.19562485994E+04  0.22023683199E+04  0.89644145272E+03 0.  0.
         23    2    4    4    0    0  0.37751362675E+03 -0.82056422347E+01 -0.37600375084E+03  0.54091497673E+03  0.92877986907E+02 0.  0.
         23    2    4    4    0    0 -0.22567326690E+03  0.45188893085E+03 -0.15802448486E+04  0.16614533432E+04  0.90118814664E+02 0.  0.
          3    1    3    3  502    0 -0.36034159043E+02 -0.40807614556E+02  0.15501704128E+02  0.56604106340E+02  0.00000000000E+00 0. -1.
         -4    1    3    3    0  502 -0.11580620081E+03 -0.40287567406E+03  0.26214923333E+03  0.49441086703E+03  0.00000000000E+00 0.  1.
         11    1    5    5    0    0  0.31374954445E+03  0.13535148274E+02 -0.26425394693E+03  0.41042919651E+03  0.00000000000E+00 0.  1.
        -11    1    5    5    0    0  0.63764082300E+02 -0.21740790509E+02 -0.11174980391E+03  0.13048578021E+03  0.00000000000E+00 0. -1.
          4    1    6    6  503    0 -0.10521712389E+03  0.15028530939E+03 -0.46494092304E+03  0.49982634914E+03  0.00000000000E+00 0. -1.
         -4    1    6    6    0  503 -0.12045614301E+03  0.30160362147E+03 -0.11153039256E+04  0.11616269940E+04  0.00000000000E+00 0.  1.
<mgrwt>
<rscale>  0 0.21825282E+04</rscale>
<asrwt>0</asrwt>
<pdfrwt beam="1">  1        1 0.34092161E+00 0.21825282E+04</pdfrwt>
<pdfrwt beam="2">  1       -2 0.82675818E-01 0.21825282E+04</pdfrwt>
<totfact> 0.21869722E+00</totfact>
</mgrwt>
</event>
<event>
12    4  0.4207946E-008  0.3484086E+04  0.7818608E-02  0.8117572E-01
         -2   -1    0    0    0  501 -0.00000000000E+00  0.00000000000E+00  0.21008414440E+04  0.21008414440E+04  0.00000000000E+00 0.  1.
          3   -1    0    0  501    0  0.00000000000E+00 -0.00000000000E+00 -0.14445228977E+04  0.14445228977E+04  0.00000000000E+00 0. -1.
        -24    2    1    2    0    0 -0.78749993025E+03  0.78386550523E+03 -0.89679159894E+03  0.14300470177E+04  0.78727571732E+02 0.  0.
        254    2    1    2    0    0  0.78749993025E+03 -0.78386550523E+03  0.15531101453E+04  0.21153173239E+04  0.90984338606E+03 0.  0.
         23    2    4    4    0    0 -0.18256580452E+03 -0.12221674682E+03  0.14752328278E+03  0.28151752554E+03  0.96030162123E+02 0.  0.
         23    2    4    4    0    0  0.97006573477E+03 -0.66164875841E+03  0.14055868625E+04  0.18337997984E+04  0.91327232015E+02 0.  0.
          3    1    3    3  502    0 -0.68728926249E+03  0.67423162672E+03 -0.80868724782E+03  0.12573503416E+04  0.00000000000E+00 0. -1.
         -4    1    3    3    0  502 -0.10021066775E+03  0.10963387851E+03 -0.88104351120E+02  0.17269667610E+03  0.00000000000E+00 0.  1.
         11    1    5    5    0    0 -0.16720278740E+03 -0.98788919477E+02  0.15924602258E+03  0.25114800105E+03  0.00000000000E+00 0.  1.
        -11    1    5    5    0    0 -0.15363017123E+02 -0.23427827340E+02 -0.11722739797E+02  0.30369524483E+02  0.00000000000E+00 0. -1.
          2    1    6    6  503    0  0.63216775127E+03 -0.41504016263E+03  0.96874963636E+03  0.12289712203E+04  0.00000000000E+00 0. -1.
         -2    1    6    6    0  503  0.33789798350E+03 -0.24660859578E+03  0.43683722615E+03  0.60482857813E+03  0.00000000000E+00 0.  1.
<mgrwt>
<rscale>  0 0.34840859E+04</rscale>
<asrwt>0</asrwt>
<pdfrwt beam="1">  1        3 0.22223429E+00 0.34840859E+04</pdfrwt>
<pdfrwt beam="2">  1       -2 0.32320637E+00 0.34840859E+04</pdfrwt>
<totfact> 0.83400357E-03</totfact>
</mgrwt>
</event>
<event>
12    4  0.4207946E-008  0.1311061E+04  0.7818608E-02  0.9020840E-01
          1   -1    0    0  501    0  0.00000000000E+00  0.00000000000E+00  0.93903566134E+03  0.93903566134E+03  0.00000000000E+00 0. -1.
         -2   -1    0    0    0  501 -0.00000000000E+00 -0.00000000000E+00 -0.45761854103E+03  0.45761854103E+03  0.00000000000E+00 0.  1.
        -24    2    1    2    0    0 -0.38424449680E+02  0.32368488587E+03  0.25151229327E+03  0.41940905185E+03  0.79982344533E+02 0.  0.
        254    2    1    2    0    0  0.38424449680E+02 -0.32368488587E+03  0.22990482704E+03  0.97724515052E+03  0.89213424497E+03 0.  0.
         23    2    4    4    0    0 -0.28817128290E+03 -0.48605450252E+03  0.15763291597E+03  0.59441474462E+03  0.95859713751E+02 0.  0.
         23    2    4    4    0    0  0.32659573258E+03  0.16236961665E+03  0.72271911068E+02  0.38283040589E+03  0.91143982776E+02 0.  0.
          1    1    3    3  502    0 -0.13705103568E+02  0.30145158682E+03  0.21855603345E+03  0.37259579818E+03  0.00000000000E+00 0. -1.
         -2    1    3    3    0  502 -0.24719346111E+02  0.22233299052E+02  0.32956259811E+02  0.46813253675E+02  0.00000000000E+00 0.  1.
         11    1    5    5    0    0 -0.14098662024E+01 -0.19271674858E+02  0.23459044449E+02  0.30392629715E+02  0.00000000000E+00 0.  1.
        -11    1    5    5    0    0 -0.28676141670E+03 -0.46678282766E+03  0.13417387152E+03  0.56402211491E+03  0.00000000000E+00 0. -1.
          4    1    6    6  503    0  0.29921234237E+03  0.17270509431E+03  0.74697322719E+02  0.35346112296E+03  0.00000000000E+00 0. -1.
         -4    1    6    6    0  503  0.27383390215E+02 -0.10335477662E+02 -0.24254116510E+01  0.29369282930E+02  0.00000000000E+00 0.  1.
<mgrwt>
<rscale>  0 0.13110608E+04</rscale>
<asrwt>0</asrwt>
<pdfrwt beam="1">  1        1 0.14446702E+00 0.13110608E+04</pdfrwt>
<pdfrwt beam="2">  1       -2 0.70402853E-01 0.13110608E+04</pdfrwt>
<totfact> 0.26721249E+01</totfact>
</mgrwt>
</event>
<event>
12    4  0.4207946E-008  0.3105496E+04  0.7818608E-02  0.8214231E-01
          3   -1    0    0  501    0  0.00000000000E+00  0.00000000000E+00  0.17706978511E+04  0.17706978511E+04  0.00000000000E+00 0. -1.
         -4   -1    0    0    0  501 -0.00000000000E+00 -0.00000000000E+00 -0.13616252541E+04  0.13616252541E+04  0.00000000000E+00 0.  1.
        -24    2    1    2    0    0  0.89356138412E+03  0.25971002956E+03 -0.89910798847E+03  0.12965340802E+04  0.81879176552E+02 0.  0.
        254    2    1    2    0    0 -0.89356138412E+03 -0.25971002956E+03  0.13081805855E+04  0.18357890251E+04  0.89044014602E+03 0.  0.
         23    2    4    4    0    0  0.16565858697E+03  0.77122567589E+01  0.23631666895E+03  0.30259869939E+03  0.90654059497E+02 0.  0.
         23    2    4    4    0    0 -0.10592199711E+04 -0.26742228632E+03  0.10718639165E+04  0.15331903257E+04  0.91206868135E+02 0.  0.
          3    1    3    3  502    0  0.51002360827E+03  0.13060864118E+03 -0.45677965989E+03  0.69701531965E+03  0.00000000000E+00 0. -1.
         -4    1    3    3    0  502  0.38353777585E+03  0.12910138838E+03 -0.44232832858E+03  0.59951876055E+03  0.00000000000E+00 0.  1.
         11    1    5    5    0    0  0.77873832848E+02 -0.28814808471E+02  0.60561694562E+02  0.10277327414E+03  0.00000000000E+00 0. -1.
        -11    1    5    5    0    0  0.87784754126E+02  0.36527065230E+02  0.17575497439E+03  0.19982542524E+03  0.00000000000E+00 0.  1.
          2    1    6    6  503    0 -0.63070444223E+03 -0.19652422276E+03  0.60985596725E+03  0.89907405944E+03  0.00000000000E+00 0.  1.
         -2    1    6    6    0  503 -0.42851552886E+03 -0.70898063557E+02  0.46200794930E+03  0.63411626624E+03  0.00000000000E+00 0. -1.
<mgrwt>
<rscale>  0 0.31054964E+04</rscale>
<asrwt>0</asrwt>
<pdfrwt beam="1">  1        3 0.27241505E+00 0.31054964E+04</pdfrwt>
<pdfrwt beam="2">  1       -4 0.20948081E+00 0.31054964E+04</pdfrwt>
<totfact> 0.12102606E-02</totfact>
</mgrwt>
</event>
<event>
12    4  0.4207946E-008  0.1396756E+04  0.7818608E-02  0.8956170E-01
         -2   -1    0    0    0  501 -0.00000000000E+00  0.00000000000E+00  0.44997223671E+03  0.44997223671E+03  0.00000000000E+00 0.  1.
          1   -1    0    0  501    0  0.00000000000E+00 -0.00000000000E+00 -0.10839159975E+04  0.10839159975E+04  0.00000000000E+00 0. -1.
        -24    2    1    2    0    0  0.34455459475E+03  0.13325672869E+02 -0.38647673339E+03  0.52431832064E+03  0.81547492828E+02 0.  0.
        254    2    1    2    0    0 -0.34455459475E+03 -0.13325672869E+02 -0.24746702736E+03  0.10095699135E+04  0.91602185473E+03 0.  0.
         23    2    4    4    0    0  0.21273928101E+03  0.18381337133E+03  0.10872478442E+03  0.31370475566E+03  0.86857571986E+02 0.  0.
         23    2    4    4    0    0 -0.55729387576E+03 -0.19713904420E+03 -0.35619181178E+03  0.69586515787E+03  0.88968783572E+02 0.  0.
          1    1    3    3  502    0  0.20836288682E+03 -0.26794309493E+02 -0.25919778222E+03  0.33364130130E+03  0.00000000000E+00 0. -1.
         -2    1    3    3    0  502  0.13619170793E+03  0.40119982362E+02 -0.12727895117E+03  0.19067701934E+03  0.00000000000E+00 0.  1.
         11    1    5    5    0    0  0.13943213675E+03  0.13931910075E+03  0.34115291660E+02  0.20003746079E+03  0.00000000000E+00 0. -1.
        -11    1    5    5    0    0  0.73307144256E+02  0.44494270580E+02  0.74609492758E+02  0.11366729487E+03  0.00000000000E+00 0.  1.
          3    1    6    6  503    0 -0.34844646399E+03 -0.81314874582E+02 -0.23479042861E+03  0.42796447570E+03  0.00000000000E+00 0. -1.
         -3    1    6    6    0  503 -0.20884741178E+03 -0.11582416962E+03 -0.12140138316E+03  0.26790068217E+03  0.00000000000E+00 0.  1.
<mgrwt>
<rscale>  0 0.13967564E+04</rscale>
<asrwt>0</asrwt>
<pdfrwt beam="1">  1        1 0.16675631E+00 0.13967564E+04</pdfrwt>
<pdfrwt beam="2">  1       -2 0.69226498E-01 0.13967564E+04</pdfrwt>
<totfact> 0.21238248E+01</totfact>
</mgrwt>
</event>
<event>
12    4  0.4207946E-008  0.2268783E+04  0.7818608E-02  0.8490332E-01
         -2   -1    0    0    0  501 -0.00000000000E+00  0.00000000000E+00  0.10432068183E+04  0.10432068183E+04  0.00000000000E+00 0.  1.
          1   -1    0    0  501    0  0.00000000000E+00 -0.00000000000E+00 -0.12335460656E+04  0.12335460656E+04  0.00000000000E+00 0. -1.
        -24    2    1    2    0    0  0.44481151014E+03  0.75051085939E+03 -0.46523253183E+03  0.99189241969E+03  0.79280728733E+02 0.  0.
        254    2    1    2    0    0 -0.44481151014E+03 -0.75051085939E+03  0.27489328446E+03  0.12848604642E+04  0.90231716429E+03 0.  0.
         23    2    4    4    0    0 -0.41252287020E+02 -0.63528674812E+03 -0.17116371022E+03  0.66575412961E+03  0.92954515083E+02 0.  0.
         23    2    4    4    0    0 -0.40355922312E+03 -0.11522411127E+03  0.44605699467E+03  0.61910633458E+03  0.90494025414E+02 0.  0.
          3    1    3    3  502    0  0.32373374927E+03  0.59446409691E+03 -0.38483493332E+03  0.77864563752E+03  0.00000000000E+00 0. -1.
         -4    1    3    3    0  502  0.12107776087E+03  0.15604676248E+03 -0.80397598508E+02  0.21324678216E+03  0.00000000000E+00 0.  1.
         11    1    5    5    0    0 -0.28051905199E+02 -0.44408858512E+03 -0.74723555205E+02  0.45120415615E+03  0.00000000000E+00 0. -1.
        -11    1    5    5    0    0 -0.13200381821E+02 -0.19119816299E+03 -0.96440155011E+02  0.21454997346E+03  0.00000000000E+00 0.  1.
          2    1    6    6  503    0 -0.16099224522E+03 -0.95813407529E+01  0.13161875088E+03  0.20816772251E+03  0.00000000000E+00 0. -1.
         -2    1    6    6    0  503 -0.24256697790E+03 -0.10564277052E+03  0.31443824379E+03  0.41093861207E+03  0.00000000000E+00 0.  1.
<mgrwt>
<rscale>  0 0.22687826E+04</rscale>
<asrwt>0</asrwt>
<pdfrwt beam="1">  1        1 0.18977632E+00 0.22687826E+04</pdfrwt>
<pdfrwt beam="2">  1       -2 0.16049336E+00 0.22687826E+04</pdfrwt>
<totfact> 0.20062632E+00</totfact>
</mgrwt>
</event>
<event>
12    4  0.4207946E-008  0.2029265E+04  0.7818608E-02  0.8593059E-01
         -2   -1    0    0    0  501 -0.00000000000E+00  0.00000000000E+00  0.55729097830E+03  0.55729097830E+03  0.00000000000E+00 0.  1.
          1   -1    0    0  501    0  0.00000000000E+00 -0.00000000000E+00 -0.18472918288E+04  0.18472918288E+04  0.00000000000E+00 0. -1.
        -24    2    1    2    0    0  0.67252189346E+03 -0.41378727100E+03 -0.29390353984E+03  0.84663359315E+03  0.83087589310E+02 0.  0.
        254    2    1    2    0    0 -0.67252189346E+03  0.41378727100E+03 -0.99609731064E+03  0.15579492139E+04  0.90082756291E+03 0.  0.
         23    2    4    4    0    0 -0.25192702986E+01  0.32111728039E+03 -0.76938694271E+03  0.83888208006E+03  0.92974309125E+02 0.  0.
         23    2    4    4    0    0 -0.67000262316E+03  0.92669990610E+02 -0.22671036794E+03  0.71906713387E+03  0.90380915479E+02 0.  0.
          1    1    3    3  502    0  0.66253094700E+03 -0.39160691569E+03 -0.28642004912E+03  0.82118187796E+03  0.00000000000E+00 0. -1.
         -2    1    3    3    0  502  0.99909464516E+01 -0.22180355306E+02 -0.74834907258E+01  0.25451715187E+02  0.00000000000E+00 0.  1.
         11    1    5    5    0    0 -0.25991246337E+02  0.22053098332E+03 -0.60790486079E+03  0.64719222744E+03  0.00000000000E+00 0.  1.
        -11    1    5    5    0    0  0.23471976039E+02  0.10058629707E+03 -0.16148208191E+03  0.19168985262E+03  0.00000000000E+00 0. -1.
          2    1    6    6  503    0 -0.35649673926E+03  0.50218690052E+01 -0.12972606621E+03  0.37939952098E+03  0.00000000000E+00 0. -1.
         -2    1    6    6    0  503 -0.31350588390E+03  0.87648121605E+02 -0.96984301729E+02  0.33966761288E+03  0.00000000000E+00 0.  1.
<mgrwt>
<rscale>  0 0.20292650E+04</rscale>
<asrwt>0</asrwt>
<pdfrwt beam="1">  1        1 0.28419874E+00 0.20292650E+04</pdfrwt>
<pdfrwt beam="2">  1       -2 0.85737075E-01 0.20292650E+04</pdfrwt>
<totfact> 0.36317043E+00</totfact>
</mgrwt>
</event>
<event>
12    4  0.4207946E-008  0.1684741E+04  0.7818608E-02  0.8770115E-01
          1   -1    0    0  501    0  0.00000000000E+00  0.00000000000E+00  0.21588488134E+04  0.21588488134E+04  0.00000000000E+00 0. -1.
         -2   -1    0    0    0  501 -0.00000000000E+00 -0.00000000000E+00 -0.32868805198E+03  0.32868805198E+03  0.00000000000E+00 0.  1.
        -24    2    1    2    0    0 -0.10838769817E+03  0.38983812838E+03  0.13675636388E+04  0.14284236187E+04  0.80262500180E+02 0.  0.
        254    2    1    2    0    0  0.10838769817E+03 -0.38983812838E+03  0.46259712257E+03  0.10591132466E+04  0.86255614997E+03 0.  0.
         23    2    4    4    0    0  0.31444045908E+01 -0.63830528633E+03  0.42388147084E+03  0.77163767614E+03  0.91135482016E+02 0.  0.
         23    2    4    4    0    0  0.10524329358E+03  0.24846715794E+03  0.38715651731E+02  0.28747557046E+03  0.91275530702E+02 0.  0.
          1    1    3    3  502    0 -0.11957084366E+03  0.33512209365E+03  0.12113989770E+04  0.12625733586E+04  0.00000000000E+00 0. -1.
         -2    1    3    3    0  502  0.11183145488E+02  0.54716034732E+02  0.15616466177E+03  0.16585026013E+03  0.00000000000E+00 0.  1.
         11    1    5    5    0    0  0.43538323859E+02 -0.21243536897E+03  0.15058781635E+03  0.26400958707E+03  0.00000000000E+00 0.  1.
        -11    1    5    5    0    0 -0.40393919268E+02 -0.42586991735E+03  0.27329365449E+03  0.50762808906E+03  0.00000000000E+00 0. -1.
          3    1    6    6  503    0  0.10920968702E+03  0.16494369158E+03  0.66879411858E+01  0.19793409430E+03  0.00000000000E+00 0. -1.
         -3    1    6    6    0  503 -0.39663934379E+01  0.83523466361E+02  0.32027710545E+02  0.89541476159E+02  0.00000000000E+00 0.  1.
<mgrwt>
<rscale>  0 0.16847407E+04</rscale>
<asrwt>0</asrwt>
<pdfrwt beam="1">  1        1 0.33213058E+00 0.16847407E+04</pdfrwt>
<pdfrwt beam="2">  1       -2 0.50567394E-01 0.16847407E+04</pdfrwt>
<totfact> 0.71940674E+00</totfact>
</mgrwt>
</event>
<event>
12    4  0.4207946E-008  0.1870156E+04  0.7818608E-02  0.8669856E-01
         -2   -1    0    0    0  501 -0.00000000000E+00  0.00000000000E+00  0.49546668436E+03  0.49546668436E+03  0.00000000000E+00 0.  1.
          1   -1    0    0  501    0  0.00000000000E+00 -0.00000000000E+00 -0.17647423060E+04  0.17647423060E+04  0.00000000000E+00 0. -1.
        -24    2    1    2    0    0 -0.11344033777E+03  0.25536112910E+03  0.30738541461E+03  0.42277799319E+03  0.78596577002E+02 0.  0.
        254    2    1    2    0    0  0.11344033777E+03 -0.25536112910E+03 -0.15766610363E+04  0.18374309972E+04  0.90122950999E+03 0.  0.
         23    2    4    4    0    0 -0.37700757808E+03 -0.46677989653E+02 -0.52749726343E+03  0.65711086847E+03  0.96061344384E+02 0.  0.
         23    2    4    4    0    0  0.49044791586E+03 -0.20868313945E+03 -0.10491637728E+04  0.11803201287E+04  0.91231426511E+02 0.  0.
          1    1    3    3  502    0 -0.29969458880E+02  0.26256163146E+02  0.79987400459E+02  0.89361841974E+02  0.00000000000E+00 0. -1.
         -2    1    3    3    0  502 -0.83470878893E+02  0.22910496596E+03  0.22739801415E+03  0.33341615121E+03  0.00000000000E+00 0.  1.
         11    1    5    5    0    0 -0.35267493435E+03 -0.43175055238E+02 -0.52275654956E+03  0.63207444563E+03  0.00000000000E+00 0.  1.
        -11    1    5    5    0    0 -0.24332643736E+02 -0.35029344151E+01 -0.47407138742E+01  0.25036422843E+02  0.00000000000E+00 0. -1.
          3    1    6    6  503    0  0.16099053481E+03 -0.10545484363E+03 -0.31719532198E+03  0.37101421621E+03  0.00000000000E+00 0. -1.
         -3    1    6    6    0  503  0.32945738104E+03 -0.10322829582E+03 -0.73196845087E+03  0.80930591253E+03  0.00000000000E+00 0.  1.
<mgrwt>
<rscale>  0 0.18701562E+04</rscale>
<asrwt>0</asrwt>
<pdfrwt beam="1">  1        1 0.27149882E+00 0.18701562E+04</pdfrwt>
<pdfrwt beam="2">  1       -2 0.76225643E-01 0.18701562E+04</pdfrwt>
<totfact> 0.54607626E+00</totfact>
</mgrwt>
</event>
<event>
12    4  0.4207946E-008  0.2609900E+04  0.7818608E-02  0.8364846E-01
          1   -1    0    0  501    0  0.00000000000E+00  0.00000000000E+00  0.18010137394E+04  0.18010137394E+04  0.00000000000E+00 0. -1.
         -2   -1    0    0    0  501 -0.00000000000E+00 -0.00000000000E+00 -0.94552031630E+03  0.94552031630E+03  0.00000000000E+00 0.  1.
        -24    2    1    2    0    0  0.72527212603E+02  0.31214481432E+01  0.15823561359E+04  0.15860131818E+04  0.79479128478E+02 0.  0.
        254    2    1    2    0    0 -0.72527212603E+02 -0.31214481432E+01 -0.72686271283E+03  0.11605208739E+04  0.90178121266E+03 0.  0.
         23    2    4    4    0    0 -0.10325802042E+03  0.15143003150E+03 -0.89112316923E+03  0.91393515627E+03  0.87084406827E+02 0.  0.
         23    2    4    4    0    0  0.30730807819E+02 -0.15455147965E+03  0.16426045640E+03  0.24658571765E+03  0.94828667611E+02 0.  0.
          1    1    3    3  502    0  0.70093735496E+02  0.13432653079E+02  0.15555936525E+04  0.15572299701E+04  0.00000000000E+00 0. -1.
         -2    1    3    3    0  502  0.24334771070E+01 -0.10311204936E+02  0.26762483386E+02  0.28783211687E+02  0.00000000000E+00 0.  1.
         11    1    5    5    0    0 -0.32071080914E+02  0.83420450891E+02 -0.59988990457E+03  0.60651086013E+03  0.00000000000E+00 0. -1.
        -11    1    5    5    0    0 -0.71186939508E+02  0.68009580611E+02 -0.29123326467E+03  0.30742429614E+03  0.00000000000E+00 0.  1.
          4    1    6    6  503    0  0.29641277390E+02 -0.28842807684E+02  0.93705145728E+02  0.10242639902E+03  0.00000000000E+00 0. -1.
         -4    1    6    6    0  503  0.10895304289E+01 -0.12570867196E+03  0.70555310674E+02  0.14415931863E+03  0.00000000000E+00 0.  1.
<mgrwt>
<rscale>  0 0.26099004E+04</rscale>
<asrwt>0</asrwt>
<pdfrwt beam="1">  1        1 0.27707904E+00 0.26099004E+04</pdfrwt>
<pdfrwt beam="2">  1       -2 0.14546466E+00 0.26099004E+04</pdfrwt>
<totfact> 0.10219236E+00</totfact>
</mgrwt>
</event>
<event>
12    4  0.4207946E-008  0.1653191E+04  0.7818608E-02  0.8788521E-01
          1   -1    0    0  501    0  0.00000000000E+00  0.00000000000E+00  0.47361970578E+03  0.47361970578E+03  0.00000000000E+00 0. -1.
         -2   -1    0    0    0  501 -0.00000000000E+00 -0.00000000000E+00 -0.14426349494E+04  0.14426349494E+04  0.00000000000E+00 0.  1.
        -24    2    1    2    0    0  0.12516168457E+03 -0.42577749300E+03 -0.77257596195E+03  0.89468999542E+03  0.81514723162E+02 0.  0.
        254    2    1    2    0    0 -0.12516168457E+03  0.42577749300E+03 -0.19643928163E+03  0.10215646597E+04  0.89891826201E+03 0.  0.
         23    2    4    4    0    0  0.25050844863E+03 -0.58508230815E+02  0.15023773506E+03  0.31149030672E+03  0.90978779043E+02 0.  0.
         23    2    4    4    0    0 -0.37567013320E+03  0.48428572381E+03 -0.34667701668E+03  0.71007435299E+03  0.91432606976E+02 0.  0.
          3    1    3    3  502    0  0.92889115951E+02 -0.17325644820E+03 -0.32969162172E+03  0.38385251091E+03  0.00000000000E+00 0. -1.
         -2    1    3    3    0  502  0.32272568616E+02 -0.25252104480E+03 -0.44288434024E+03  0.51083748451E+03  0.00000000000E+00 0.  1.
         11    1    5    5    0    0  0.72589103195E+02 -0.52815291649E+02  0.22962945208E+02  0.92660292397E+02  0.00000000000E+00 0.  1.
        -11    1    5    5    0    0  0.17791934544E+03 -0.56929391662E+01  0.12727478985E+03  0.21883001432E+03  0.00000000000E+00 0. -1.
          3    1    6    6  503    0 -0.14737659983E+03  0.14477462673E+03 -0.15499584609E+03  0.25826975631E+03  0.00000000000E+00 0. -1.
         -3    1    6    6    0  503 -0.22829353337E+03  0.33951109709E+03 -0.19168117060E+03  0.45180459668E+03  0.00000000000E+00 0.  1.
<mgrwt>
<rscale>  0 0.16531913E+04</rscale>
<asrwt>0</asrwt>
<pdfrwt beam="1">  1        1 0.72864569E-01 0.16531913E+04</pdfrwt>
<pdfrwt beam="2">  1       -2 0.22194384E+00 0.16531913E+04</pdfrwt>
<totfact> 0.38315211E+00</totfact>
</mgrwt>
</event>
<event>
12    4  0.4207946E-008  0.1404613E+04  0.7818608E-02  0.8950486E-01
          1   -1    0    0  501    0  0.00000000000E+00  0.00000000000E+00  0.61545236573E+03  0.61545236573E+03  0.00000000000E+00 0. -1.
         -2   -1    0    0    0  501 -0.00000000000E+00 -0.00000000000E+00 -0.80141731638E+03  0.80141731638E+03  0.00000000000E+00 0.  1.
        -24    2    1    2    0    0  0.22103706587E+03 -0.86616274675E+02 -0.38450066816E+03  0.46225402554E+03  0.97356339219E+02 0.  0.
        254    2    1    2    0    0 -0.22103706587E+03  0.86616274675E+02  0.19853571751E+03  0.95461565657E+03  0.90305861223E+03 0.  0.
         23    2    4    4    0    0  0.28979832085E+03 -0.17403275151E+03  0.11132571677E+03  0.36730182985E+03  0.90811638165E+02 0.  0.
         23    2    4    4    0    0 -0.51083538673E+03  0.26064902619E+03  0.87210000739E+02  0.58731382673E+03  0.91876219173E+02 0.  0.
          1    1    3    3  502    0  0.26958419100E+02 -0.48257787225E+02 -0.11842650416E+03  0.13069203218E+03  0.00000000000E+00 0. -1.
         -2    1    3    3    0  502  0.19407864677E+03 -0.38358487450E+02 -0.26607416400E+03  0.33156199336E+03  0.00000000000E+00 0.  1.
         11    1    5    5    0    0  0.23797606165E+03 -0.12755379719E+03  0.50137320076E+02  0.27462033421E+03  0.00000000000E+00 0. -1.
        -11    1    5    5    0    0  0.51822259200E+02 -0.46478954325E+02  0.61188396693E+02  0.92681495638E+02  0.00000000000E+00 0.  1.
          3    1    6    6  503    0 -0.17259621318E+03  0.92961216688E+02  0.74054906696E+02  0.20955994326E+03  0.00000000000E+00 0. -1.
         -3    1    6    6    0  503 -0.33823917355E+03  0.16768780950E+03  0.13155094043E+02  0.37775388347E+03  0.00000000000E+00 0.  1.
<mgrwt>
<rscale>  0 0.14046127E+04</rscale>
<asrwt>0</asrwt>
<pdfrwt beam="1">  1        1 0.94684980E-01 0.14046127E+04</pdfrwt>
<pdfrwt beam="2">  1       -2 0.12329497E+00 0.14046127E+04</pdfrwt>
<totfact> 0.13968719E+01</totfact>
</mgrwt>
</event>
<event>
12    4  0.4207946E-008  0.1765859E+04  0.7818608E-02  0.8724669E-01
          1   -1    0    0  501    0  0.00000000000E+00  0.00000000000E+00  0.11901778274E+04  0.11901778274E+04  0.00000000000E+00 0. -1.
         -4   -1    0    0    0  501 -0.00000000000E+00 -0.00000000000E+00 -0.65499846565E+03  0.65499846565E+03  0.00000000000E+00 0.  1.
        -24    2    1    2    0    0  0.30009201288E+03  0.32871335720E+03  0.68116521086E+03  0.81769770594E+03  0.80844334495E+02 0.  0.
        254    2    1    2    0    0 -0.30009201288E+03 -0.32871335720E+03 -0.14598584915E+03  0.10274785871E+04  0.91449039981E+03 0.  0.
         23    2    4    4    0    0 -0.41491384694E+03  0.19350480039E+03 -0.37728500972E+01  0.46699238036E+03  0.92032824399E+02 0.  0.
         23    2    4    4    0    0  0.11482183405E+03 -0.52221815759E+03 -0.14221299905E+03  0.56048620671E+03  0.89578977017E+02 0.  0.
          3    1    3    3  502    0  0.25207869408E+03  0.29441115841E+03  0.62958886861E+03  0.73932654604E+03  0.00000000000E+00 0. -1.
         -4    1    3    3    0  502  0.48013318802E+02  0.34302198788E+02  0.51576342252E+02  0.78371159901E+02  0.00000000000E+00 0.  1.
         11    1    5    5    0    0 -0.15864741495E+03  0.82965253086E+02  0.42715440463E+02  0.18405663352E+03  0.00000000000E+00 0.  1.
        -11    1    5    5    0    0 -0.25626643199E+03  0.11053954730E+03 -0.46488290560E+02  0.28293574684E+03  0.00000000000E+00 0. -1.
          1    1    6    6  503    0  0.39414979979E+02 -0.21291863672E+03 -0.13068023409E+02  0.21693008031E+03  0.00000000000E+00 0. -1.
         -1    1    6    6    0  503  0.75406854074E+02 -0.30929952087E+03 -0.12914497564E+03  0.34355612640E+03  0.00000000000E+00 0.  1.
<mgrwt>
<rscale>  0 0.17658592E+04</rscale>
<asrwt>0</asrwt>
<pdfrwt beam="1">  1        1 0.18310428E+00 0.17658592E+04</pdfrwt>
<pdfrwt beam="2">  1       -4 0.10076899E+00 0.17658592E+04</pdfrwt>
<totfact> 0.40636660E+00</totfact>
</mgrwt>
</event>
<event>
12    4  0.4207946E-008  0.2495209E+04  0.7818608E-02  0.8404694E-01
         -2   -1    0    0    0  501 -0.00000000000E+00  0.00000000000E+00  0.73013238701E+03  0.73013238701E+03  0.00000000000E+00 0.  1.
          1   -1    0    0  501    0  0.00000000000E+00 -0.00000000000E+00 -0.21318283499E+04  0.21318283499E+04  0.00000000000E+00 0. -1.
        -24    2    1    2    0    0 -0.77053544487E+02  0.84752787306E+03  0.15901299093E+03  0.86966787535E+03  0.82439904182E+02 0.  0.
        254    2    1    2    0    0  0.77053544487E+02 -0.84752787306E+03 -0.15607089538E+04  0.19922928615E+04  0.89954303027E+03 0.  0.
         23    2    4    4    0    0 -0.20256378759E+03 -0.16915090840E+03 -0.10687148758E+04  0.11041455870E+04  0.85684734268E+02 0.  0.
         23    2    4    4    0    0  0.27961733208E+03 -0.67837696467E+03 -0.49199407805E+03  0.88814727457E+03  0.91467206722E+02 0.  0.
          3    1    3    3  502    0 -0.56895791076E+02  0.22983756365E+03  0.52747917659E+02  0.24257942931E+03  0.00000000000E+00 0. -1.
         -4    1    3    3    0  502 -0.20157753411E+02  0.61769030941E+03  0.10626507327E+03  0.62708844604E+03  0.00000000000E+00 0.  1.
         11    1    5    5    0    0 -0.55739757661E+02 -0.14309607291E+02 -0.14277610625E+03  0.15393733128E+03  0.00000000000E+00 0. -1.
        -11    1    5    5    0    0 -0.14682402993E+03 -0.15484130110E+03 -0.92593876952E+03  0.95020825569E+03  0.00000000000E+00 0.  1.
          1    1    6    6  503    0  0.98502270048E+02 -0.17768379112E+03 -0.96653627822E+02  0.22498033381E+03  0.00000000000E+00 0. -1.
         -1    1    6    6    0  503  0.18111506203E+03 -0.50069317355E+03 -0.39534045023E+03  0.66316694076E+03  0.00000000000E+00 0.  1.
<mgrwt>
<rscale>  0 0.24952089E+04</rscale>
<asrwt>0</asrwt>
<pdfrwt beam="1">  1        1 0.32797359E+00 0.24952089E+04</pdfrwt>
<pdfrwt beam="2">  1       -2 0.11232806E+00 0.24952089E+04</pdfrwt>
<totfact> 0.11824516E+00</totfact>
</mgrwt>
</event>
<event>
12    4  0.4207946E-008  0.1788114E+04  0.7818608E-02  0.8712646E-01
         -2   -1    0    0    0  501 -0.00000000000E+00  0.00000000000E+00  0.11023151199E+04  0.11023151199E+04  0.00000000000E+00 0.  1.
          1   -1    0    0  501    0  0.00000000000E+00 -0.00000000000E+00 -0.72514448711E+03  0.72514448711E+03  0.00000000000E+00 0. -1.
        -24    2    1    2    0    0 -0.45878599695E+03  0.30660072152E+03 -0.22823941405E+03  0.60301905781E+03  0.83965234027E+02 0.  0.
        254    2    1    2    0    0  0.45878599695E+03 -0.30660072152E+03  0.60541004684E+03  0.12244405492E+04  0.91007952415E+03 0.  0.
         23    2    4    4    0    0  0.50530800732E+03 -0.16452897193E+03  0.79790521795E+03  0.96303125653E+03  0.91490433088E+02 0.  0.
         23    2    4    4    0    0 -0.46522010370E+02 -0.14207174960E+03 -0.19249517112E+03  0.26140929267E+03  0.94507925119E+02 0.  0.
          1    1    3    3  502    0 -0.46601639313E+02  0.27711602881E+02 -0.51834661048E+02  0.75009851399E+02  0.00000000000E+00 0. -1.
         -2    1    3    3    0  502 -0.41218435763E+03  0.27888911864E+03 -0.17640475300E+03  0.52800920641E+03  0.00000000000E+00 0.  1.
         11    1    5    5    0    0  0.28391337768E+03 -0.11424111241E+03  0.52856610843E+03  0.61076998025E+03  0.00000000000E+00 0. -1.
        -11    1    5    5    0    0  0.22139462964E+03 -0.50287859518E+02  0.26933910952E+03  0.35226127628E+03  0.00000000000E+00 0.  1.
          1    1    6    6  503    0 -0.51943689721E+02 -0.13845778032E+03 -0.12509313195E+03  0.19369304451E+03  0.00000000000E+00 0. -1.
         -1    1    6    6    0  503  0.54216793507E+01 -0.36139692806E+01 -0.67402039167E+02  0.67716248160E+02  0.00000000000E+00 0.  1.
<mgrwt>
<rscale>  0 0.17881138E+04</rscale>
<asrwt>0</asrwt>
<pdfrwt beam="1">  1        1 0.11156069E+00 0.17881138E+04</pdfrwt>
<pdfrwt beam="2">  1       -2 0.16958694E+00 0.17881138E+04</pdfrwt>
<totfact> 0.45786859E+00</totfact>
</mgrwt>
</event>
<event>
12    4  0.4207946E-008  0.1645415E+04  0.7818608E-02  0.8793123E-01
         -2   -1    0    0    0  501 -0.00000000000E+00  0.00000000000E+00  0.30398437758E+03  0.30398437758E+03  0.00000000000E+00 0.  1.
          1   -1    0    0  501    0  0.00000000000E+00 -0.00000000000E+00 -0.22265878098E+04  0.22265878098E+04  0.00000000000E+00 0. -1.
        -24    2    1    2    0    0 -0.35534039370E+03 -0.19495512910E+03 -0.12978901676E+04  0.13615884002E+04  0.71622527173E+02 0.  0.
        254    2    1    2    0    0  0.35534039370E+03  0.19495512910E+03 -0.62471326457E+03  0.11689837872E+04  0.90110051277E+03 0.  0.
         23    2    4    4    0    0  0.20393430616E+03 -0.30999780346E+03 -0.48244641712E+03  0.61542553929E+03  0.91138409274E+02 0.  0.
         23    2    4    4    0    0  0.15140608754E+03  0.50495293255E+03 -0.14226684745E+03  0.55355824794E+03  0.91025329116E+02 0.  0.
          1    1    3    3  502    0 -0.23034023389E+03 -0.86494580317E+02 -0.78605105677E+03  0.82365903117E+03  0.00000000000E+00 0. -1.
         -2    1    3    3    0  502 -0.12500015981E+03 -0.10846054878E+03 -0.51183911087E+03  0.53792936898E+03  0.00000000000E+00 0.  1.
         11    1    5    5    0    0  0.14527145794E+02 -0.89235704680E+02 -0.97968647440E+02  0.13331130798E+03  0.00000000000E+00 0. -1.
        -11    1    5    5    0    0  0.18940716037E+03 -0.22076209878E+03 -0.38447776968E+03  0.48211423131E+03  0.00000000000E+00 0.  1.
          4    1    6    6  503    0  0.29227964840E+02  0.25352255687E+03 -0.75804769488E+02  0.26622232034E+03  0.00000000000E+00 0.  1.
         -4    1    6    6    0  503  0.12217812270E+03  0.25143037568E+03 -0.66462077967E+02  0.28733592760E+03  0.00000000000E+00 0. -1.
<mgrwt>
<rscale>  0 0.16454153E+04</rscale>
<asrwt>0</asrwt>
<pdfrwt beam="1">  1        1 0.34255197E+00 0.16454153E+04</pdfrwt>
<pdfrwt beam="2">  1       -2 0.46766827E-01 0.16454153E+04</pdfrwt>
<totfact> 0.76080113E+00</totfact>
</mgrwt>
</event>
<event>
12    4  0.4207946E-008  0.1471018E+04  0.7818608E-02  0.8903957E-01
         -2   -1    0    0    0  501 -0.00000000000E+00  0.00000000000E+00  0.99358717725E+03  0.99358717725E+03  0.00000000000E+00 0.  1.
          1   -1    0    0  501    0  0.00000000000E+00 -0.00000000000E+00 -0.54446541277E+03  0.54446541277E+03  0.00000000000E+00 0. -1.
        -24    2    1    2    0    0 -0.71240718518E+02 -0.11800543669E+03  0.58937635315E+03  0.61056773767E+03  0.80174519464E+02 0.  0.
        254    2    1    2    0    0  0.71240718518E+02  0.11800543669E+03 -0.14025458868E+03  0.92748485235E+03  0.90639741760E+03 0.  0.
         23    2    4    4    0    0 -0.38506957706E+03  0.11569415425E+02  0.76941199694E+02  0.40324729748E+03  0.90972546189E+02 0.  0.
         23    2    4    4    0    0  0.45631029558E+03  0.10643602127E+03 -0.21719578837E+03  0.52423755487E+03  0.90018281321E+02 0.  0.
          1    1    3    3  502    0 -0.37564634580E+02 -0.71234454846E+02  0.18051237786E+03  0.19766175120E+03  0.00000000000E+00 0. -1.
         -4    1    3    3    0  502 -0.33676083937E+02 -0.46770981846E+02  0.40886397529E+03  0.41290598647E+03  0.00000000000E+00 0.  1.
         11    1    5    5    0    0 -0.78302043211E+02  0.28196774248E+01  0.54685101840E+02  0.95549049786E+02  0.00000000000E+00 0.  1.
        -11    1    5    5    0    0 -0.30676753385E+03  0.87497380004E+01  0.22256097854E+02  0.30769824769E+03  0.00000000000E+00 0. -1.
          2    1    6    6  503    0  0.16956945796E+02 -0.65163224384E+01 -0.26538754495E+02  0.32160627466E+02  0.00000000000E+00 0.  1.
         -2    1    6    6    0  503  0.43935334979E+03  0.11295234371E+03 -0.19065703388E+03  0.49207692740E+03  0.00000000000E+00 0. -1.
<mgrwt>
<rscale>  0 0.14710185E+04</rscale>
<asrwt>0</asrwt>
<pdfrwt beam="1">  1        1 0.83763910E-01 0.14710185E+04</pdfrwt>
<pdfrwt beam="2">  1       -2 0.15285957E+00 0.14710185E+04</pdfrwt>
<totfact> 0.95025421E+00</totfact>
</mgrwt>
</event>
<event>
12    4  0.4207946E-008  0.2052127E+04  0.7818608E-02  0.8582630E-01
          1   -1    0    0  501    0  0.00000000000E+00  0.00000000000E+00  0.25192988554E+04  0.25192988554E+04  0.00000000000E+00 0. -1.
         -2   -1    0    0    0  501 -0.00000000000E+00 -0.00000000000E+00 -0.41789673046E+03  0.41789673046E+03  0.00000000000E+00 0.  1.
        -24    2    1    2    0    0  0.49850355912E+03  0.55784290438E+03  0.34863328540E+03  0.82960694928E+03  0.83713906716E+02 0.  0.
        254    2    1    2    0    0 -0.49850355912E+03 -0.55784290438E+03  0.17527688395E+04  0.21075886366E+04  0.90002041741E+03 0.  0.
         23    2    4    4    0    0 -0.52487958393E+03 -0.66844120167E+03  0.89900422251E+03  0.12404881773E+04  0.91050032056E+02 0.  0.
         23    2    4    4    0    0  0.26376024807E+02  0.11059829730E+03  0.85376461700E+03  0.86710045920E+03  0.10010747755E+03 0.  0.
          3    1    3    3  502    0  0.11431017686E+03  0.79810068721E+02  0.59465995396E+02  0.15156737186E+03  0.00000000000E+00 0. -1.
         -4    1    3    3    0  502  0.38419338226E+03  0.47803283565E+03  0.28916729001E+03  0.67803957742E+03  0.00000000000E+00 0.  1.
         11    1    5    5    0    0 -0.47234135348E+03 -0.55530845041E+03  0.74577502815E+03  0.10429066219E+04  0.00000000000E+00 0.  1.
        -11    1    5    5    0    0 -0.52538230454E+02 -0.11313275126E+03  0.15322919436E+03  0.19758155549E+03  0.00000000000E+00 0. -1.
          3    1    6    6  503    0 -0.23953939924E+02  0.93605736699E+02  0.48516757551E+03  0.49469526126E+03  0.00000000000E+00 0. -1.
         -3    1    6    6    0  503  0.50329964730E+02  0.16992560597E+02  0.36859704149E+03  0.37240519795E+03  0.00000000000E+00 0.  1.
<mgrwt>
<rscale>  0 0.20521274E+04</rscale>
<asrwt>0</asrwt>
<pdfrwt beam="1">  1        1 0.38758443E+00 0.20521274E+04</pdfrwt>
<pdfrwt beam="2">  1       -2 0.64291807E-01 0.20521274E+04</pdfrwt>
<totfact> 0.23830242E+00</totfact>
</mgrwt>
</event>
<event>
12    4  0.4207946E-008  0.2019705E+04  0.7818608E-02  0.8597463E-01
          1   -1    0    0  501    0  0.00000000000E+00  0.00000000000E+00  0.14142100807E+04  0.14142100807E+04  0.00000000000E+00 0. -1.
         -2   -1    0    0    0  501 -0.00000000000E+00 -0.00000000000E+00 -0.72111089445E+03  0.72111089445E+03  0.00000000000E+00 0.  1.
        -24    2    1    2    0    0 -0.62516298541E+02  0.70740741585E+03  0.70546604812E+03  0.10042228327E+04  0.80297030307E+02 0.  0.
        254    2    1    2    0    0  0.62516298541E+02 -0.70740741585E+03 -0.12366861912E+02  0.11310981424E+04  0.88028207349E+03 0.  0.
         23    2    4    4    0    0 -0.23397330162E+02 -0.66348618510E+03  0.34247547480E+03  0.75195007200E+03  0.85895908251E+02 0.  0.
         23    2    4    4    0    0  0.85913628704E+02 -0.43921230748E+02 -0.35484233671E+03  0.37914807041E+03  0.92357724443E+02 0.  0.
          3    1    3    3  502    0 -0.23147172976E+02  0.41863652954E+03  0.46748153855E+03  0.62795805940E+03  0.00000000000E+00 0. -1.
         -4    1    3    3    0  502 -0.39369125566E+02  0.28877088631E+03  0.23798450957E+03  0.37626477330E+03  0.00000000000E+00 0.  1.
         11    1    5    5    0    0 -0.19758796742E+02 -0.42167184211E+03  0.17084624240E+03  0.45539652065E+03  0.00000000000E+00 0. -1.
        -11    1    5    5    0    0 -0.36385334205E+01 -0.24181434300E+03  0.17162923240E+03  0.29655355135E+03  0.00000000000E+00 0.  1.
          3    1    6    6  503    0  0.50200875948E+02  0.24806079709E+02 -0.15686305424E+03  0.16655775972E+03  0.00000000000E+00 0. -1.
         -3    1    6    6    0  503  0.35712752756E+02 -0.68727310457E+02 -0.19797928247E+03  0.21259031069E+03  0.00000000000E+00 0.  1.
<mgrwt>
<rscale>  0 0.20197052E+04</rscale>
<asrwt>0</asrwt>
<pdfrwt beam="1">  1        1 0.21757078E+00 0.20197052E+04</pdfrwt>
<pdfrwt beam="2">  1       -2 0.11094014E+00 0.20197052E+04</pdfrwt>
<totfact> 0.39274897E+00</totfact>
</mgrwt>
</event>
<event>
12    4  0.4207946E-008  0.1135706E+04  0.7818608E-02  0.9171072E-01
          1   -1    0    0  501    0  0.00000000000E+00  0.00000000000E+00  0.20645821281E+04  0.20645821281E+04  0.00000000000E+00 0. -1.
         -2   -1    0    0    0  501 -0.00000000000E+00 -0.00000000000E+00 -0.15618526031E+03  0.15618526031E+03  0.00000000000E+00 0.  1.
        -24    2    1    2    0    0 -0.14244254554E+03 -0.13374210010E+03  0.43979448850E+03  0.48777075918E+03  0.79525425385E+02 0.  0.
        254    2    1    2    0    0  0.14244254554E+03  0.13374210010E+03  0.14686023792E+04  0.17329966292E+04  0.89905925296E+03 0.  0.
         23    2    4    4    0    0 -0.88700960896E+02 -0.27426214873E+03  0.10660714281E+04  0.11081020958E+04  0.91073477728E+02 0.  0.
         23    2    4    4    0    0  0.23114350644E+03  0.40800424883E+03  0.40253095116E+03  0.62489453334E+03  0.92559297355E+02 0.  0.
          1    1    3    3  502    0 -0.48722057724E+02 -0.87531769665E+01  0.15794984823E+03  0.16552525962E+03  0.00000000000E+00 0. -1.
         -2    1    3    3    0  502 -0.93720487816E+02 -0.12498892313E+03  0.28184464027E+03  0.32224549957E+03  0.00000000000E+00 0.  1.
         11    1    5    5    0    0 -0.48757837908E+02 -0.11123257732E+03  0.29594466786E+03  0.31989570089E+03  0.00000000000E+00 0.  1.
        -11    1    5    5    0    0 -0.39943122987E+02 -0.16302957141E+03  0.77012676022E+03  0.78820639495E+03  0.00000000000E+00 0. -1.
          1    1    6    6  503    0  0.23568342334E+03  0.40265747792E+03  0.40462248029E+03  0.61757515504E+03  0.00000000000E+00 0. -1.
         -1    1    6    6    0  503 -0.45399169041E+01  0.53467709108E+01 -0.20915291303E+01  0.73193783050E+01  0.00000000000E+00 0.  1.
<mgrwt>
<rscale>  0 0.11357065E+04</rscale>
<asrwt>0</asrwt>
<pdfrwt beam="1">  1        1 0.31762800E+00 0.11357065E+04</pdfrwt>
<pdfrwt beam="2">  1       -2 0.24028503E-01 0.11357065E+04</pdfrwt>
<totfact> 0.36345048E+01</totfact>
</mgrwt>
</event>
<event>
12    4  0.4207946E-008  0.3209228E+04  0.7818608E-02  0.8186384E-01
          1   -1    0    0  501    0  0.00000000000E+00  0.00000000000E+00  0.21502821069E+04  0.21502821069E+04  0.00000000000E+00 0. -1.
         -2   -1    0    0    0  501 -0.00000000000E+00 -0.00000000000E+00 -0.11974181607E+04  0.11974181607E+04  0.00000000000E+00 0.  1.
        -24    2    1    2    0    0  0.75900364699E+03  0.52646142865E+03  0.16512033772E+04  0.18936655815E+04  0.79047894523E+02 0.  0.
        254    2    1    2    0    0 -0.75900364699E+03 -0.52646142865E+03 -0.69833943104E+03  0.14540346861E+04  0.87936951019E+03 0.  0.
         23    2    4    4    0    0 -0.26894008668E+03 -0.65776865038E+03 -0.58647900469E+03  0.92635040124E+03  0.95807490744E+02 0.  0.
         23    2    4    4    0    0 -0.49006356031E+03  0.13130722173E+03 -0.11186042635E+03  0.52768428487E+03  0.92380029738E+02 0.  0.
          3    1    3    3  502    0  0.60345033884E+03  0.45387997526E+03  0.13651351457E+04  0.15600491369E+04  0.00000000000E+00 0. -1.
         -4    1    3    3    0  502  0.15555330814E+03  0.72581453397E+02  0.28606823147E+03  0.33361644460E+03  0.00000000000E+00 0.  1.
         11    1    5    5    0    0 -0.76137306091E+02 -0.29799819540E+03 -0.27985689586E+03  0.41583614081E+03  0.00000000000E+00 0. -1.
        -11    1    5    5    0    0 -0.19280278059E+03 -0.35977045498E+03 -0.30662210883E+03  0.51051426043E+03  0.00000000000E+00 0.  1.
          3    1    6    6  503    0 -0.41308360678E+03  0.95587702577E+02 -0.12446524430E+03  0.44188988687E+03  0.00000000000E+00 0. -1.
         -3    1    6    6    0  503 -0.76979953522E+02  0.35719519152E+02  0.12604817946E+02  0.85794398000E+02  0.00000000000E+00 0.  1.
<mgrwt>
<rscale>  0 0.32092285E+04</rscale>
<asrwt>0</asrwt>
<pdfrwt beam="1">  1        1 0.33081263E+00 0.32092285E+04</pdfrwt>
<pdfrwt beam="2">  1       -2 0.18421818E+00 0.32092285E+04</pdfrwt>
<totfact> 0.29372374E-01</totfact>
</mgrwt>
</event>
<event>
12    4  0.4207946E-008  0.1346644E+04  0.7818608E-02  0.8993372E-01
         -2   -1    0    0    0  501 -0.00000000000E+00  0.00000000000E+00  0.77948664855E+03  0.77948664855E+03  0.00000000000E+00 0.  1.
          1   -1    0    0  501    0  0.00000000000E+00 -0.00000000000E+00 -0.58161673909E+03  0.58161673909E+03  0.00000000000E+00 0. -1.
        -24    2    1    2    0    0  0.30782411855E+03  0.16558063522E+02  0.21232662997E+03  0.38347594801E+03  0.83314749452E+02 0.  0.
        254    2    1    2    0    0 -0.30782411855E+03 -0.16558063522E+02 -0.14456720512E+02  0.97762743963E+03  0.92764031635E+03 0.  0.
         23    2    4    4    0    0 -0.41020458033E+02  0.38958666172E+03 -0.19991866679E+03  0.44909239707E+03  0.90862879160E+02 0.  0.
         23    2    4    4    0    0 -0.26680366052E+03 -0.40614472524E+03  0.18546194628E+03  0.52853504255E+03  0.93890503130E+02 0.  0.
          3    1    3    3  502    0  0.14887828286E+03 -0.33559444702E+02  0.97922663752E+02  0.18132795568E+03  0.00000000000E+00 0. -1.
         -4    1    3    3    0  502  0.15894583570E+03  0.50117508224E+02  0.11440396622E+03  0.20214799233E+03  0.00000000000E+00 0.  1.
         11    1    5    5    0    0 -0.58937551602E+02  0.30813056422E+03 -0.12749938621E+03  0.33863575281E+03  0.00000000000E+00 0.  1.
        -11    1    5    5    0    0  0.17917093569E+02  0.81456097497E+02 -0.72419280589E+02  0.11045664427E+03  0.00000000000E+00 0. -1.
          2    1    6    6  503    0  0.35388806832E+01  0.12304356299E+01  0.72326527635E+01  0.81454842904E+01  0.00000000000E+00 0. -1.
         -2    1    6    6    0  503 -0.27034254121E+03 -0.40737516087E+03  0.17822929352E+03  0.52038955826E+03  0.00000000000E+00 0.  1.
<mgrwt>
<rscale>  0 0.13466440E+04</rscale>
<asrwt>0</asrwt>
<pdfrwt beam="1">  1        1 0.89479498E-01 0.13466440E+04</pdfrwt>
<pdfrwt beam="2">  1       -2 0.11992102E+00 0.13466440E+04</pdfrwt>
<totfact> 0.16317022E+01</totfact>
</mgrwt>
</event>
<event>
12    4  0.4207946E-008  0.1461617E+04  0.7818608E-02  0.8910386E-01
         -2   -1    0    0    0  501 -0.00000000000E+00  0.00000000000E+00  0.54440013782E+03  0.54440013782E+03  0.00000000000E+00 0.  1.
          1   -1    0    0  501    0  0.00000000000E+00 -0.00000000000E+00 -0.98104473487E+03  0.98104473487E+03  0.00000000000E+00 0. -1.
        -24    2    1    2    0    0  0.22000658472E+03 -0.33586223114E+03 -0.22184911063E+03  0.46629779210E+03  0.83727339616E+02 0.  0.
        254    2    1    2    0    0 -0.22000658472E+03  0.33586223114E+03 -0.21479548641E+03  0.10591470806E+04  0.95626832097E+03 0.  0.
         23    2    4    4    0    0  0.22351345988E+03  0.38375448861E+03 -0.36230648629E+03  0.58054699400E+03  0.92428610099E+02 0.  0.
         23    2    4    4    0    0 -0.44352004460E+03 -0.47892257466E+02  0.14751099987E+03  0.47860008658E+03  0.91076064361E+02 0.  0.
          1    1    3    3  502    0  0.18727914102E+03 -0.31964365441E+03 -0.21729002995E+03  0.42948864895E+03  0.00000000000E+00 0. -1.
         -2    1    3    3    0  502  0.32727443703E+02 -0.16218576737E+02 -0.45590806861E+01  0.36809143149E+02  0.00000000000E+00 0.  1.
         11    1    5    5    0    0  0.21041382411E+03  0.32795325729E+03 -0.27822232206E+03  0.47878489621E+03  0.00000000000E+00 0. -1.
        -11    1    5    5    0    0  0.13099635771E+02  0.55801231322E+02 -0.84084164229E+02  0.10176209780E+03  0.00000000000E+00 0.  1.
          4    1    6    6  503    0 -0.39257063444E+03 -0.26803233929E+02  0.15507902036E+03  0.42294162591E+03  0.00000000000E+00 0. -1.
         -4    1    6    6    0  503 -0.50949410167E+02 -0.21089023537E+02 -0.75680204852E+01  0.55658460670E+02  0.00000000000E+00 0.  1.
<mgrwt>
<rscale>  0 0.14616168E+04</rscale>
<asrwt>0</asrwt>
<pdfrwt beam="1">  1        1 0.15092996E+00 0.14616168E+04</pdfrwt>
<pdfrwt beam="2">  1       -2 0.83753869E-01 0.14616168E+04</pdfrwt>
<totfact> 0.16598725E+01</totfact>
</mgrwt>
</event>
<event>
12    4  0.4207946E-008  0.1140911E+04  0.7818608E-02  0.9166209E-01
         -2   -1    0    0    0  501 -0.00000000000E+00  0.00000000000E+00  0.17239051090E+03  0.17239051090E+03  0.00000000000E+00 0.  1.
          1   -1    0    0  501    0  0.00000000000E+00 -0.00000000000E+00 -0.18876894723E+04  0.18876894723E+04  0.00000000000E+00 0. -1.
        -24    2    1    2    0    0 -0.15590450558E+03  0.11719632727E+03 -0.42399263511E+03  0.47088447393E+03  0.62619798581E+02 0.  0.
        254    2    1    2    0    0  0.15590450558E+03 -0.11719632727E+03 -0.12913063263E+04  0.15891955093E+04  0.90555460597E+03 0.  0.
         23    2    4    4    0    0 -0.35718106783E+03  0.37823378419E+02 -0.64551350439E+03  0.74484425419E+03  0.95374815697E+02 0.  0.
         23    2    4    4    0    0  0.51308557341E+03 -0.15501970569E+03 -0.64579282194E+03  0.84435125512E+03  0.92697132435E+02 0.  0.
          1    1    3    3  502    0 -0.14810593883E+03  0.11101914909E+03 -0.34726383580E+03  0.39351339524E+03  0.00000000000E+00 0. -1.
         -2    1    3    3    0  502 -0.77985667550E+01  0.61771781796E+01 -0.76728799313E+02  0.77371078690E+02  0.00000000000E+00 0.  1.
         11    1    5    5    0    0 -0.14909212134E+03 -0.31103134904E+02 -0.25551812565E+03  0.29746491925E+03  0.00000000000E+00 0.  1.
        -11    1    5    5    0    0 -0.20808894649E+03  0.68926513323E+02 -0.38999537874E+03  0.44737933493E+03  0.00000000000E+00 0. -1.
          1    1    6    6  503    0  0.27013785011E+03 -0.12457731622E+03 -0.38647400136E+03  0.48770495128E+03  0.00000000000E+00 0. -1.
         -1    1    6    6    0  503  0.24294772330E+03 -0.30442389462E+02 -0.25931882058E+03  0.35664630384E+03  0.00000000000E+00 0.  1.
<mgrwt>
<rscale>  0 0.11409115E+04</rscale>
<asrwt>0</asrwt>
<pdfrwt beam="1">  1        1 0.29041377E+00 0.11409115E+04</pdfrwt>
<pdfrwt beam="2">  1       -2 0.26521616E-01 0.11409115E+04</pdfrwt>
<totfact> 0.39973400E+01</totfact>
</mgrwt>
</event>
<event>
12    4  0.4207946E-008  0.1239585E+04  0.7818608E-02  0.9078896E-01
          1   -1    0    0  501    0  0.00000000000E+00  0.00000000000E+00  0.56204201534E+03  0.56204201534E+03  0.00000000000E+00 0. -1.
         -2   -1    0    0    0  501 -0.00000000000E+00 -0.00000000000E+00 -0.68347722207E+03  0.68347722207E+03  0.00000000000E+00 0.  1.
        -24    2    1    2    0    0 -0.26498609082E+02 -0.23064814758E+03 -0.20072086347E+03  0.31687586108E+03  0.78871427265E+02 0.  0.
        254    2    1    2    0    0  0.26498609082E+02  0.23064814758E+03  0.79285656747E+02  0.92864337633E+03  0.89565147282E+03 0.  0.
         23    2    4    4    0    0  0.11954291209E+03  0.55086280372E+03  0.11037018849E+03  0.58157211141E+03  0.91127415782E+02 0.  0.
         23    2    4    4    0    0 -0.93044303007E+02 -0.32021465613E+03 -0.31084531740E+02  0.34707126492E+03  0.91090869439E+02 0.  0.
          3    1    3    3  502    0 -0.15835730025E+02 -0.13572534935E+03 -0.66057918407E+02  0.15177545713E+03  0.00000000000E+00 0. -1.
         -4    1    3    3    0  502 -0.10662879057E+02 -0.94922798234E+02 -0.13466294506E+03  0.16510040396E+03  0.00000000000E+00 0.  1.
         11    1    5    5    0    0  0.77988894335E+01  0.91477521151E+02 -0.13592464798E+02  0.92810099944E+02  0.00000000000E+00 0.  1.
        -11    1    5    5    0    0  0.11174402266E+03  0.45938528257E+03  0.12396265328E+03  0.48876201146E+03  0.00000000000E+00 0. -1.
          3    1    6    6  503    0 -0.39497657394E+02 -0.25946751121E+03 -0.68555128076E+01  0.26254609570E+03  0.00000000000E+00 0. -1.
         -3    1    6    6    0  503 -0.53546645613E+02 -0.60747144924E+02 -0.24229018932E+02  0.84525169217E+02  0.00000000000E+00 0.  1.
<mgrwt>
<rscale>  0 0.12395853E+04</rscale>
<asrwt>0</asrwt>
<pdfrwt beam="1">  1        1 0.86468003E-01 0.12395853E+04</pdfrwt>
<pdfrwt beam="2">  1       -2 0.10515034E+00 0.12395853E+04</pdfrwt>
<totfact> 0.23794307E+01</totfact>
</mgrwt>
</event>
<event>
12    4  0.4207946E-008  0.1964804E+04  0.7818608E-02  0.8623255E-01
         -2   -1    0    0    0  501 -0.00000000000E+00  0.00000000000E+00  0.74190579206E+03  0.74190579206E+03  0.00000000000E+00 0.  1.
          1   -1    0    0  501    0  0.00000000000E+00 -0.00000000000E+00 -0.13008571678E+04  0.13008571678E+04  0.00000000000E+00 0. -1.
        -24    2    1    2    0    0 -0.73320325118E+02 -0.37456880729E+03 -0.92001123041E+03  0.99917984196E+03  0.79132995885E+02 0.  0.
        254    2    1    2    0    0  0.73320325118E+02  0.37456880729E+03  0.36105985466E+03  0.10435831179E+04  0.90167834835E+03 0.  0.
         23    2    4    4    0    0 -0.54293469265E+02  0.60619246315E+03  0.43592300467E+03  0.75434065557E+03  0.92649206451E+02 0.  0.
         23    2    4    4    0    0  0.12761379438E+03 -0.23162365586E+03 -0.74863150011E+02  0.28924246235E+03  0.90121652907E+02 0.  0.
          3    1    3    3  502    0  0.63044465198E-01 -0.15642270634E+02 -0.97811778681E+02  0.99054675074E+02  0.00000000000E+00 0. -1.
         -4    1    3    3    0  502 -0.73383369583E+02 -0.35892653665E+03 -0.82219945173E+03  0.90012516689E+03  0.00000000000E+00 0.  1.
         11    1    5    5    0    0 -0.73712546861E+02  0.50964676671E+03  0.38835286321E+03  0.64497388532E+03  0.00000000000E+00 0.  1.
        -11    1    5    5    0    0  0.19419077595E+02  0.96545696441E+02  0.47570141468E+02  0.10936677025E+03  0.00000000000E+00 0. -1.
          1    1    6    6  503    0 -0.90827696872E+01 -0.23105907447E+01 -0.11546747012E+02  0.14871546703E+02  0.00000000000E+00 0. -1.
         -1    1    6    6    0  503  0.13669656407E+03 -0.22931306512E+03 -0.63316402999E+02  0.27437091564E+03  0.00000000000E+00 0.  1.
<mgrwt>
<rscale>  0 0.19648038E+04</rscale>
<asrwt>0</asrwt>
<pdfrwt beam="1">  1        1 0.20013187E+00 0.19648038E+04</pdfrwt>
<pdfrwt beam="2">  1       -2 0.11413935E+00 0.19648038E+04</pdfrwt>
<totfact> 0.44287842E+00</totfact>
</mgrwt>
</event>
<event>
12    4  0.4207946E-008  0.1375941E+04  0.7818608E-02  0.8971420E-01
          1   -1    0    0  501    0  0.00000000000E+00  0.00000000000E+00  0.22132422202E+04  0.22132422202E+04  0.00000000000E+00 0. -1.
         -2   -1    0    0    0  501 -0.00000000000E+00 -0.00000000000E+00 -0.21385068150E+03  0.21385068150E+03  0.00000000000E+00 0.  1.
        -24    2    1    2    0    0  0.34740768254E+03 -0.12276180023E+03  0.34312093180E+03  0.51030749095E+03  0.83181752813E+02 0.  0.
        254    2    1    2    0    0 -0.34740768254E+03  0.12276180023E+03  0.16562706069E+04  0.19167854108E+04  0.89166778010E+03 0.  0.
         23    2    4    4    0    0 -0.50716492059E+03  0.61303499507E+02  0.42597186696E+03  0.67104635402E+03  0.88751349702E+02 0.  0.
         23    2    4    4    0    0  0.15975723806E+03  0.61458300726E+02  0.12302987400E+04  0.12457390568E+04  0.94505608743E+02 0.  0.
          1    1    3    3  502    0  0.29076669862E+02 -0.10721444390E+02  0.29386323065E+01  0.31129369732E+02  0.00000000000E+00 0. -1.
         -2    1    3    3    0  502  0.31833101267E+03 -0.11204035584E+03  0.34018229949E+03  0.47917812122E+03  0.00000000000E+00 0.  1.
         11    1    5    5    0    0 -0.21146826009E+03 -0.17233581655E+02  0.18730008059E+03  0.28301438401E+03  0.00000000000E+00 0.  1.
        -11    1    5    5    0    0 -0.29569666050E+03  0.78537081162E+02  0.23867178636E+03  0.38803197001E+03  0.00000000000E+00 0. -1.
          1    1    6    6  503    0  0.17066274124E+03  0.50323564293E+02  0.11703302269E+04  0.11837783037E+04  0.00000000000E+00 0. -1.
         -1    1    6    6    0  503 -0.10905503179E+02  0.11134736433E+02  0.59968513077E+02  0.61960753028E+02  0.00000000000E+00 0.  1.
<mgrwt>
<rscale>  0 0.13759409E+04</rscale>
<asrwt>0</asrwt>
<pdfrwt beam="1">  1        1 0.34049879E+00 0.13759409E+04</pdfrwt>
<pdfrwt beam="2">  1       -2 0.32900106E-01 0.13759409E+04</pdfrwt>
<totfact> 0.15804474E+01</totfact>
</mgrwt>
</event>
<event>
12    4  0.4207946E-008  0.1918253E+04  0.7818608E-02  0.8645824E-01
         -2   -1    0    0    0  501 -0.00000000000E+00  0.00000000000E+00  0.51399174722E+03  0.51399174722E+03  0.00000000000E+00 0.  1.
          1   -1    0    0  501    0  0.00000000000E+00 -0.00000000000E+00 -0.17897639250E+04  0.17897639250E+04  0.00000000000E+00 0. -1.
        -24    2    1    2    0    0  0.86020281746E+02 -0.46730427228E+03 -0.11716045474E+04  0.12667224521E+04  0.78458801663E+02 0.  0.
        254    2    1    2    0    0 -0.86020281746E+02  0.46730427228E+03 -0.10416763039E+03  0.10370332201E+04  0.91586802136E+03 0.  0.
         23    2    4    4    0    0  0.32332460490E+03  0.27909045778E+03 -0.30760813512E+03  0.53418362365E+03  0.91099370036E+02 0.  0.
         23    2    4    4    0    0 -0.40934488664E+03  0.18821381449E+03  0.20344050472E+03  0.50284959642E+03  0.92097782117E+02 0.  0.
          1    1    3    3  502    0  0.74577545358E+02 -0.39424580611E+03 -0.90310822997E+03  0.98822873918E+03  0.00000000000E+00 0. -1.
         -2    1    3    3    0  502  0.11442736388E+02 -0.73058466163E+02 -0.26849631741E+03  0.27849371296E+03  0.00000000000E+00 0.  1.
         11    1    5    5    0    0  0.20625626623E+03  0.23228266411E+03 -0.22017799093E+03  0.38075613074E+03  0.00000000000E+00 0.  1.
        -11    1    5    5    0    0  0.11706833867E+03  0.46807793676E+02 -0.87430144193E+02  0.15342749291E+03  0.00000000000E+00 0. -1.
          4    1    6    6  503    0 -0.12400714126E+03  0.46607989488E+02  0.16491777305E+02  0.13349926773E+03  0.00000000000E+00 0. -1.
         -4    1    6    6    0  503 -0.28533774539E+03  0.14160582501E+03  0.18694872742E+03  0.36935032869E+03  0.00000000000E+00 0.  1.
<mgrwt>
<rscale>  0 0.19182533E+04</rscale>
<asrwt>0</asrwt>
<pdfrwt beam="1">  1        1 0.27534830E+00 0.19182533E+04</pdfrwt>
<pdfrwt beam="2">  1       -2 0.79075653E-01 0.19182533E+04</pdfrwt>
<totfact> 0.48175559E+00</totfact>
</mgrwt>
</event>
<event>
12    4  0.4207946E-008  0.1590909E+04  0.7818608E-02  0.8826152E-01
         -4   -1    0    0    0  501 -0.00000000000E+00  0.00000000000E+00  0.16416283058E+04  0.16416283058E+04  0.00000000000E+00 0.  1.
          3   -1    0    0  501    0  0.00000000000E+00 -0.00000000000E+00 -0.38543933850E+03  0.38543933850E+03  0.00000000000E+00 0. -1.
        -24    2    1    2    0    0  0.21305638619E+03 -0.13228404534E+03  0.10158261950E+04  0.10494016035E+04  0.80304263002E+02 0.  0.
        254    2    1    2    0    0 -0.21305638619E+03  0.13228404534E+03  0.24036277222E+03  0.97766604072E+03  0.91387336790E+03 0.  0.
         23    2    4    4    0    0  0.15646953565E+03 -0.31280271830E+03  0.82652207829E+02  0.37097414542E+03  0.91990069856E+02 0.  0.
         23    2    4    4    0    0 -0.36952592184E+03  0.44508676364E+03  0.15771056439E+03  0.60669189529E+03  0.92470533753E+02 0.  0.
          3    1    3    3  502    0  0.30576308408E+02 -0.48961771078E+02  0.32302566538E+03  0.32814287461E+03  0.00000000000E+00 0. -1.
         -4    1    3    3    0  502  0.18248007778E+03 -0.83322274266E+02  0.69280052966E+03  0.72125872894E+03  0.00000000000E+00 0.  1.
         11    1    5    5    0    0  0.21766630046E+02 -0.12827207083E+03  0.69420979471E+01  0.13029084029E+03  0.00000000000E+00 0. -1.
        -11    1    5    5    0    0  0.13470290561E+03 -0.18453064747E+03  0.75710109882E+02  0.24068330514E+03  0.00000000000E+00 0.  1.
          3    1    6    6  503    0 -0.34844214356E+03  0.43504951457E+03  0.16652800593E+03  0.58173153971E+03  0.00000000000E+00 0. -1.
         -3    1    6    6    0  503 -0.21083778286E+02  0.10037249075E+02 -0.88174415369E+01  0.24960355587E+02  0.00000000000E+00 0.  1.
<mgrwt>
<rscale>  0 0.15909093E+04</rscale>
<asrwt>0</asrwt>
<pdfrwt beam="1">  1        3 0.59298361E-01 0.15909093E+04</pdfrwt>
<pdfrwt beam="2">  1       -4 0.25255820E+00 0.15909093E+04</pdfrwt>
<totfact> 0.37250848E-01</totfact>
</mgrwt>
</event>
<event>
12    4  0.4207946E-008  0.2925130E+04  0.7818608E-02  0.8265440E-01
          1   -1    0    0  501    0  0.00000000000E+00  0.00000000000E+00  0.25052488157E+04  0.25052488157E+04  0.00000000000E+00 0. -1.
         -2   -1    0    0    0  501 -0.00000000000E+00 -0.00000000000E+00 -0.85384590725E+03  0.85384590725E+03  0.00000000000E+00 0.  1.
        -24    2    1    2    0    0  0.11024209691E+04 -0.64966748480E+03  0.37145562840E+03  0.13348284597E+04  0.79924332485E+02 0.  0.
        254    2    1    2    0    0 -0.11024209691E+04  0.64966748480E+03  0.12799472801E+04  0.20242662633E+04  0.90663610733E+03 0.  0.
         23    2    4    4    0    0 -0.12064751232E+03  0.21890732283E+03  0.80583459397E+03  0.84849416167E+03  0.89981727728E+02 0.  0.
         23    2    4    4    0    0 -0.98177345677E+03  0.43076016198E+03  0.47411268608E+03  0.11757721016E+04  0.90684939786E+02 0.  0.
          1    1    3    3  502    0  0.51702489771E+03 -0.32817676550E+03  0.21353374509E+03  0.64854559944E+03  0.00000000000E+00 0. -1.
         -2    1    3    3    0  502  0.58539607138E+03 -0.32149071931E+03  0.15792188331E+03  0.68628286021E+03  0.00000000000E+00 0.  1.
         11    1    5    5    0    0 -0.11511782943E+03  0.22715690599E+03  0.78736080706E+03  0.82752003909E+03  0.00000000000E+00 0.  1.
        -11    1    5    5    0    0 -0.55296828883E+01 -0.82495831642E+01  0.18473786911E+02  0.20974122582E+02  0.00000000000E+00 0. -1.
          3    1    6    6  503    0 -0.98653032656E+02  0.30740709294E+02  0.20233487221E+02  0.10529390327E+03  0.00000000000E+00 0. -1.
         -3    1    6    6    0  503 -0.88312042412E+03  0.40001945268E+03  0.45387919886E+03  0.10704781984E+04  0.00000000000E+00 0.  1.
<mgrwt>
<rscale>  0 0.29251300E+04</rscale>
<asrwt>0</asrwt>
<pdfrwt beam="1">  1        1 0.38542289E+00 0.29251300E+04</pdfrwt>
<pdfrwt beam="2">  1       -2 0.13136091E+00 0.29251300E+04</pdfrwt>
<totfact> 0.42799809E-01</totfact>
</mgrwt>
</event>
<event>
12    4  0.4207946E-008  0.1162454E+04  0.7818608E-02  0.9146371E-01
         -2   -1    0    0    0  501 -0.00000000000E+00  0.00000000000E+00  0.75293854690E+03  0.75293854690E+03  0.00000000000E+00 0.  1.
          1   -1    0    0  501    0  0.00000000000E+00 -0.00000000000E+00 -0.44867507380E+03  0.44867507380E+03  0.00000000000E+00 0. -1.
        -24    2    1    2    0    0 -0.14100714206E+03  0.37847222093E+01  0.23839402445E+03  0.28883722376E+03  0.81840654350E+02 0.  0.
        254    2    1    2    0    0  0.14100714206E+03 -0.37847222093E+01  0.65869448654E+02  0.91277639693E+03  0.89940237286E+03 0.  0.
         23    2    4    4    0    0  0.45358296436E+03  0.37738423362E+02  0.26089001853E+03  0.53083497777E+03  0.80996775838E+02 0.  0.
         23    2    4    4    0    0 -0.31257582231E+03 -0.41523145572E+02 -0.19502056987E+03  0.38194141917E+03  0.91751886580E+02 0.  0.
          3    1    3    3  502    0 -0.48701012266E+02  0.23932187688E+02  0.35003441628E+02  0.64573826967E+02  0.00000000000E+00 0. -1.
         -4    1    3    3    0  502 -0.92306129790E+02 -0.20147465479E+02  0.20339058282E+03  0.22426339679E+03  0.00000000000E+00 0.  1.
         11    1    5    5    0    0  0.18143519916E+03  0.36605078701E+02  0.14460975985E+03  0.23488432456E+03  0.00000000000E+00 0. -1.
        -11    1    5    5    0    0  0.27214776520E+03  0.11333446616E+01  0.11628025868E+03  0.29595065321E+03  0.00000000000E+00 0.  1.
          3    1    6    6  503    0 -0.14311758504E+03 -0.31613191144E+02 -0.14208106697E+03  0.20413002375E+03  0.00000000000E+00 0. -1.
         -3    1    6    6    0  503 -0.16945823726E+03 -0.99099544273E+01 -0.52939502902E+02  0.17781139542E+03  0.00000000000E+00 0.  1.
<mgrwt>
<rscale>  0 0.11624539E+04</rscale>
<asrwt>0</asrwt>
<pdfrwt beam="1">  1        1 0.69026935E-01 0.11624539E+04</pdfrwt>
<pdfrwt beam="2">  1       -2 0.11583670E+00 0.11624539E+04</pdfrwt>
<totfact> 0.25824265E+01</totfact>
</mgrwt>
</event>
<event>
12    4  0.4207946E-008  0.1153441E+04  0.7818608E-02  0.9154615E-01
          1   -1    0    0  501    0  0.00000000000E+00  0.00000000000E+00  0.11876151539E+04  0.11876151539E+04  0.00000000000E+00 0. -1.
         -2   -1    0    0    0  501 -0.00000000000E+00 -0.00000000000E+00 -0.28006246656E+03  0.28006246656E+03  0.00000000000E+00 0.  1.
        -24    2    1    2    0    0 -0.11473195160E+03 -0.14783863864E+03  0.64889205964E+02  0.21332687945E+03  0.79234239122E+02 0.  0.
        254    2    1    2    0    0  0.11473195160E+03  0.14783863864E+03  0.84266348142E+03  0.12543507410E+04  0.91010678212E+03 0.  0.
         23    2    4    4    0    0 -0.34673283291E+03  0.20208817436E+03  0.20707551089E+03  0.46167799631E+03  0.95932358635E+02 0.  0.
         23    2    4    4    0    0  0.46146478451E+03 -0.54249535721E+02  0.63558797053E+03  0.79267274474E+03  0.92006806824E+02 0.  0.
          3    1    3    3  502    0 -0.66027379294E+01 -0.28121032306E+02  0.41139490087E+02  0.50267745630E+02  0.00000000000E+00 0. -1.
         -4    1    3    3    0  502 -0.10812921368E+03 -0.11971760633E+03  0.23749715877E+02  0.16305913382E+03  0.00000000000E+00 0.  1.
         11    1    5    5    0    0 -0.26463971926E+03  0.19173720488E+03  0.14157471689E+03  0.35614707244E+03  0.00000000000E+00 0. -1.
        -11    1    5    5    0    0 -0.82093113650E+02  0.10350969477E+02  0.65500794004E+02  0.10553092387E+03  0.00000000000E+00 0.  1.
          1    1    6    6  503    0  0.45636910408E+03 -0.44969595341E+02  0.63320540821E+03  0.78182102341E+03  0.00000000000E+00 0. -1.
         -1    1    6    6    0  503  0.50956804322E+01 -0.92799403796E+01  0.23825623155E+01  0.10851721324E+02  0.00000000000E+00 0.  1.
<mgrwt>
<rscale>  0 0.11534408E+04</rscale>
<asrwt>0</asrwt>
<pdfrwt beam="1">  1        1 0.18271002E+00 0.11534408E+04</pdfrwt>
<pdfrwt beam="2">  1       -2 0.43086534E-01 0.11534408E+04</pdfrwt>
<totfact> 0.48515071E+01</totfact>
</mgrwt>
</event>
<event>
12    4  0.4207946E-008  0.1275044E+04  0.7818608E-02  0.9049593E-01
         -2   -1    0    0    0  501 -0.00000000000E+00  0.00000000000E+00  0.50618093836E+03  0.50618093836E+03  0.00000000000E+00 0.  1.
          1   -1    0    0  501    0  0.00000000000E+00 -0.00000000000E+00 -0.80294235421E+03  0.80294235421E+03  0.00000000000E+00 0. -1.
        -24    2    1    2    0    0 -0.25609707438E+03 -0.16879712379E+03 -0.11691992141E+03  0.33662383496E+03  0.74613388415E+02 0.  0.
        254    2    1    2    0    0  0.25609707438E+03  0.16879712379E+03 -0.17984149444E+03  0.97249945761E+03  0.90517073053E+03 0.  0.
         23    2    4    4    0    0 -0.18654557183E+03  0.31653488502E+03 -0.30118465199E+03  0.48208783285E+03  0.81871241518E+02 0.  0.
         23    2    4    4    0    0  0.44264264621E+03 -0.14773776123E+03  0.12134315755E+03  0.49041162475E+03  0.89556917476E+02 0.  0.
          1    1    3    3  502    0 -0.39650876583E+02 -0.40701143135E+02  0.51500363584E+01  0.57055218349E+02  0.00000000000E+00 0. -1.
         -2    1    3    3    0  502 -0.21644619780E+03 -0.12809598065E+03 -0.12206995777E+03  0.27956861661E+03  0.00000000000E+00 0.  1.
         11    1    5    5    0    0 -0.12938921138E+03  0.25277592485E+03 -0.26735342252E+03  0.39001934406E+03  0.00000000000E+00 0.  1.
        -11    1    5    5    0    0 -0.57156360449E+02  0.63758960167E+02 -0.33831229466E+02  0.92068488793E+02  0.00000000000E+00 0. -1.
          3    1    6    6  503    0  0.16696212872E+03 -0.56127885846E+02  0.14758695963E+01  0.17615013536E+03  0.00000000000E+00 0. -1.
         -3    1    6    6    0  503  0.27568051749E+03 -0.91609875386E+02  0.11986728796E+03  0.31426148939E+03  0.00000000000E+00 0.  1.
<mgrwt>
<rscale>  0 0.12750437E+04</rscale>
<asrwt>0</asrwt>
<pdfrwt beam="1">  1        1 0.12352959E+00 0.12750437E+04</pdfrwt>
<pdfrwt beam="2">  1       -2 0.77873991E-01 0.12750437E+04</pdfrwt>
<totfact> 0.27839468E+01</totfact>
</mgrwt>
</event>
<event>
12    4  0.4207946E-008  0.2000267E+04  0.7818608E-02  0.8606496E-01
          1   -1    0    0  501    0  0.00000000000E+00  0.00000000000E+00  0.22201890366E+04  0.22201890366E+04  0.00000000000E+00 0. -1.
         -2   -1    0    0    0  501 -0.00000000000E+00 -0.00000000000E+00 -0.45053258638E+03  0.45053258638E+03  0.00000000000E+00 0.  1.
        -24    2    1    2    0    0  0.28354086255E+03  0.55564363414E+03  0.55642097498E+02  0.63095714053E+03  0.76652470789E+02 0.  0.
        254    2    1    2    0    0 -0.28354086255E+03 -0.55564363414E+03  0.17140143527E+04  0.20397644824E+04  0.91304910797E+03 0.  0.
         23    2    4    4    0    0  0.25760586970E+03 -0.40297606774E+03  0.10956570187E+04  0.11988922831E+04  0.90154914219E+02 0.  0.
         23    2    4    4    0    0 -0.54114673224E+03 -0.15266756641E+03  0.61835733395E+03  0.84087219928E+03  0.92482925016E+02 0.  0.
          1    1    3    3  502    0  0.17471590833E+03  0.40576006436E+03  0.59022074978E+02  0.44570223668E+03  0.00000000000E+00 0. -1.
         -2    1    3    3    0  502  0.10882495422E+03  0.14988356979E+03 -0.33799774797E+01  0.18525490385E+03  0.00000000000E+00 0.  1.
         11    1    5    5    0    0  0.54689196228E+02 -0.36643088065E+02  0.19050121256E+03  0.20155479670E+03  0.00000000000E+00 0. -1.
        -11    1    5    5    0    0  0.20291667347E+03 -0.36633297967E+03  0.90515580617E+03  0.99733748642E+03  0.00000000000E+00 0.  1.
          1    1    6    6  503    0 -0.25162903164E+03 -0.11791498379E+03  0.31630216493E+03  0.42103227015E+03  0.00000000000E+00 0. -1.
         -1    1    6    6    0  503 -0.28951770060E+03 -0.34752582616E+02  0.30205516902E+03  0.41983992913E+03  0.00000000000E+00 0.  1.
<mgrwt>
<rscale>  0 0.20002675E+04</rscale>
<asrwt>0</asrwt>
<pdfrwt beam="1">  1        1 0.34156754E+00 0.20002675E+04</pdfrwt>
<pdfrwt beam="2">  1       -2 0.69312707E-01 0.20002675E+04</pdfrwt>
<totfact> 0.32666397E+00</totfact>
</mgrwt>
</event>
<event>
12    4  0.4207946E-008  0.1947976E+04  0.7818608E-02  0.8631337E-01
         -2   -1    0    0    0  501 -0.00000000000E+00  0.00000000000E+00  0.54249193555E+03  0.54249193555E+03  0.00000000000E+00 0.  1.
          1   -1    0    0  501    0  0.00000000000E+00 -0.00000000000E+00 -0.17486949403E+04  0.17486949403E+04  0.00000000000E+00 0. -1.
        -24    2    1    2    0    0  0.17853805489E+03  0.28379466656E+03  0.33038733388E+03  0.47818208590E+03  0.84184719980E+02 0.  0.
        254    2    1    2    0    0 -0.17853805489E+03 -0.28379466656E+03 -0.15365903386E+04  0.18130047899E+04  0.90192086671E+03 0.  0.
         23    2    4    4    0    0  0.34059029570E+03 -0.77645514838E+01 -0.43110496614E+03  0.55744773831E+03  0.93991762056E+02 0.  0.
         23    2    4    4    0    0 -0.51912835060E+03 -0.27603011508E+03 -0.11054853725E+04  0.12555570516E+04  0.92944780990E+02 0.  0.
          3    1    3    3  502    0 -0.62667507141E+01  0.24636987910E+02  0.39569224902E+02  0.47031658456E+02  0.00000000000E+00 0. -1.
         -4    1    3    3    0  502  0.18480480561E+03  0.25915767865E+03  0.29081810897E+03  0.43115042745E+03  0.00000000000E+00 0.  1.
         11    1    5    5    0    0  0.31849948302E+03 -0.77204674888E+01 -0.34955650659E+03  0.47296012263E+03  0.00000000000E+00 0.  1.
        -11    1    5    5    0    0  0.22090812683E+02 -0.44083995014E-01 -0.81548459550E+02  0.84487615680E+02  0.00000000000E+00 0. -1.
          3    1    6    6  503    0 -0.56704014223E+02 -0.87780670534E+01 -0.70600989671E+02  0.90977466621E+02  0.00000000000E+00 0. -1.
         -3    1    6    6    0  503 -0.46242433637E+03 -0.26725204803E+03 -0.10348843828E+04  0.11645795850E+04  0.00000000000E+00 0.  1.
<mgrwt>
<rscale>  0 0.19479763E+04</rscale>
<asrwt>0</asrwt>
<pdfrwt beam="1">  1        1 0.26902999E+00 0.19479763E+04</pdfrwt>
<pdfrwt beam="2">  1       -2 0.83460298E-01 0.19479763E+04</pdfrwt>
<totfact> 0.45366977E+00</totfact>
</mgrwt>
</event>
<event>
12    4  0.4207946E-008  0.1594898E+04  0.7818608E-02  0.8823689E-01
         -2   -1    0    0    0  501 -0.00000000000E+00  0.00000000000E+00  0.70895998500E+03  0.70895998500E+03  0.00000000000E+00 0.  1.
          1   -1    0    0  501    0  0.00000000000E+00 -0.00000000000E+00 -0.89698251809E+03  0.89698251809E+03  0.00000000000E+00 0. -1.
        -24    2    1    2    0    0  0.30336484175E+03  0.42478906838E+03 -0.34759478047E+03  0.63197827967E+03  0.78092475600E+02 0.  0.
        254    2    1    2    0    0 -0.30336484175E+03 -0.42478906838E+03  0.15957224739E+03  0.97396422341E+03  0.80663934105E+03 0.  0.
         23    2    4    4    0    0 -0.21621118114E+03 -0.18549503727E+03 -0.31072244393E+03  0.43157021259E+03  0.92459329069E+02 0.  0.
         23    2    4    4    0    0 -0.87153660611E+02 -0.23929403111E+03  0.47029469132E+03  0.54239401082E+03  0.90314851557E+02 0.  0.
          1    1    3    3  502    0  0.25734765193E+03  0.35624638273E+03 -0.32436245658E+03  0.54621452050E+03  0.00000000000E+00 0. -1.
         -2    1    3    3    0  502  0.46017189817E+02  0.68542685652E+02 -0.23232323890E+02  0.85763759178E+02  0.00000000000E+00 0.  1.
         11    1    5    5    0    0 -0.17942876196E+03 -0.11451186194E+03 -0.18207646389E+03  0.28010620459E+03  0.00000000000E+00 0. -1.
        -11    1    5    5    0    0 -0.36782419174E+02 -0.70983175325E+02 -0.12864598004E+03  0.15146400800E+03  0.00000000000E+00 0.  1.
          4    1    6    6  503    0 -0.81013123619E+01 -0.15281816136E+03  0.26354529645E+03  0.30475423702E+03  0.00000000000E+00 0. -1.
         -4    1    6    6    0  503 -0.79052348249E+02 -0.86475869753E+02  0.20674939487E+03  0.23763977380E+03  0.00000000000E+00 0.  1.
<mgrwt>
<rscale>  0 0.15948978E+04</rscale>
<asrwt>0</asrwt>
<pdfrwt beam="1">  1        1 0.13799731E+00 0.15948978E+04</pdfrwt>
<pdfrwt beam="2">  1       -2 0.10907077E+00 0.15948978E+04</pdfrwt>
<totfact> 0.10324638E+01</totfact>
</mgrwt>
</event>
<event>
12    4  0.4207946E-008  0.1965300E+04  0.7818608E-02  0.8623018E-01
         -2   -1    0    0    0  501 -0.00000000000E+00  0.00000000000E+00  0.26669479763E+03  0.26669479763E+03  0.00000000000E+00 0.  1.
          1   -1    0    0  501    0  0.00000000000E+00 -0.00000000000E+00 -0.36206207280E+04  0.36206207280E+04  0.00000000000E+00 0. -1.
        -24    2    1    2    0    0  0.15085954155E+03  0.55846728903E+03 -0.30983474736E+03  0.66102031307E+03  0.79410134253E+02 0.  0.
        254    2    1    2    0    0 -0.15085954155E+03 -0.55846728903E+03 -0.30440911831E+04  0.32262952126E+04  0.89880217729E+03 0.  0.
         23    2    4    4    0    0 -0.48431927575E+03 -0.31416209748E+03 -0.22670724008E+04  0.23412084026E+04  0.91523382406E+02 0.  0.
         23    2    4    4    0    0  0.33345973420E+03 -0.24430519155E+03 -0.77701878225E+03  0.88508681001E+03  0.93488247019E+02 0.  0.
          1    1    3    3  502    0  0.36505837859E+02  0.53222175838E+02 -0.49009072564E+02  0.81038049040E+02  0.00000000000E+00 0. -1.
         -2    1    3    3    0  502  0.11435370369E+03  0.50524511319E+03 -0.26082567479E+03  0.57998226403E+03  0.00000000000E+00 0.  1.
         11    1    5    5    0    0 -0.31615738107E+03 -0.25327247896E+03 -0.15247560406E+04  0.15776512357E+04  0.00000000000E+00 0.  1.
        -11    1    5    5    0    0 -0.16816189468E+03 -0.60889618524E+02 -0.74231636019E+03  0.76355716687E+03  0.00000000000E+00 0. -1.
          1    1    6    6  503    0  0.84153054982E+02 -0.10502583121E+03 -0.19705755397E+03  0.23862908762E+03  0.00000000000E+00 0. -1.
         -1    1    6    6    0  503  0.24930667921E+03 -0.13927936034E+03 -0.57996122828E+03  0.64645772238E+03  0.00000000000E+00 0.  1.
<mgrwt>
<rscale>  0 0.19652997E+04</rscale>
<asrwt>0</asrwt>
<pdfrwt beam="1">  1        1 0.55701853E+00 0.19652997E+04</pdfrwt>
<pdfrwt beam="2">  1       -2 0.41029972E-01 0.19652997E+04</pdfrwt>
<totfact> 0.92591066E-01</totfact>
</mgrwt>
</event>
<event>
12    4  0.4207946E-008  0.1900397E+04  0.7818608E-02  0.8654659E-01
          1   -1    0    0  501    0  0.00000000000E+00  0.00000000000E+00  0.12967490982E+04  0.12967490982E+04  0.00000000000E+00 0. -1.
         -2   -1    0    0    0  501 -0.00000000000E+00 -0.00000000000E+00 -0.69626193925E+03  0.69626193925E+03  0.00000000000E+00 0.  1.
        -24    2    1    2    0    0  0.31409467801E+03  0.28196207883E+03 -0.39668325827E+03  0.58459837556E+03  0.78990965696E+02 0.  0.
        254    2    1    2    0    0 -0.31409467801E+03 -0.28196207883E+03  0.99717041720E+03  0.14084126619E+04  0.90062162116E+03 0.  0.
         23    2    4    4    0    0 -0.55842636767E+03 -0.40005751832E+03  0.58658474769E+03  0.90796145444E+03  0.91794936908E+02 0.  0.
         23    2    4    4    0    0  0.24433168967E+03  0.11809543949E+03  0.41058566951E+03  0.50045120743E+03  0.90699016570E+02 0.  0.
          3    1    3    3  502    0  0.22613152894E+03  0.18374754141E+03 -0.31689231052E+03  0.43048735617E+03  0.00000000000E+00 0. -1.
         -4    1    3    3    0  502  0.87963149064E+02  0.98214537420E+02 -0.79790947759E+02  0.15411101939E+03  0.00000000000E+00 0.  1.
         11    1    5    5    0    0 -0.28166617031E+03 -0.24526731296E+03  0.27902727832E+03  0.46620607927E+03  0.00000000000E+00 0.  1.
        -11    1    5    5    0    0 -0.27676019737E+03 -0.15479020536E+03  0.30755746937E+03  0.44175537517E+03  0.00000000000E+00 0. -1.
          2    1    6    6  503    0 -0.66556633254E+01  0.11722189583E+02  0.17383333762E+02  0.21997451571E+02  0.00000000000E+00 0. -1.
         -2    1    6    6    0  503  0.25098735299E+03  0.10637324990E+03  0.39320233574E+03  0.47845375585E+03  0.00000000000E+00 0.  1.
<mgrwt>
<rscale>  0 0.19003968E+04</rscale>
<asrwt>0</asrwt>
<pdfrwt beam="1">  1        1 0.19949986E+00 0.19003968E+04</pdfrwt>
<pdfrwt beam="2">  1       -2 0.10711722E+00 0.19003968E+04</pdfrwt>
<totfact> 0.52299665E+00</totfact>
</mgrwt>
</event>
<event>
12    4  0.4207946E-008  0.2269557E+04  0.7818608E-02  0.8490022E-01
         -2   -1    0    0    0  501 -0.00000000000E+00  0.00000000000E+00  0.57991404008E+03  0.57991404008E+03  0.00000000000E+00 0.  1.
          1   -1    0    0  501    0  0.00000000000E+00 -0.00000000000E+00 -0.22205396573E+04  0.22205396573E+04  0.00000000000E+00 0. -1.
        -24    2    1    2    0    0  0.21522145041E+02 -0.33636175624E+03  0.40390041888E+03  0.53199263201E+03  0.79234956646E+02 0.  0.
        254    2    1    2    0    0 -0.21522145041E+02  0.33636175624E+03 -0.20445260361E+04  0.22684610654E+04  0.92316112299E+03 0.  0.
         23    2    4    4    0    0 -0.29134672028E+03  0.23334011973E+03 -0.27135197743E+03  0.46960951350E+03  0.87009635222E+02 0.  0.
         23    2    4    4    0    0  0.26982457524E+03  0.10302163651E+03 -0.17731740587E+04  0.17988515519E+04  0.91114786459E+02 0.  0.
          3    1    3    3  502    0  0.59692014608E+01 -0.14876104846E+03  0.11936307270E+03  0.19082196947E+03  0.00000000000E+00 0. -1.
         -4    1    3    3    0  502  0.15552943580E+02 -0.18760070778E+03  0.28453734617E+03  0.34117066254E+03  0.00000000000E+00 0.  1.
         11    1    5    5    0    0 -0.10156606535E+03  0.38884561318E+02 -0.52743980377E+02  0.12087018742E+03  0.00000000000E+00 0. -1.
        -11    1    5    5    0    0 -0.18978065493E+03  0.19445555841E+03 -0.21860799705E+03  0.34873932608E+03  0.00000000000E+00 0.  1.
          3    1    6    6  503    0  0.11312518018E+03  0.43224980524E+02 -0.48906530509E+03  0.50383586412E+03  0.00000000000E+00 0. -1.
         -3    1    6    6    0  503  0.15669939506E+03  0.59796655986E+02 -0.12841087536E+04  0.12950156877E+04  0.00000000000E+00 0.  1.
<mgrwt>
<rscale>  0 0.22695569E+04</rscale>
<asrwt>0</asrwt>
<pdfrwt beam="1">  1        1 0.34162148E+00 0.22695569E+04</pdfrwt>
<pdfrwt beam="2">  1       -2 0.89217546E-01 0.22695569E+04</pdfrwt>
<totfact> 0.18110452E+00</totfact>
</mgrwt>
</event>
<event>
12    4  0.4207946E-008  0.2979840E+04  0.7818608E-02  0.8249511E-01
         -2   -1    0    0    0  501 -0.00000000000E+00  0.00000000000E+00  0.75220600954E+03  0.75220600954E+03  0.00000000000E+00 0.  1.
          1   -1    0    0  501    0  0.00000000000E+00 -0.00000000000E+00 -0.29511360243E+04  0.29511360243E+04  0.00000000000E+00 0. -1.
        -24    2    1    2    0    0 -0.23985117045E+03 -0.84115932029E+03  0.27818335526E+03  0.92140189097E+03  0.80733385054E+02 0.  0.
        254    2    1    2    0    0  0.23985117045E+03  0.84115932029E+03 -0.24771133701E+04  0.27819401429E+04  0.91543581125E+03 0.  0.
         23    2    4    4    0    0  0.68483970305E+02  0.99278066827E+03 -0.17614836007E+04  0.20251729325E+04  0.90539614011E+02 0.  0.
         23    2    4    4    0    0  0.17136720015E+03 -0.15162134798E+03 -0.71562976940E+03  0.75676721040E+03  0.90636049306E+02 0.  0.
          1    1    3    3  502    0 -0.10186990304E+03 -0.39379103356E+03  0.88495371779E+02  0.41626948733E+03  0.00000000000E+00 0. -1.
         -2    1    3    3    0  502 -0.13798126741E+03 -0.44736828674E+03  0.18968798348E+03  0.50513240364E+03  0.00000000000E+00 0.  1.
         11    1    5    5    0    0  0.50780598538E+02  0.96125368745E+03 -0.17088846602E+04  0.19613449729E+04  0.00000000000E+00 0. -1.
        -11    1    5    5    0    0  0.17703371766E+02  0.31526980825E+02 -0.52598940441E+02  0.63827959605E+02  0.00000000000E+00 0.  1.
          3    1    6    6  503    0  0.92246434860E+02 -0.55259775889E+02 -0.45933410075E+03  0.47175296892E+03  0.00000000000E+00 0.  1.
         -3    1    6    6    0  503  0.79120765288E+02 -0.96361572088E+02 -0.25629566865E+03  0.28501424147E+03  0.00000000000E+00 0. -1.
<mgrwt>
<rscale>  0 0.29798404E+04</rscale>
<asrwt>0</asrwt>
<pdfrwt beam="1">  1        1 0.45402093E+00 0.29798404E+04</pdfrwt>
<pdfrwt beam="2">  1       -2 0.11572400E+00 0.29798404E+04</pdfrwt>
<totfact> 0.28245452E-01</totfact>
</mgrwt>
</event>
<event>
12    4  0.4207946E-008  0.1685573E+04  0.7818608E-02  0.8769635E-01
          1   -1    0    0  501    0  0.00000000000E+00  0.00000000000E+00  0.19216987106E+04  0.19216987106E+04  0.00000000000E+00 0. -1.
         -2   -1    0    0    0  501 -0.00000000000E+00 -0.00000000000E+00 -0.36961531702E+03  0.36961531702E+03  0.00000000000E+00 0.  1.
        -24    2    1    2    0    0 -0.72994489802E+02  0.29070717668E+03 -0.14856508179E+03  0.34203044078E+03  0.71234688044E+02 0.  0.
        254    2    1    2    0    0  0.72994489802E+02 -0.29070717668E+03  0.17006484754E+04  0.19492835869E+04  0.90424687286E+03 0.  0.
         23    2    4    4    0    0 -0.33899356012E+03  0.48228786595E+02  0.10189362078E+04  0.10790189549E+04  0.93852328822E+02 0.  0.
         23    2    4    4    0    0  0.41198804992E+03 -0.33893596327E+03  0.68171226756E+03  0.87026463203E+03  0.89538670588E+02 0.  0.
          1    1    3    3  502    0  0.12838839322E+02  0.17552044389E+02 -0.11198352051E+02  0.24460440430E+02  0.00000000000E+00 0. -1.
         -2    1    3    3    0  502 -0.85833329124E+02  0.27315513229E+03 -0.13736672973E+03  0.31757000035E+03  0.00000000000E+00 0.  1.
         11    1    5    5    0    0 -0.81790293680E+02  0.38344310572E+01  0.14040657614E+03  0.16253726227E+03  0.00000000000E+00 0.  1.
        -11    1    5    5    0    0 -0.25720326644E+03  0.44394355538E+02  0.87852963170E+03  0.91648169259E+03  0.00000000000E+00 0. -1.
          3    1    6    6  503    0  0.30593049474E+03 -0.28749151017E+03  0.56954421451E+03  0.70754890171E+03  0.00000000000E+00 0. -1.
         -3    1    6    6    0  503  0.10605755518E+03 -0.51444453104E+02  0.11216805306E+03  0.16271573032E+03  0.00000000000E+00 0.  1.
<mgrwt>
<rscale>  0 0.16855732E+04</rscale>
<asrwt>0</asrwt>
<pdfrwt beam="1">  1        1 0.29564595E+00 0.16855732E+04</pdfrwt>
<pdfrwt beam="2">  1       -2 0.56863896E-01 0.16855732E+04</pdfrwt>
<totfact> 0.81709818E+00</totfact>
</mgrwt>
</event>
<event>
12    4  0.4207946E-008  0.2548272E+04  0.7818608E-02  0.8385987E-01
          1   -1    0    0  501    0  0.00000000000E+00  0.00000000000E+00  0.95308578463E+03  0.95308578463E+03  0.00000000000E+00 0. -1.
         -2   -1    0    0    0  501 -0.00000000000E+00 -0.00000000000E+00 -0.17033329611E+04  0.17033329611E+04  0.00000000000E+00 0.  1.
        -24    2    1    2    0    0 -0.70343922384E+03  0.57411319245E+03  0.33695819882E+03  0.97147318996E+03  0.76069913081E+02 0.  0.
        254    2    1    2    0    0  0.70343922384E+03 -0.57411319245E+03 -0.10872053753E+04  0.16849455557E+04  0.91246550532E+03 0.  0.
         23    2    4    4    0    0 -0.18449821759E+03 -0.21038990424E+03 -0.41553866320E+03  0.51014639441E+03  0.96298800683E+02 0.  0.
         23    2    4    4    0    0  0.88793744144E+03 -0.36372328821E+03 -0.67166671206E+03  0.11747991613E+04  0.91045961302E+02 0.  0.
          3    1    3    3  502    0 -0.13199226850E+03  0.14752477863E+03  0.79109516812E+02  0.21317559641E+03  0.00000000000E+00 0. -1.
         -2    1    3    3    0  502 -0.57144695534E+03  0.42658841382E+03  0.25784868201E+03  0.75829759355E+03  0.00000000000E+00 0.  1.
         11    1    5    5    0    0 -0.28310282173E+02 -0.14183475992E+02 -0.97745002414E+01  0.33138858202E+02  0.00000000000E+00 0.  1.
        -11    1    5    5    0    0 -0.15618793542E+03 -0.19620642825E+03 -0.40576416296E+03  0.47700753621E+03  0.00000000000E+00 0. -1.
          3    1    6    6  503    0  0.57793408920E+03 -0.28297871712E+03 -0.44536641453E+03  0.78258290871E+03  0.00000000000E+00 0. -1.
         -3    1    6    6    0  503  0.31000335224E+03 -0.80744571084E+02 -0.22630029753E+03  0.39221625262E+03  0.00000000000E+00 0.  1.
<mgrwt>
<rscale>  0 0.25482719E+04</rscale>
<asrwt>0</asrwt>
<pdfrwt beam="1">  1        1 0.14662858E+00 0.25482719E+04</pdfrwt>
<pdfrwt beam="2">  1       -2 0.26205122E+00 0.25482719E+04</pdfrwt>
<totfact> 0.69311347E-01</totfact>
</mgrwt>
</event>
<event>
12    4  0.4207946E-008  0.2173310E+04  0.7818608E-02  0.8529620E-01
         -2   -1    0    0    0  501 -0.00000000000E+00  0.00000000000E+00  0.29055410778E+03  0.29055410778E+03  0.00000000000E+00 0.  1.
          1   -1    0    0  501    0  0.00000000000E+00 -0.00000000000E+00 -0.40640255242E+04  0.40640255242E+04  0.00000000000E+00 0. -1.
        -24    2    1    2    0    0  0.41116740637E+03  0.42261183269E+03 -0.29351660676E+04  0.29950614295E+04  0.86797031901E+02 0.  0.
        254    2    1    2    0    0 -0.41116740637E+03 -0.42261183269E+03 -0.83830534887E+03  0.13595182026E+04  0.89323820338E+03 0.  0.
         23    2    4    4    0    0 -0.24163986365E+03 -0.65839489613E+03 -0.36339662191E+03  0.79504241240E+03  0.90341960074E+02 0.  0.
         23    2    4    4    0    0 -0.16952754272E+03  0.23578306344E+03 -0.47490872696E+03  0.56447579016E+03  0.93602232816E+02 0.  0.
          3    1    3    3  502    0  0.29586823678E+03  0.34439787628E+03 -0.21199992934E+04  0.21680740104E+04  0.00000000000E+00 0. -1.
         -4    1    3    3    0  502  0.11529916958E+03  0.78213956413E+02 -0.81516677420E+03  0.82698741904E+03  0.00000000000E+00 0.  1.
         11    1    5    5    0    0 -0.11500323752E+03 -0.32764244133E+03 -0.12945135221E+03  0.37058462811E+03  0.00000000000E+00 0.  1.
        -11    1    5    5    0    0 -0.12663662612E+03 -0.33075245480E+03 -0.23394526970E+03  0.42445778430E+03  0.00000000000E+00 0. -1.
          1    1    6    6  503    0 -0.62022850931E+01  0.75774619439E+02 -0.10569509506E+03  0.13019874966E+03  0.00000000000E+00 0. -1.
         -1    1    6    6    0  503 -0.16332525763E+03  0.16000844400E+03 -0.36921363189E+03  0.43427704050E+03  0.00000000000E+00 0.  1.
<mgrwt>
<rscale>  0 0.21733102E+04</rscale>
<asrwt>0</asrwt>
<pdfrwt beam="1">  1        1 0.62523467E+00 0.21733102E+04</pdfrwt>
<pdfrwt beam="2">  1       -2 0.44700634E-01 0.21733102E+04</pdfrwt>
<totfact> 0.32288881E-01</totfact>
</mgrwt>
</event>
<event>
12    4  0.4207946E-008  0.1158838E+04  0.7818608E-02  0.9149668E-01
          1   -1    0    0  501    0  0.00000000000E+00  0.00000000000E+00  0.10754551770E+04  0.10754551770E+04  0.00000000000E+00 0. -1.
         -2   -1    0    0    0  501 -0.00000000000E+00 -0.00000000000E+00 -0.31217153884E+03  0.31217153884E+03  0.00000000000E+00 0.  1.
        -24    2    1    2    0    0  0.15340661232E+03  0.43649062087E+02 -0.40849733625E+02  0.18284253686E+03  0.79522721431E+02 0.  0.
        254    2    1    2    0    0 -0.15340661232E+03 -0.43649062087E+02  0.80413337176E+03  0.12047841790E+04  0.88285650531E+03 0.  0.
         23    2    4    4    0    0  0.28800337310E+03  0.22129871552E+03  0.32954540589E+03  0.49867962691E+03  0.90344514717E+02 0.  0.
         23    2    4    4    0    0 -0.44140998543E+03 -0.26494777761E+03  0.47458796587E+03  0.70610455205E+03  0.91158109825E+02 0.  0.
          3    1    3    3  502    0  0.32135603261E+02  0.39402190461E+02  0.90383662174E+01  0.51642246988E+02  0.00000000000E+00 0. -1.
         -4    1    3    3    0  502  0.12127100906E+03  0.42468716259E+01 -0.49888099842E+02  0.13120028988E+03  0.00000000000E+00 0.  1.
         11    1    5    5    0    0  0.21627212707E+03  0.11206086858E+03  0.21271633824E+03  0.32338755661E+03  0.00000000000E+00 0.  1.
        -11    1    5    5    0    0  0.71731246031E+02  0.10923784694E+03  0.11682906764E+03  0.17529207030E+03  0.00000000000E+00 0. -1.
          4    1    6    6  503    0 -0.15152897548E+03 -0.47017974796E+02  0.16965609402E+03  0.23228196358E+03  0.00000000000E+00 0.  1.
         -4    1    6    6    0  503 -0.28988100994E+03 -0.21792980281E+03  0.30493187184E+03  0.47382258847E+03  0.00000000000E+00 0. -1.
<mgrwt>
<rscale>  0 0.11588382E+04</rscale>
<asrwt>0</asrwt>
<pdfrwt beam="1">  1        1 0.16545464E+00 0.11588382E+04</pdfrwt>
<pdfrwt beam="2">  1       -2 0.48026391E-01 0.11588382E+04</pdfrwt>
<totfact> 0.47297525E+01</totfact>
</mgrwt>
</event>
<event>
12    4  0.4207946E-008  0.3021680E+04  0.7818608E-02  0.8237567E-01
          1   -1    0    0  501    0  0.00000000000E+00  0.00000000000E+00  0.38484039336E+04  0.38484039336E+04  0.00000000000E+00 0. -1.
         -2   -1    0    0    0  501 -0.00000000000E+00 -0.00000000000E+00 -0.59313879972E+03  0.59313879972E+03  0.00000000000E+00 0.  1.
        -24    2    1    2    0    0  0.76330488969E+03 -0.38886601697E+03 -0.12812600666E+03  0.86929144380E+03  0.73486099984E+02 0.  0.
        254    2    1    2    0    0 -0.76330488969E+03  0.38886601697E+03  0.33833911405E+04  0.35722512895E+04  0.76144108887E+03 0.  0.
         23    2    4    4    0    0 -0.22915477854E+03  0.29457241411E+03  0.25159790193E+04  0.25451273848E+04  0.90764308643E+02 0.  0.
         23    2    4    4    0    0 -0.53415011116E+03  0.94293602867E+02  0.86741212126E+03  0.10271239047E+04  0.91499195361E+02 0.  0.
          1    1    3    3  502    0  0.16080548014E+03 -0.76880531068E+02 -0.56792447789E+02  0.18706790379E+03  0.00000000000E+00 0. -1.
         -2    1    3    3    0  502  0.60249940955E+03 -0.31198548591E+03 -0.71333558875E+02  0.68222354001E+03  0.00000000000E+00 0.  1.
         11    1    5    5    0    0 -0.86502737542E+02  0.13684828315E+03  0.81663521238E+03  0.83252822553E+03  0.00000000000E+00 0. -1.
        -11    1    5    5    0    0 -0.14265204099E+03  0.15772413095E+03  0.16993438069E+04  0.17125991593E+04  0.00000000000E+00 0.  1.
          3    1    6    6  503    0 -0.16143427896E+03 -0.16405190028E+01  0.31357287668E+03  0.35269202815E+03  0.00000000000E+00 0. -1.
         -3    1    6    6    0  503 -0.37271583219E+03  0.95934121870E+02  0.55383924457E+03  0.67443187657E+03  0.00000000000E+00 0.  1.
<mgrwt>
<rscale>  0 0.30216801E+04</rscale>
<asrwt>0</asrwt>
<pdfrwt beam="1">  1        1 0.59206213E+00 0.30216801E+04</pdfrwt>
<pdfrwt beam="2">  1       -2 0.91252126E-01 0.30216801E+04</pdfrwt>
<totfact> 0.99214224E-02</totfact>
</mgrwt>
</event>
<event>
12    4  0.4207946E-008  0.1993663E+04  0.7818608E-02  0.8609589E-01
          1   -1    0    0  501    0  0.00000000000E+00  0.00000000000E+00  0.84555648277E+03  0.84555648277E+03  0.00000000000E+00 0. -1.
         -2   -1    0    0    0  501 -0.00000000000E+00 -0.00000000000E+00 -0.11751706594E+04  0.11751706594E+04  0.00000000000E+00 0.  1.
        -24    2    1    2    0    0  0.54902397518E+03  0.52399267242E+03 -0.37101643876E+03  0.84860563106E+03  0.80515049302E+02 0.  0.
        254    2    1    2    0    0 -0.54902397518E+03 -0.52399267242E+03  0.41402262164E+02  0.11721215111E+04  0.89227744752E+03 0.  0.
         23    2    4    4    0    0  0.52609481571E+01 -0.49490019109E+03 -0.22179548629E+03  0.55052523543E+03  0.94503546947E+02 0.  0.
         23    2    4    4    0    0 -0.55428492334E+03 -0.29092481329E+02  0.26319774846E+03  0.62159627565E+03  0.95030134181E+02 0.  0.
          3    1    3    3  502    0  0.22828790368E+03  0.20287887332E+03 -0.10739580288E+03  0.32374227818E+03  0.00000000000E+00 0. -1.
         -4    1    3    3    0  502  0.32073607150E+03  0.32111379911E+03 -0.26362063588E+03  0.52486335288E+03  0.00000000000E+00 0.  1.
         11    1    5    5    0    0  0.47712702391E+02 -0.33316179617E+03 -0.15311751360E+03  0.36975432028E+03  0.00000000000E+00 0. -1.
        -11    1    5    5    0    0 -0.42451754234E+02 -0.16173839493E+03 -0.68677972688E+02  0.18077091515E+03  0.00000000000E+00 0.  1.
          4    1    6    6  503    0 -0.46648167748E+03 -0.53960768262E+02  0.19898511426E+03  0.51001176029E+03  0.00000000000E+00 0. -1.
         -4    1    6    6    0  503 -0.87803245853E+02  0.24868286933E+02  0.64212634198E+02  0.11158451536E+03  0.00000000000E+00 0.  1.
<mgrwt>
<rscale>  0 0.19936631E+04</rscale>
<asrwt>0</asrwt>
<pdfrwt beam="1">  1        1 0.13008561E+00 0.19936631E+04</pdfrwt>
<pdfrwt beam="2">  1       -2 0.18079549E+00 0.19936631E+04</pdfrwt>
<totfact> 0.29407363E+00</totfact>
</mgrwt>
</event>
<event>
12    4  0.4207946E-008  0.1914424E+04  0.7818608E-02  0.8647710E-01
          1   -1    0    0  501    0  0.00000000000E+00  0.00000000000E+00  0.10001256220E+04  0.10001256220E+04  0.00000000000E+00 0. -1.
         -2   -1    0    0    0  501 -0.00000000000E+00 -0.00000000000E+00 -0.91613945402E+03  0.91613945402E+03  0.00000000000E+00 0.  1.
        -24    2    1    2    0    0 -0.20919438237E+03 -0.72329878406E+03 -0.48753569398E+02  0.75869345115E+03  0.79469627173E+02 0.  0.
        254    2    1    2    0    0  0.20919438237E+03  0.72329878406E+03  0.13273973738E+03  0.11575716249E+04  0.86915407622E+03 0.  0.
         23    2    4    4    0    0  0.71400491048E+02  0.68102111348E+03 -0.25329867306E+03  0.73569628525E+03  0.90559478938E+02 0.  0.
         23    2    4    4    0    0  0.13779389132E+03  0.42277670580E+02  0.38603841045E+03  0.42187533964E+03  0.90435556807E+02 0.  0.
          3    1    3    3  502    0 -0.97555513735E+02 -0.24974298364E+03  0.11934372546E+02  0.26838603798E+03  0.00000000000E+00 0. -1.
         -4    1    3    3    0  502 -0.11163886864E+03 -0.47355580042E+03 -0.60687941944E+02  0.49030741316E+03  0.00000000000E+00 0.  1.
         11    1    5    5    0    0  0.92287596488E+02  0.53631699127E+03 -0.19054253867E+03  0.57659290200E+03  0.00000000000E+00 0. -1.
        -11    1    5    5    0    0 -0.20887105439E+02  0.14470412221E+03 -0.62756134392E+02  0.15910338325E+03  0.00000000000E+00 0.  1.
          3    1    6    6  503    0  0.12360853078E+03  0.20997972960E+02  0.37229857776E+03  0.39284375361E+03  0.00000000000E+00 0. -1.
         -3    1    6    6    0  503  0.14185360549E+02  0.21279697621E+02  0.13739832686E+02  0.29031586022E+02  0.00000000000E+00 0.  1.
<mgrwt>
<rscale>  0 0.19144237E+04</rscale>
<asrwt>0</asrwt>
<pdfrwt beam="1">  1        1 0.15386548E+00 0.19144237E+04</pdfrwt>
<pdfrwt beam="2">  1       -2 0.14094453E+00 0.19144237E+04</pdfrwt>
<totfact> 0.43732532E+00</totfact>
</mgrwt>
</event>
<event>
12    4  0.4207946E-008  0.1911176E+04  0.7818608E-02  0.8649313E-01
          1   -1    0    0  501    0  0.00000000000E+00  0.00000000000E+00  0.14794468064E+04  0.14794468064E+04  0.00000000000E+00 0. -1.
         -2   -1    0    0    0  501 -0.00000000000E+00 -0.00000000000E+00 -0.61722307194E+03  0.61722307194E+03  0.00000000000E+00 0.  1.
        -24    2    1    2    0    0  0.34251896171E+02 -0.77379095309E+03  0.10085358826E+03  0.78578576608E+03  0.85803219253E+02 0.  0.
        254    2    1    2    0    0 -0.34251896171E+02  0.77379095309E+03  0.76137014619E+03  0.13108841122E+04  0.73403475719E+03 0.  0.
         23    2    4    4    0    0 -0.69178292765E+02 -0.92586372788E+02  0.27511327491E+03  0.31266379256E+03  0.93345918668E+02 0.  0.
         23    2    4    4    0    0  0.34926396594E+02  0.86637732588E+03  0.48625687128E+03  0.99822031969E+03  0.90379963433E+02 0.  0.
          3    1    3    3  502    0  0.28690183745E+02 -0.48914705453E+03  0.22508265812E+02  0.49050442366E+03  0.00000000000E+00 0. -1.
         -4    1    3    3    0  502  0.55617124262E+01 -0.28464389856E+03  0.78345322452E+02  0.29528134242E+03  0.00000000000E+00 0.  1.
         11    1    5    5    0    0 -0.20576020105E+02 -0.97507180793E+02  0.18043850228E+03  0.20612878503E+03  0.00000000000E+00 0.  1.
        -11    1    5    5    0    0 -0.48602272660E+02  0.49208080053E+01  0.94674772626E+02  0.10653500754E+03  0.00000000000E+00 0. -1.
          4    1    6    6  503    0  0.10425722764E+02  0.36490555195E+03  0.25598594340E+03  0.44586271515E+03  0.00000000000E+00 0. -1.
         -4    1    6    6    0  503  0.24500673830E+02  0.50147177393E+03  0.23027092788E+03  0.55235760454E+03  0.00000000000E+00 0.  1.
<mgrwt>
<rscale>  0 0.19111763E+04</rscale>
<asrwt>0</asrwt>
<pdfrwt beam="1">  1        1 0.22760720E+00 0.19111763E+04</pdfrwt>
<pdfrwt beam="2">  1       -2 0.94957396E-01 0.19111763E+04</pdfrwt>
<totfact> 0.51741949E+00</totfact>
</mgrwt>
</event>
<event>
12    4  0.4207946E-008  0.2026587E+04  0.7818608E-02  0.8594290E-01
         -2   -1    0    0    0  501 -0.00000000000E+00  0.00000000000E+00  0.76996292282E+03  0.76996292282E+03  0.00000000000E+00 0.  1.
          1   -1    0    0  501    0  0.00000000000E+00 -0.00000000000E+00 -0.13335242247E+04  0.13335242247E+04  0.00000000000E+00 0. -1.
        -24    2    1    2    0    0  0.59848769034E+03 -0.20490910790E+03 -0.59422396149E+03  0.87134348372E+03  0.77214585539E+02 0.  0.
        254    2    1    2    0    0 -0.59848769034E+03  0.20490910790E+03  0.30662659628E+02  0.12321436638E+04  0.10569117993E+04 0.  0.
         23    2    4    4    0    0  0.22514464739E+03  0.66452654346E+02  0.25871450653E+03  0.36164748779E+03  0.93539521142E+02 0.  0.
         23    2    4    4    0    0 -0.82363233774E+03  0.13845645355E+03 -0.22805184690E+03  0.87049617600E+03  0.90639562332E+02 0.  0.
          1    1    3    3  502    0  0.19084661868E+03 -0.81380371970E+02 -0.24090487176E+03  0.31793136687E+03  0.00000000000E+00 0. -1.
         -2    1    3    3    0  502  0.40764107166E+03 -0.12352873593E+03 -0.35331908973E+03  0.55341211684E+03  0.00000000000E+00 0.  1.
         11    1    5    5    0    0  0.19066104792E+03  0.87186859929E+02  0.19516518228E+03  0.28643085049E+03  0.00000000000E+00 0. -1.
        -11    1    5    5    0    0  0.34483599475E+02 -0.20734205583E+02  0.63549324255E+02  0.75216637303E+02  0.00000000000E+00 0.  1.
          3    1    6    6  503    0 -0.72557275798E+03  0.97889154222E+02 -0.21794296567E+03  0.76389609890E+03  0.00000000000E+00 0. -1.
         -3    1    6    6    0  503 -0.98059579761E+02  0.40567299329E+02 -0.10108881231E+02  0.10660007710E+03  0.00000000000E+00 0.  1.
<mgrwt>
<rscale>  0 0.20265875E+04</rscale>
<asrwt>0</asrwt>
<pdfrwt beam="1">  1        1 0.20515757E+00 0.20265875E+04</pdfrwt>
<pdfrwt beam="2">  1       -2 0.11845584E+00 0.20265875E+04</pdfrwt>
<totfact> 0.38126904E+00</totfact>
</mgrwt>
</event>
<event>
12    4  0.4207946E-008  0.1707082E+04  0.7818608E-02  0.8757336E-01
         -2   -1    0    0    0  501 -0.00000000000E+00  0.00000000000E+00  0.43833552512E+03  0.43833552512E+03  0.00000000000E+00 0.  1.
          1   -1    0    0  501    0  0.00000000000E+00 -0.00000000000E+00 -0.16620424193E+04  0.16620424193E+04  0.00000000000E+00 0. -1.
        -24    2    1    2    0    0 -0.48615188611E+03 -0.21019043993E+03 -0.82384549797E+03  0.98257450092E+03  0.78788120468E+02 0.  0.
        254    2    1    2    0    0  0.48615188611E+03  0.21019043993E+03 -0.39986139622E+03  0.11178034435E+04  0.89948414368E+03 0.  0.
         23    2    4    4    0    0  0.49157248240E+03 -0.17581958208E+03 -0.47765066631E+03  0.71301588601E+03  0.87666776971E+02 0.  0.
         23    2    4    4    0    0 -0.54205962981E+01  0.38601002201E+03  0.77789270090E+02  0.40478755749E+03  0.93641209976E+02 0.  0.
          3    1    3    3  502    0 -0.47222826813E+03 -0.19046716269E+03 -0.76499040790E+03  0.91896006522E+03  0.00000000000E+00 0. -1.
         -4    1    3    3    0  502 -0.13923617978E+02 -0.19723277237E+02 -0.58855090067E+02  0.63614435699E+02  0.00000000000E+00 0.  1.
         11    1    5    5    0    0  0.23637716171E+03 -0.12008009581E+03 -0.27871877957E+03  0.38467850222E+03  0.00000000000E+00 0. -1.
        -11    1    5    5    0    0  0.25519532069E+03 -0.55739486270E+02 -0.19893188674E+03  0.32833738379E+03  0.00000000000E+00 0.  1.
          3    1    6    6  503    0  0.41698820915E+02  0.17630025490E+03  0.50864567654E+02  0.18816954001E+03  0.00000000000E+00 0. -1.
         -3    1    6    6    0  503 -0.47119417213E+02  0.20970976710E+03  0.26924702435E+02  0.21661801748E+03  0.00000000000E+00 0.  1.
<mgrwt>
<rscale>  0 0.17070820E+04</rscale>
<asrwt>0</asrwt>
<pdfrwt beam="1">  1        1 0.25569883E+00 0.17070820E+04</pdfrwt>
<pdfrwt beam="2">  1       -2 0.67436236E-01 0.17070820E+04</pdfrwt>
<totfact> 0.85153546E+00</totfact>
</mgrwt>
</event>
<event>
12    4  0.4207946E-008  0.1854115E+04  0.7818608E-02  0.8678039E-01
          1   -1    0    0  501    0  0.00000000000E+00  0.00000000000E+00  0.15791990953E+04  0.15791990953E+04  0.00000000000E+00 0. -1.
         -2   -1    0    0    0  501 -0.00000000000E+00 -0.00000000000E+00 -0.54422252124E+03  0.54422252124E+03  0.00000000000E+00 0.  1.
        -24    2    1    2    0    0 -0.31147094578E+03  0.30160014432E+03  0.10428357467E+04  0.11320561393E+04  0.77896795575E+02 0.  0.
        254    2    1    2    0    0  0.31147094578E+03 -0.30160014432E+03 -0.78591726408E+01  0.99136547727E+03  0.89149702512E+03 0.  0.
         23    2    4    4    0    0  0.42438616841E+03 -0.55677374018E+02  0.33043624095E+03  0.54831425541E+03  0.90867064586E+02 0.  0.
         23    2    4    4    0    0 -0.11291522264E+03 -0.24592277030E+03 -0.33829541360E+03  0.44305122186E+03  0.92858719987E+02 0.  0.
          1    1    3    3  502    0 -0.22866845608E+03  0.18764681286E+03  0.77303231932E+03  0.82769532795E+03  0.00000000000E+00 0. -1.
         -2    1    3    3    0  502 -0.82802489693E+02  0.11395333146E+03  0.26980342738E+03  0.30436081133E+03  0.00000000000E+00 0.  1.
         11    1    5    5    0    0  0.24578637586E+03 -0.65314271978E+02  0.15528501330E+03  0.29797706629E+03  0.00000000000E+00 0. -1.
        -11    1    5    5    0    0  0.17859979255E+03  0.96368979609E+01  0.17515122766E+03  0.25033718911E+03  0.00000000000E+00 0.  1.
          2    1    6    6  503    0 -0.52818975454E+02 -0.16904668452E+03 -0.15479269249E+03  0.23521777858E+03  0.00000000000E+00 0.  1.
         -2    1    6    6    0  503 -0.60096247184E+02 -0.76876085783E+02 -0.18350272111E+03  0.20783344328E+03  0.00000000000E+00 0. -1.
<mgrwt>
<rscale>  0 0.18541151E+04</rscale>
<asrwt>0</asrwt>
<pdfrwt beam="1">  1        1 0.24295371E+00 0.18541151E+04</pdfrwt>
<pdfrwt beam="2">  1       -2 0.83726542E-01 0.18541151E+04</pdfrwt>
<totfact> 0.59286733E+00</totfact>
</mgrwt>
</event>
<event>
12    4  0.4207946E-008  0.1577062E+04  0.7818608E-02  0.8834765E-01
          1   -1    0    0  501    0  0.00000000000E+00  0.00000000000E+00  0.23412370172E+04  0.23412370172E+04  0.00000000000E+00 0. -1.
         -2   -1    0    0    0  501 -0.00000000000E+00 -0.00000000000E+00 -0.26557809628E+03  0.26557809628E+03  0.00000000000E+00 0.  1.
        -24    2    1    2    0    0  0.43677474452E+03  0.12488348982E+03  0.11600771735E+04  0.12483582722E+04  0.79064933923E+02 0.  0.
        254    2    1    2    0    0 -0.43677474452E+03 -0.12488348982E+03  0.91558174734E+03  0.13584568412E+04  0.89484467361E+03 0.  0.
         23    2    4    4    0    0 -0.39646575343E+03  0.26785113546E+03  0.80076698370E+03  0.93731712641E+03  0.91685925114E+02 0.  0.
         23    2    4    4    0    0 -0.40308991084E+02 -0.39273462528E+03  0.11481476364E+03  0.42113971480E+03  0.91164295523E+02 0.  0.
          3    1    3    3  502    0  0.42280476959E+03  0.10304637367E+03  0.10939295578E+04  0.11773123229E+04  0.00000000000E+00 0. -1.
         -4    1    3    3    0  502  0.13969974929E+02  0.21837116155E+02  0.66147615726E+02  0.71045949271E+02  0.00000000000E+00 0.  1.
         11    1    5    5    0    0 -0.32954870793E+03  0.25161340659E+03  0.72295549642E+03  0.83341244716E+03  0.00000000000E+00 0.  1.
        -11    1    5    5    0    0 -0.66917045501E+02  0.16237728870E+02  0.77811487280E+02  0.10390467925E+03  0.00000000000E+00 0. -1.
          3    1    6    6  503    0  0.15806128022E+02 -0.91645745798E+02 -0.28476261646E+01  0.93042384861E+02  0.00000000000E+00 0. -1.
         -3    1    6    6    0  503 -0.56115119106E+02 -0.30108887948E+03  0.11766238980E+03  0.32809732994E+03  0.00000000000E+00 0.  1.
<mgrwt>
<rscale>  0 0.15770622E+04</rscale>
<asrwt>0</asrwt>
<pdfrwt beam="1">  1        1 0.36019030E+00 0.15770622E+04</pdfrwt>
<pdfrwt beam="2">  1       -2 0.40858170E-01 0.15770622E+04</pdfrwt>
<totfact> 0.83621541E+00</totfact>
</mgrwt>
</event>
<event>
12    4  0.4207946E-008  0.1930871E+04  0.7818608E-02  0.8639641E-01
          1   -1    0    0  501    0  0.00000000000E+00  0.00000000000E+00  0.86216354568E+03  0.86216354568E+03  0.00000000000E+00 0. -1.
         -2   -1    0    0    0  501 -0.00000000000E+00 -0.00000000000E+00 -0.10810779440E+04  0.10810779440E+04  0.00000000000E+00 0.  1.
        -24    2    1    2    0    0 -0.34435113486E+03  0.56299590186E+03 -0.44764161818E+03  0.80138415816E+03  0.79318730667E+02 0.  0.
        254    2    1    2    0    0  0.34435113486E+03 -0.56299590186E+03  0.22872721981E+03  0.11418573316E+04  0.90331607699E+03 0.  0.
         23    2    4    4    0    0 -0.35354133656E+02 -0.96756704073E+02 -0.30363517326E+03  0.33374430584E+03  0.92623801978E+02 0.  0.
         23    2    4    4    0    0  0.37970526852E+03 -0.46623919779E+03  0.53236239307E+03  0.80811302572E+03  0.89899189546E+02 0.  0.
          1    1    3    3  502    0 -0.28250292054E+03  0.41751280041E+03 -0.31016887130E+03  0.59188644801E+03  0.00000000000E+00 0. -1.
         -4    1    3    3    0  502 -0.61848214322E+02  0.14548310145E+03 -0.13747274688E+03  0.20949771015E+03  0.00000000000E+00 0.  1.
         11    1    5    5    0    0  0.17546158124E+02 -0.14862999589E+02 -0.15023390070E+03  0.15198355616E+03  0.00000000000E+00 0. -1.
        -11    1    5    5    0    0 -0.52900291780E+02 -0.81893704485E+02 -0.15340127256E+03  0.18176074969E+03  0.00000000000E+00 0.  1.
          3    1    6    6  503    0  0.10911249945E+03 -0.81624079550E+02  0.97010525062E+02  0.16726945289E+03  0.00000000000E+00 0. -1.
         -3    1    6    6    0  503  0.27059276907E+03 -0.38461511824E+03  0.43535186801E+03  0.64084357282E+03  0.00000000000E+00 0.  1.
<mgrwt>
<rscale>  0 0.19308713E+04</rscale>
<asrwt>0</asrwt>
<pdfrwt beam="1">  1        1 0.13264055E+00 0.19308713E+04</pdfrwt>
<pdfrwt beam="2">  1       -2 0.16631968E+00 0.19308713E+04</pdfrwt>
<totfact> 0.36214056E+00</totfact>
</mgrwt>
</event>
<event>
12    4  0.4207946E-008  0.2010969E+04  0.7818608E-02  0.8601510E-01
         -2   -1    0    0    0  501 -0.00000000000E+00  0.00000000000E+00  0.33486096549E+03  0.33486096549E+03  0.00000000000E+00 0.  1.
          1   -1    0    0  501    0  0.00000000000E+00 -0.00000000000E+00 -0.30191598319E+04  0.30191598319E+04  0.00000000000E+00 0. -1.
        -24    2    1    2    0    0 -0.76854981915E+03 -0.20581048568E+03 -0.10842503164E+04  0.13472099324E+04  0.79681069512E+02 0.  0.
        254    2    1    2    0    0  0.76854981915E+03  0.20581048568E+03 -0.16000485500E+04  0.20068108650E+04  0.91329497146E+03 0.  0.
         23    2    4    4    0    0  0.92050186525E+03  0.33262165433E+03 -0.12071947801E+04  0.15565957552E+04  0.87808081748E+02 0.  0.
         23    2    4    4    0    0 -0.15195204610E+03 -0.12681116865E+03 -0.39285376994E+03  0.45021510979E+03  0.95859604177E+02 0.  0.
          1    1    3    3  502    0 -0.64129491623E+03 -0.19245682521E+03 -0.94428910404E+03  0.11575753587E+04  0.00000000000E+00 0. -1.
         -2    1    3    3    0  502 -0.12725490292E+03 -0.13353660464E+02 -0.13996121235E+03  0.18963457366E+03  0.00000000000E+00 0.  1.
         11    1    5    5    0    0  0.77051887984E+03  0.26860097430E+03 -0.95330727298E+03  0.12548468370E+04  0.00000000000E+00 0. -1.
        -11    1    5    5    0    0  0.14998298541E+03  0.64020680031E+02 -0.25388750712E+03  0.30174891823E+03  0.00000000000E+00 0.  1.
          1    1    6    6  503    0 -0.13329677507E+03 -0.98926969769E+02 -0.37929784062E+03  0.41403070839E+03  0.00000000000E+00 0. -1.
         -1    1    6    6    0  503 -0.18655271028E+02 -0.27884198884E+02 -0.13555929323E+02  0.36184401395E+02  0.00000000000E+00 0.  1.
<mgrwt>
<rscale>  0 0.20109687E+04</rscale>
<asrwt>0</asrwt>
<pdfrwt beam="1">  1        1 0.46448613E+00 0.20109687E+04</pdfrwt>
<pdfrwt beam="2">  1       -2 0.51517071E-01 0.20109687E+04</pdfrwt>
<totfact> 0.16806278E+00</totfact>
</mgrwt>
</event>
<event>
12    4  0.4207946E-008  0.1718921E+04  0.7818608E-02  0.8750646E-01
         -4   -1    0    0    0  501 -0.00000000000E+00  0.00000000000E+00  0.14855183568E+04  0.14855183568E+04  0.00000000000E+00 0.  1.
          3   -1    0    0  501    0  0.00000000000E+00 -0.00000000000E+00 -0.49724899220E+03  0.49724899220E+03  0.00000000000E+00 0. -1.
        -24    2    1    2    0    0 -0.41024795160E+03  0.39185563087E+03  0.65367465314E+03  0.86911683390E+03  0.78862548708E+02 0.  0.
        254    2    1    2    0    0  0.41024795160E+03 -0.39185563087E+03  0.33459471145E+03  0.11136505151E+04  0.89800313563E+03 0.  0.
         23    2    4    4    0    0  0.21157134936E+03 -0.11479483025E+03 -0.29527295082E+03  0.39154996013E+03  0.90470806735E+02 0.  0.
         23    2    4    4    0    0  0.19867660224E+03 -0.27706080062E+03  0.62986766227E+03  0.72210055496E+03  0.91982933143E+02 0.  0.
          1    1    3    3  502    0 -0.56396100678E+02  0.84937650475E+02  0.88007817525E+02  0.13468593314E+03  0.00000000000E+00 0. -1.
         -2    1    3    3    0  502 -0.35385185092E+03  0.30691798039E+03  0.56566683561E+03  0.73443090077E+03  0.00000000000E+00 0.  1.
         11    1    5    5    0    0  0.14627988302E+03 -0.10941921614E+03 -0.25816311014E+03  0.31625711134E+03  0.00000000000E+00 0.  1.
        -11    1    5    5    0    0  0.65291466336E+02 -0.53756141092E+01 -0.37109840682E+02  0.75292848789E+02  0.00000000000E+00 0. -1.
          2    1    6    6  503    0  0.43898997040E+01 -0.53187668669E+02  0.13610450139E+03  0.14619382551E+03  0.00000000000E+00 0. -1.
         -2    1    6    6    0  503  0.19428670254E+03 -0.22387313195E+03  0.49376316087E+03  0.57590672945E+03  0.00000000000E+00 0.  1.
<mgrwt>
<rscale>  0 0.17189212E+04</rscale>
<asrwt>0</asrwt>
<pdfrwt beam="1">  1        3 0.76499846E-01 0.17189212E+04</pdfrwt>
<pdfrwt beam="2">  1       -4 0.22854128E+00 0.17189212E+04</pdfrwt>
<totfact> 0.30061341E-01</totfact>
</mgrwt>
</event>
<event>
12    4  0.4207946E-008  0.1590706E+04  0.7818608E-02  0.8826278E-01
         -2   -1    0    0    0  501 -0.00000000000E+00  0.00000000000E+00  0.73075742717E+03  0.73075742717E+03  0.00000000000E+00 0.  1.
          1   -1    0    0  501    0  0.00000000000E+00 -0.00000000000E+00 -0.86565850467E+03  0.86565850467E+03  0.00000000000E+00 0. -1.
        -24    2    1    2    0    0  0.55439391011E+03  0.60928169672E+00 -0.25422349705E+03  0.61511989862E+03  0.79937002919E+02 0.  0.
        254    2    1    2    0    0 -0.55439391011E+03 -0.60928169672E+00  0.11932241955E+03  0.98129603322E+03  0.80084398370E+03 0.  0.
         23    2    4    4    0    0 -0.68199769906E+03  0.40711722233E+02 -0.11177761351E+03  0.69892393641E+03  0.96031912149E+02 0.  0.
         23    2    4    4    0    0  0.12760378896E+03 -0.41321003930E+02  0.23110003305E+03  0.28237209681E+03  0.91305111895E+02 0.  0.
          1    1    3    3  502    0  0.52951431093E+03  0.17379604911E+02 -0.23574321917E+03  0.57988129952E+03  0.00000000000E+00 0. -1.
         -2    1    3    3    0  502  0.24879599175E+02 -0.16770323214E+02 -0.18480277885E+02  0.35238599099E+02  0.00000000000E+00 0.  1.
         11    1    5    5    0    0 -0.32224100584E+03  0.65776388242E+02 -0.65401538994E+02  0.33532545444E+03  0.00000000000E+00 0. -1.
        -11    1    5    5    0    0 -0.35975669323E+03 -0.25064666009E+02 -0.46376074513E+02  0.36359848197E+03  0.00000000000E+00 0.  1.
          1    1    6    6  503    0 -0.43008557356E+01  0.15345188818E+02  0.10202202562E+02  0.18922397232E+02  0.00000000000E+00 0. -1.
         -1    1    6    6    0  503  0.13190464469E+03 -0.56666192748E+02  0.22089783049E+03  0.26344969958E+03  0.00000000000E+00 0.  1.
<mgrwt>
<rscale>  0 0.15907060E+04</rscale>
<asrwt>0</asrwt>
<pdfrwt beam="1">  1        1 0.13317823E+00 0.15907060E+04</pdfrwt>
<pdfrwt beam="2">  1       -2 0.11242422E+00 0.15907060E+04</pdfrwt>
<totfact> 0.10186709E+01</totfact>
</mgrwt>
</event>
<event>
12    4  0.4207946E-008  0.1551691E+04  0.7818608E-02  0.8850788E-01
         -2   -1    0    0    0  501 -0.00000000000E+00  0.00000000000E+00  0.39097231759E+03  0.39097231759E+03  0.00000000000E+00 0.  1.
          1   -1    0    0  501    0  0.00000000000E+00 -0.00000000000E+00 -0.15395884942E+04  0.15395884942E+04  0.00000000000E+00 0. -1.
        -24    2    1    2    0    0  0.13720921763E+03  0.30516169303E+03 -0.86172786067E+03  0.92777089082E+03  0.78954997924E+02 0.  0.
        254    2    1    2    0    0 -0.13720921763E+03 -0.30516169303E+03 -0.28688831593E+03  0.10027899210E+04  0.90074007985E+03 0.  0.
         23    2    4    4    0    0 -0.48826155715E+03 -0.22460327960E+03 -0.19844778036E+02  0.54546613070E+03  0.91068672569E+02 0.  0.
         23    2    4    4    0    0  0.35105233952E+03 -0.80558413427E+02 -0.26704353789E+03  0.45732379026E+03  0.90029966963E+02 0.  0.
          3    1    3    3  502    0  0.40637831226E+02  0.12134130755E+03 -0.43116639594E+03  0.44975505248E+03  0.00000000000E+00 0. -1.
         -4    1    3    3    0  502  0.96571386406E+02  0.18382038547E+03 -0.43056146474E+03  0.47801583834E+03  0.00000000000E+00 0.  1.
         11    1    5    5    0    0 -0.47845649127E+01  0.53987153244E+01 -0.67936425026E+01  0.99091758997E+01  0.00000000000E+00 0.  1.
        -11    1    5    5    0    0 -0.48347699224E+03 -0.23000199492E+03 -0.13051135534E+02  0.53555695480E+03  0.00000000000E+00 0. -1.
          2    1    6    6  503    0  0.10668278241E+02  0.14080011057E+02 -0.89969720244E+01  0.19824338011E+02  0.00000000000E+00 0.  1.
         -2    1    6    6    0  503  0.34038406128E+03 -0.94638424484E+02 -0.25804656586E+03  0.43749945225E+03  0.00000000000E+00 0. -1.
<mgrwt>
<rscale>  0 0.15516913E+04</rscale>
<asrwt>0</asrwt>
<pdfrwt beam="1">  1        1 0.23685977E+00 0.15516913E+04</pdfrwt>
<pdfrwt beam="2">  1       -2 0.60149587E-01 0.15516913E+04</pdfrwt>
<totfact> 0.13375022E+01</totfact>
</mgrwt>
</event>
<event>
12    4  0.4207946E-008  0.1751984E+04  0.7818608E-02  0.8732259E-01
          1   -1    0    0  501    0  0.00000000000E+00  0.00000000000E+00  0.11647799978E+04  0.11647799978E+04  0.00000000000E+00 0. -1.
         -2   -1    0    0    0  501 -0.00000000000E+00 -0.00000000000E+00 -0.65880449954E+03  0.65880449954E+03  0.00000000000E+00 0.  1.
        -24    2    1    2    0    0 -0.13113455610E+03  0.55085837657E+03  0.49619354933E+03  0.75729541135E+03  0.81529619246E+02 0.  0.
        254    2    1    2    0    0  0.13113455610E+03 -0.55085837657E+03  0.97819489572E+01  0.10662890860E+04  0.90345752837E+03 0.  0.
         23    2    4    4    0    0 -0.40107113247E+02  0.77220792517E+02  0.31639954147E+03  0.34082633688E+03  0.92099352525E+02 0.  0.
         23    2    4    4    0    0  0.17124166934E+03 -0.62807916909E+03 -0.30661759251E+03  0.72546274913E+03  0.92058135845E+02 0.  0.
          3    1    3    3  502    0 -0.13258682746E+03  0.40723392707E+03  0.37985426012E+03  0.57245785618E+03  0.00000000000E+00 0. -1.
         -2    1    3    3    0  502  0.14522713656E+01  0.14362444950E+03  0.11633928921E+03  0.18483755517E+03  0.00000000000E+00 0.  1.
         11    1    5    5    0    0 -0.63375396516E+02  0.26956976611E+02  0.20783845733E+03  0.21895192124E+03  0.00000000000E+00 0. -1.
        -11    1    5    5    0    0  0.23268283269E+02  0.50263815905E+02  0.10856108415E+03  0.12187441564E+03  0.00000000000E+00 0.  1.
          1    1    6    6  503    0  0.14640043938E+03 -0.60845018558E+03 -0.29250033006E+03  0.69079748122E+03  0.00000000000E+00 0. -1.
         -1    1    6    6    0  503  0.24841229966E+02 -0.19628983510E+02 -0.14117262456E+02  0.34665267908E+02  0.00000000000E+00 0.  1.
<mgrwt>
<rscale>  0 0.17519844E+04</rscale>
<asrwt>0</asrwt>
<pdfrwt beam="1">  1        1 0.17919692E+00 0.17519844E+04</pdfrwt>
<pdfrwt beam="2">  1       -2 0.10135454E+00 0.17519844E+04</pdfrwt>
<totfact> 0.75401859E+00</totfact>
</mgrwt>
</event>
<event>
12    4  0.4207946E-008  0.1594822E+04  0.7818608E-02  0.8823735E-01
         -2   -1    0    0    0  501 -0.00000000000E+00  0.00000000000E+00  0.39061820776E+03  0.39061820776E+03  0.00000000000E+00 0.  1.
          1   -1    0    0  501    0  0.00000000000E+00 -0.00000000000E+00 -0.16278416657E+04  0.16278416657E+04  0.00000000000E+00 0. -1.
        -24    2    1    2    0    0  0.16688242428E+03  0.34715586848E+03 -0.92796023423E+03  0.10079488750E+04  0.80522032811E+02 0.  0.
        254    2    1    2    0    0 -0.16688242428E+03 -0.34715586848E+03 -0.30926322368E+03  0.10105109984E+04  0.88154511845E+03 0.  0.
         23    2    4    4    0    0 -0.23694635254E+03  0.21394804920E+03  0.49675912319E+02  0.33448147344E+03  0.86561065571E+02 0.  0.
         23    2    4    4    0    0  0.70063928261E+02 -0.56110391768E+03 -0.35893913600E+03  0.67602952499E+03  0.91826220759E+02 0.  0.
          1    1    3    3  502    0  0.11177813480E+03  0.16974241267E+03 -0.56022844303E+03  0.59595532254E+03  0.00000000000E+00 0. -1.
         -2    1    3    3    0  502  0.55104289481E+02  0.17741345581E+03 -0.36773179120E+03  0.41199355247E+03  0.00000000000E+00 0.  1.
         11    1    5    5    0    0 -0.20589572337E+03  0.14455287284E+03  0.57484546068E+02  0.25805630197E+03  0.00000000000E+00 0. -1.
        -11    1    5    5    0    0 -0.31050629168E+02  0.69395176358E+02 -0.78086337495E+01  0.76425171472E+02  0.00000000000E+00 0.  1.
          2    1    6    6  503    0  0.38379803860E+02 -0.51532003194E+03 -0.31591111175E+03  0.60566292209E+03  0.00000000000E+00 0. -1.
         -2    1    6    6    0  503  0.31684124402E+02 -0.45783885739E+02 -0.43028024249E+02  0.70366602897E+02  0.00000000000E+00 0.  1.
<mgrwt>
<rscale>  0 0.15948224E+04</rscale>
<asrwt>0</asrwt>
<pdfrwt beam="1">  1        1 0.25043718E+00 0.15948224E+04</pdfrwt>
<pdfrwt beam="2">  1       -2 0.60095110E-01 0.15948224E+04</pdfrwt>
<totfact> 0.11612357E+01</totfact>
</mgrwt>
</event>
<event>
12    4  0.4207946E-008  0.1531605E+04  0.7818608E-02  0.8863704E-01
         -2   -1    0    0    0  501 -0.00000000000E+00  0.00000000000E+00  0.30342690491E+03  0.30342690491E+03  0.00000000000E+00 0.  1.
          1   -1    0    0  501    0  0.00000000000E+00 -0.00000000000E+00 -0.19327661986E+04  0.19327661986E+04  0.00000000000E+00 0. -1.
        -24    2    1    2    0    0 -0.14884020209E+03 -0.30469175658E+03 -0.27637153651E+01  0.34883293701E+03  0.81769844875E+02 0.  0.
        254    2    1    2    0    0  0.14884020209E+03  0.30469175658E+03 -0.16265755783E+04  0.18873601665E+04  0.89520378339E+03 0.  0.
         23    2    4    4    0    0  0.34632378053E+03 -0.18763189079E+03 -0.53786714730E+03  0.67289637760E+03  0.91337721916E+02 0.  0.
         23    2    4    4    0    0 -0.19748357843E+03  0.49232364737E+03 -0.10887084310E+04  0.12144637889E+04  0.90851027770E+02 0.  0.
          1    1    3    3  502    0 -0.63149199509E+02 -0.66115233262E+02  0.22269806441E+02  0.94100955079E+02  0.00000000000E+00 0. -1.
         -2    1    3    3    0  502 -0.85691002585E+02 -0.23857652332E+03 -0.25033521806E+02  0.25473198193E+03  0.00000000000E+00 0.  1.
         11    1    5    5    0    0  0.19788038131E+03 -0.81403162984E+02 -0.35512525596E+03  0.41460471256E+03  0.00000000000E+00 0. -1.
        -11    1    5    5    0    0  0.14844339921E+03 -0.10622872781E+03 -0.18274189134E+03  0.25829166504E+03  0.00000000000E+00 0.  1.
          3    1    6    6  503    0 -0.10254571173E+03  0.14161270363E+03 -0.35553428772E+03  0.39619996286E+03  0.00000000000E+00 0. -1.
         -3    1    6    6    0  503 -0.94937866698E+02  0.35071094374E+03 -0.73317414328E+03  0.81826382602E+03  0.00000000000E+00 0.  1.
<mgrwt>
<rscale>  0 0.15316047E+04</rscale>
<asrwt>0</asrwt>
<pdfrwt beam="1">  1        1 0.29734864E+00 0.15316047E+04</pdfrwt>
<pdfrwt beam="2">  1       -2 0.46681063E-01 0.15316047E+04</pdfrwt>
<totfact> 0.12202707E+01</totfact>
</mgrwt>
</event>
<event>
12    4  0.4207946E-008  0.3631512E+04  0.7818608E-02  0.8083311E-01
         -2   -1    0    0    0  501 -0.00000000000E+00  0.00000000000E+00  0.21403147461E+04  0.21403147461E+04  0.00000000000E+00 0.  1.
          1   -1    0    0  501    0  0.00000000000E+00 -0.00000000000E+00 -0.15404133691E+04  0.15404133691E+04  0.00000000000E+00 0. -1.
        -24    2    1    2    0    0 -0.99483294072E+03  0.22580830383E+03 -0.10997255250E+04  0.15024114472E+04  0.84628341660E+02 0.  0.
        254    2    1    2    0    0  0.99483294072E+03 -0.22580830383E+03  0.16996269021E+04  0.21783166680E+04  0.90313339527E+03 0.  0.
         23    2    4    4    0    0 -0.13299351651E+03 -0.56671689507E+02  0.46457575266E+03  0.49479159639E+03  0.89939635738E+02 0.  0.
         23    2    4    4    0    0  0.11278264572E+04 -0.16913661432E+03  0.12350511495E+04  0.16835250716E+04  0.91135135990E+02 0.  0.
          3    1    3    3  502    0 -0.25211751786E+03  0.72606520525E+02 -0.23454116885E+03  0.35191548633E+03  0.00000000000E+00 0. -1.
         -4    1    3    3    0  502 -0.74271542286E+03  0.15320178331E+03 -0.86518435619E+03  0.11504959609E+04  0.00000000000E+00 0.  1.
         11    1    5    5    0    0 -0.15145102887E+01 -0.73405312393E+00 -0.43055601339E+01  0.46228155349E+01  0.00000000000E+00 0.  1.
        -11    1    5    5    0    0 -0.13147900622E+03 -0.55937636383E+02  0.46888131279E+03  0.49016878086E+03  0.00000000000E+00 0. -1.
          4    1    6    6  503    0  0.79440798240E+03 -0.83100605031E+02  0.83042894213E+03  0.11522161173E+04  0.00000000000E+00 0.  1.
         -4    1    6    6    0  503  0.33341847483E+03 -0.86036009293E+02  0.40462220733E+03  0.53130895430E+03  0.00000000000E+00 0. -1.
<mgrwt>
<rscale>  0 0.36315118E+04</rscale>
<asrwt>0</asrwt>
<pdfrwt beam="1">  1        1 0.23698667E+00 0.36315118E+04</pdfrwt>
<pdfrwt beam="2">  1       -2 0.32927919E+00 0.36315118E+04</pdfrwt>
<totfact> 0.91151085E-02</totfact>
</mgrwt>
</event>
<event>
12    4  0.4207946E-008  0.1411528E+04  0.7818608E-02  0.8945516E-01
          1   -1    0    0  501    0  0.00000000000E+00  0.00000000000E+00  0.59996159593E+03  0.59996159593E+03  0.00000000000E+00 0. -1.
         -2   -1    0    0    0  501 -0.00000000000E+00 -0.00000000000E+00 -0.83022453169E+03  0.83022453169E+03  0.00000000000E+00 0.  1.
        -24    2    1    2    0    0 -0.15575127818E+03  0.29913292558E+02  0.32940393000E+03  0.37430304229E+03  0.80265513383E+02 0.  0.
        254    2    1    2    0    0  0.15575127818E+03 -0.29913292558E+02 -0.55966686576E+03  0.10558830853E+04  0.88119738058E+03 0.  0.
         23    2    4    4    0    0 -0.18026752603E+03 -0.25686850552E+03 -0.54964460842E+03  0.64033386930E+03  0.97162022107E+02 0.  0.
         23    2    4    4    0    0  0.33601880421E+03  0.22695521296E+03 -0.10022257336E+02  0.41554921604E+03  0.90351534755E+02 0.  0.
          1    1    3    3  502    0 -0.37187111772E+02 -0.16020718629E+02  0.14329322199E+03  0.14890430543E+03  0.00000000000E+00 0. -1.
         -2    1    3    3    0  502 -0.11856416641E+03  0.45934011187E+02  0.18611070801E+03  0.22539873685E+03  0.00000000000E+00 0.  1.
         11    1    5    5    0    0 -0.10743721687E+03 -0.17095944409E+03 -0.25745486268E+03  0.32718938462E+03  0.00000000000E+00 0. -1.
        -11    1    5    5    0    0 -0.72830309157E+02 -0.85909061428E+02 -0.29218974575E+03  0.31314448468E+03  0.00000000000E+00 0.  1.
          4    1    6    6  503    0  0.36114099604E+02  0.60527025538E+02  0.13466816586E+02  0.71757258585E+02  0.00000000000E+00 0. -1.
         -4    1    6    6    0  503  0.29990470461E+03  0.16642818742E+03 -0.23489073922E+02  0.34379195745E+03  0.00000000000E+00 0.  1.
<mgrwt>
<rscale>  0 0.14115280E+04</rscale>
<asrwt>0</asrwt>
<pdfrwt beam="1">  1        1 0.92301784E-01 0.14115280E+04</pdfrwt>
<pdfrwt beam="2">  1       -2 0.12772685E+00 0.14115280E+04</pdfrwt>
<totfact> 0.13254943E+01</totfact>
</mgrwt>
</event>
<event>
12    4  0.4207946E-008  0.1931924E+04  0.7818608E-02  0.8639127E-01
         -2   -1    0    0    0  501 -0.00000000000E+00  0.00000000000E+00  0.11207795148E+04  0.11207795148E+04  0.00000000000E+00 0.  1.
          1   -1    0    0  501    0  0.00000000000E+00 -0.00000000000E+00 -0.83252970171E+03  0.83252970171E+03  0.00000000000E+00 0. -1.
        -24    2    1    2    0    0  0.21152119858E+02 -0.86365959068E+02  0.79586894745E+03  0.80451621793E+03  0.77022544277E+02 0.  0.
        254    2    1    2    0    0 -0.21152119858E+02  0.86365959068E+02 -0.50761913432E+03  0.11487929986E+04  0.10267140191E+04 0.  0.
         23    2    4    4    0    0  0.48779914030E+03  0.67803990972E+02 -0.33832335387E+03  0.60440694232E+03  0.91102566835E+02 0.  0.
         23    2    4    4    0    0 -0.50895126016E+03  0.18561968095E+02 -0.16929578045E+03  0.54438605630E+03  0.91209567139E+02 0.  0.
          1    1    3    3  502    0  0.19257304072E+02  0.71815087039E+01  0.81768016598E+02  0.84311484186E+02  0.00000000000E+00 0. -1.
         -2    1    3    3    0  502  0.18948157854E+01 -0.93547467772E+02  0.71410093086E+03  0.72020473374E+03  0.00000000000E+00 0.  1.
         11    1    5    5    0    0  0.41585516092E+03  0.31125146264E+02 -0.30680531801E+03  0.51771980140E+03  0.00000000000E+00 0. -1.
        -11    1    5    5    0    0  0.71943979374E+02  0.36678844709E+02 -0.31518035859E+02  0.86687140925E+02  0.00000000000E+00 0.  1.
          3    1    6    6  503    0 -0.46847004263E+03  0.19412566317E+02 -0.18043419963E+03  0.50239180822E+03  0.00000000000E+00 0. -1.
         -3    1    6    6    0  503 -0.40481217527E+02 -0.85059822215E+00  0.11138419175E+02  0.41994248077E+02  0.00000000000E+00 0.  1.
<mgrwt>
<rscale>  0 0.19319236E+04</rscale>
<asrwt>0</asrwt>
<pdfrwt beam="1">  1        1 0.12808149E+00 0.19319236E+04</pdfrwt>
<pdfrwt beam="2">  1       -2 0.17242762E+00 0.19319236E+04</pdfrwt>
<totfact> 0.34694669E+00</totfact>
</mgrwt>
</event>
<event>
12    4  0.4207946E-008  0.1806826E+04  0.7818608E-02  0.8702678E-01
         -2   -1    0    0    0  501 -0.00000000000E+00  0.00000000000E+00  0.73980985087E+03  0.73980985087E+03  0.00000000000E+00 0.  1.
          1   -1    0    0  501    0  0.00000000000E+00 -0.00000000000E+00 -0.11031953301E+04  0.11031953301E+04  0.00000000000E+00 0. -1.
        -24    2    1    2    0    0  0.96815478469E+02 -0.32355708160E+03  0.43779330773E+03  0.55850728083E+03  0.78771698681E+02 0.  0.
        254    2    1    2    0    0 -0.96815478469E+02  0.32355708160E+03 -0.80117878697E+03  0.12844979001E+04  0.94550779206E+03 0.  0.
         23    2    4    4    0    0 -0.94730943291E+02 -0.31691242666E+03 -0.18005001119E+03  0.38796752904E+03  0.93238185692E+02 0.  0.
         23    2    4    4    0    0 -0.20845351784E+01  0.64046950827E+03 -0.62112877578E+03  0.89653037110E+03  0.88092076237E+02 0.  0.
          1    1    3    3  502    0  0.55819517411E+02 -0.13568123214E+03  0.13244593039E+03  0.19765409117E+03  0.00000000000E+00 0. -1.
         -2    1    3    3    0  502  0.40995961058E+02 -0.18787584946E+03  0.30534737734E+03  0.36085318966E+03  0.00000000000E+00 0.  1.
         11    1    5    5    0    0 -0.61775166718E+02 -0.13173055824E+03 -0.12545020677E+03  0.19211159667E+03  0.00000000000E+00 0. -1.
        -11    1    5    5    0    0 -0.32955776572E+02 -0.18518186842E+03 -0.54599804421E+02  0.19585593237E+03  0.00000000000E+00 0.  1.
          2    1    6    6  503    0  0.31860505217E+02  0.28543476463E+03 -0.23709406424E+03  0.37242676052E+03  0.00000000000E+00 0. -1.
         -2    1    6    6    0  503 -0.33945040395E+02  0.35503474363E+03 -0.38403471154E+03  0.52410361058E+03  0.00000000000E+00 0.  1.
<mgrwt>
<rscale>  0 0.18068257E+04</rscale>
<asrwt>0</asrwt>
<pdfrwt beam="1">  1        1 0.16972236E+00 0.18068257E+04</pdfrwt>
<pdfrwt beam="2">  1       -2 0.11381690E+00 0.18068257E+04</pdfrwt>
<totfact> 0.63056004E+00</totfact>
</mgrwt>
</event>
<event>
12    4  0.4207946E-008  0.2216926E+04  0.7818608E-02  0.8511416E-01
         -2   -1    0    0    0  501 -0.00000000000E+00  0.00000000000E+00  0.50760775989E+03  0.50760775989E+03  0.00000000000E+00 0.  1.
          1   -1    0    0  501    0  0.00000000000E+00 -0.00000000000E+00 -0.24205509331E+04  0.24205509331E+04  0.00000000000E+00 0. -1.
        -24    2    1    2    0    0 -0.35636181789E+03 -0.67039552496E+03 -0.11362228062E+03  0.77160329505E+03  0.77702748594E+02 0.  0.
        254    2    1    2    0    0  0.35636181789E+03  0.67039552496E+03 -0.17993208926E+04  0.21565553980E+04  0.91474127748E+03 0.  0.
         23    2    4    4    0    0 -0.74666633969E+02  0.16868542138E+03 -0.13172140838E+04  0.13332331008E+04  0.91802400599E+02 0.  0.
         23    2    4    4    0    0  0.43102845186E+03  0.50171010358E+03 -0.48210680878E+03  0.82332229717E+03  0.89073428171E+02 0.  0.
          3    1    3    3  502    0 -0.68582128862E+02 -0.75135181777E+02 -0.79746406582E+01  0.10204116245E+03  0.00000000000E+00 0. -1.
         -4    1    3    3    0  502 -0.28777968903E+03 -0.59526034319E+03 -0.10564763997E+03  0.66956213260E+03  0.00000000000E+00 0.  1.
         11    1    5    5    0    0 -0.81128836650E+02  0.70516383769E+02 -0.65993228012E+03  0.66862924170E+03  0.00000000000E+00 0. -1.
        -11    1    5    5    0    0  0.64622026809E+01  0.98169037613E+02 -0.65728180373E+03  0.66460385909E+03  0.00000000000E+00 0.  1.
          3    1    6    6  503    0  0.12089767809E+03  0.19678316379E+03 -0.19404293790E+03  0.30164967075E+03  0.00000000000E+00 0. -1.
         -3    1    6    6    0  503  0.31013077377E+03  0.30492693979E+03 -0.28806387088E+03  0.52167262642E+03  0.00000000000E+00 0.  1.
<mgrwt>
<rscale>  0 0.22169262E+04</rscale>
<asrwt>0</asrwt>
<pdfrwt beam="1">  1        1 0.37239245E+00 0.22169262E+04</pdfrwt>
<pdfrwt beam="2">  1       -2 0.78093501E-01 0.22169262E+04</pdfrwt>
<totfact> 0.17949214E+00</totfact>
</mgrwt>
</event>
<event>
12    4  0.4207946E-008  0.1779393E+04  0.7818608E-02  0.8717336E-01
         -2   -1    0    0    0  501 -0.00000000000E+00  0.00000000000E+00  0.46041968455E+03  0.46041968455E+03  0.00000000000E+00 0.  1.
          1   -1    0    0  501    0  0.00000000000E+00 -0.00000000000E+00 -0.17192129346E+04  0.17192129346E+04  0.00000000000E+00 0. -1.
        -24    2    1    2    0    0 -0.58537959084E+03 -0.59300925327E+02 -0.84093424702E+03  0.10290897547E+04  0.75295751955E+02 0.  0.
        254    2    1    2    0    0  0.58537959084E+03  0.59300925327E+02 -0.41785900304E+03  0.11505428645E+04  0.89607860787E+03 0.  0.
         23    2    4    4    0    0  0.11833640534E+03  0.22533471065E+03  0.21210265724E+03  0.34355113269E+03  0.90887880994E+02 0.  0.
         23    2    4    4    0    0  0.46704318550E+03 -0.16603378533E+03 -0.62996166028E+03  0.80699173179E+03  0.93206259251E+02 0.  0.
          1    1    3    3  502    0 -0.58715088356E+03 -0.61158420739E+02 -0.83477065055E+03  0.10224131022E+04  0.00000000000E+00 0. -1.
         -2    1    3    3    0  502  0.17712927250E+01  0.18574954115E+01 -0.61635964704E+01  0.66766524975E+01  0.00000000000E+00 0.  1.
         11    1    5    5    0    0  0.44278189622E+02  0.13371944089E+03  0.16430246804E+03  0.21641799359E+03  0.00000000000E+00 0. -1.
        -11    1    5    5    0    0  0.74058215714E+02  0.91615269769E+02  0.47800189203E+02  0.12713313910E+03  0.00000000000E+00 0.  1.
          4    1    6    6  503    0  0.44874512702E+03 -0.13989397042E+03 -0.60681682154E+03  0.76757355797E+03  0.00000000000E+00 0. -1.
         -4    1    6    6    0  503  0.18298058486E+02 -0.26139814905E+02 -0.23144838739E+02  0.39418173827E+02  0.00000000000E+00 0.  1.
<mgrwt>
<rscale>  0 0.17793926E+04</rscale>
<asrwt>0</asrwt>
<pdfrwt beam="1">  1        1 0.26449430E+00 0.17793926E+04</pdfrwt>
<pdfrwt beam="2">  1       -2 0.70833796E-01 0.17793926E+04</pdfrwt>
<totfact> 0.69500698E+00</totfact>
</mgrwt>
</event>
<event>
12    4  0.4207946E-008  0.1264928E+04  0.7818608E-02  0.9057850E-01
         -2   -1    0    0    0  501 -0.00000000000E+00  0.00000000000E+00  0.16977365493E+03  0.16977365493E+03  0.00000000000E+00 0.  1.
          1   -1    0    0  501    0  0.00000000000E+00 -0.00000000000E+00 -0.23561399436E+04  0.23561399436E+04  0.00000000000E+00 0. -1.
        -24    2    1    2    0    0  0.18466818695E+03 -0.12278977025E+03 -0.96306022587E+03  0.99149361072E+03  0.79968209299E+02 0.  0.
        254    2    1    2    0    0 -0.18466818695E+03  0.12278977025E+03 -0.12233060628E+04  0.15344199878E+04  0.89932603030E+03 0.  0.
         23    2    4    4    0    0  0.11188357381E+03  0.22553783696E+03 -0.11736234644E+04  0.12037700329E+04  0.91022007948E+02 0.  0.
         23    2    4    4    0    0 -0.29655176076E+03 -0.10274806671E+03 -0.49682598388E+02  0.33064995490E+03  0.91438066838E+02 0.  0.
          1    1    3    3  502    0  0.19094291277E+03 -0.12008909473E+03 -0.89095463770E+03  0.91906515169E+03  0.00000000000E+00 0. -1.
         -2    1    3    3    0  502 -0.62747258185E+01 -0.27006755138E+01 -0.72105588169E+02  0.72428459031E+02  0.00000000000E+00 0.  1.
         11    1    5    5    0    0  0.10317699398E+03  0.12785982030E+03 -0.84509569624E+03  0.86091832455E+03  0.00000000000E+00 0. -1.
        -11    1    5    5    0    0  0.87065798245E+01  0.97678016653E+02 -0.32852776819E+03  0.34285170839E+03  0.00000000000E+00 0.  1.
          1    1    6    6  503    0 -0.20917418495E+03 -0.10634085819E+03 -0.61044094393E+02  0.24246360393E+03  0.00000000000E+00 0. -1.
         -1    1    6    6    0  503 -0.87377575808E+02  0.35927914834E+01  0.11361496004E+02  0.88186350963E+02  0.00000000000E+00 0.  1.
<mgrwt>
<rscale>  0 0.12649276E+04</rscale>
<asrwt>0</asrwt>
<pdfrwt beam="1">  1        1 0.36248306E+00 0.12649276E+04</pdfrwt>
<pdfrwt beam="2">  1       -2 0.26119024E-01 0.12649276E+04</pdfrwt>
<totfact> 0.19586289E+01</totfact>
</mgrwt>
</event>
<event>
12    4  0.4207946E-008  0.1049207E+04  0.7818608E-02  0.9256163E-01
         -2   -1    0    0    0  501 -0.00000000000E+00  0.00000000000E+00  0.66864664740E+03  0.66864664740E+03  0.00000000000E+00 0.  1.
          1   -1    0    0  501    0  0.00000000000E+00 -0.00000000000E+00 -0.41159104356E+03  0.41159104356E+03  0.00000000000E+00 0. -1.
        -24    2    1    2    0    0  0.36330894447E+02  0.85177085033E+02 -0.34680557010E+02  0.12767904246E+03  0.80772069078E+02 0.  0.
        254    2    1    2    0    0 -0.36330894447E+02 -0.85177085033E+02  0.29173616085E+03  0.95255864850E+03  0.90204374704E+03 0.  0.
         23    2    4    4    0    0  0.34310498429E+03  0.21453805001E+03  0.14902776806E+03  0.44037549389E+03  0.89295547617E+02 0.  0.
         23    2    4    4    0    0 -0.37943587873E+03 -0.29971513504E+03  0.14270839279E+03  0.51218315461E+03  0.90361220926E+02 0.  0.
          1    1    3    3  502    0  0.46093155058E+02  0.94447786181E+02 -0.18636145177E+02  0.10673457343E+03  0.00000000000E+00 0. -1.
         -2    1    3    3    0  502 -0.97622606112E+01 -0.92707011476E+01 -0.16044411834E+02  0.20944469033E+02  0.00000000000E+00 0.  1.
         11    1    5    5    0    0  0.22109732281E+03  0.14453624784E+03  0.51270949092E+02  0.26907891652E+03  0.00000000000E+00 0. -1.
        -11    1    5    5    0    0  0.12200766147E+03  0.70001802165E+02  0.97756818963E+02  0.17129657737E+03  0.00000000000E+00 0.  1.
          2    1    6    6  503    0 -0.21544360083E+03 -0.11277396066E+03  0.66971316809E+02  0.25222820741E+03  0.00000000000E+00 0. -1.
         -2    1    6    6    0  503 -0.16399227791E+03 -0.18694117438E+03  0.75737075985E+02  0.25995494719E+03  0.00000000000E+00 0.  1.
<mgrwt>
<rscale>  0 0.10492073E+04</rscale>
<asrwt>0</asrwt>
<pdfrwt beam="1">  1        1 0.63321699E-01 0.10492073E+04</pdfrwt>
<pdfrwt beam="2">  1       -2 0.10286872E+00 0.10492073E+04</pdfrwt>
<totfact> 0.38953133E+01</totfact>
</mgrwt>
</event>
<event>
12    4  0.4207946E-008  0.1577571E+04  0.7818608E-02  0.8834447E-01
          1   -1    0    0  501    0  0.00000000000E+00  0.00000000000E+00  0.36505274610E+03  0.36505274610E+03  0.00000000000E+00 0. -1.
         -2   -1    0    0    0  501 -0.00000000000E+00 -0.00000000000E+00 -0.17043627811E+04  0.17043627811E+04  0.00000000000E+00 0.  1.
        -24    2    1    2    0    0  0.37338123254E+03  0.23692863725E+03 -0.76651611346E+02  0.45795317147E+03  0.91087396401E+02 0.  0.
        254    2    1    2    0    0 -0.37338123254E+03 -0.23692863725E+03 -0.12626584236E+04  0.16114623557E+04  0.89830724429E+03 0.  0.
         23    2    4    4    0    0 -0.39758280997E+03 -0.45024813938E+03 -0.12346936971E+04  0.13761825148E+04  0.92813310316E+02 0.  0.
         23    2    4    4    0    0  0.24201577436E+02  0.21331950214E+03 -0.27964726489E+02  0.23527984087E+03  0.92106738362E+02 0.  0.
          1    1    3    3  502    0  0.33674301847E+03  0.18476872167E+03 -0.44832612732E+02  0.38671087929E+03  0.00000000000E+00 0. -1.
         -2    1    3    3    0  502  0.36638214064E+02  0.52159915575E+02 -0.31818998615E+02  0.71242292183E+02  0.00000000000E+00 0.  1.
         11    1    5    5    0    0 -0.47922890323E+02 -0.94120127726E+02 -0.27248569092E+03  0.29223903507E+03  0.00000000000E+00 0. -1.
        -11    1    5    5    0    0 -0.34965991965E+03 -0.35612801166E+03 -0.96220800623E+03  0.10839434798E+04  0.00000000000E+00 0.  1.
          4    1    6    6  503    0 -0.56392067279E+01  0.18475632939E+03 -0.45570176221E+02  0.19037684435E+03  0.00000000000E+00 0.  1.
         -4    1    6    6    0  503  0.29840784164E+02  0.28563172743E+02  0.17605449732E+02  0.44902996525E+02  0.00000000000E+00 0. -1.
<mgrwt>
<rscale>  0 0.15775707E+04</rscale>
<asrwt>0</asrwt>
<pdfrwt beam="1">  1        1 0.56161961E-01 0.15775707E+04</pdfrwt>
<pdfrwt beam="2">  1       -2 0.26220966E+00 0.15775707E+04</pdfrwt>
<totfact> 0.30810118E+00</totfact>
</mgrwt>
</event>
<event>
12    4  0.4207946E-008  0.2414230E+04  0.7818608E-02  0.8434195E-01
         -2   -1    0    0    0  501 -0.00000000000E+00  0.00000000000E+00  0.73304954977E+03  0.73304954977E+03  0.00000000000E+00 0.  1.
          1   -1    0    0  501    0  0.00000000000E+00 -0.00000000000E+00 -0.19877601493E+04  0.19877601493E+04  0.00000000000E+00 0. -1.
        -24    2    1    2    0    0  0.42611697819E+03 -0.31841753491E+03  0.46318278781E+03  0.70967679972E+03  0.78341939548E+02 0.  0.
        254    2    1    2    0    0 -0.42611697819E+03  0.31841753491E+03 -0.17178933873E+04  0.20111328993E+04  0.90029575303E+03 0.  0.
         23    2    4    4    0    0 -0.40707072458E+02 -0.55486877701E+02 -0.13482655962E+04  0.13529376244E+04  0.88793233027E+02 0.  0.
         23    2    4    4    0    0 -0.38540990573E+03  0.37390441261E+03 -0.36962779115E+03  0.65819527497E+03  0.90835074709E+02 0.  0.
          1    1    3    3  502    0 -0.30848870988E+01 -0.44182953301E+01  0.81670257815E+01  0.97845885019E+01  0.00000000000E+00 0. -1.
         -2    1    3    3    0  502  0.42920186529E+03 -0.31399923958E+03  0.45501576203E+03  0.69989221121E+03  0.00000000000E+00 0.  1.
         11    1    5    5    0    0 -0.49107162982E+01 -0.49562218583E+02 -0.11677538037E+04  0.11688154152E+04  0.00000000000E+00 0.  1.
        -11    1    5    5    0    0 -0.35796356160E+02 -0.59246591183E+01 -0.18051179248E+03  0.18412220921E+03  0.00000000000E+00 0. -1.
          1    1    6    6  503    0 -0.72562545674E+02  0.10474462052E+03 -0.12470146423E+03  0.17828969051E+03  0.00000000000E+00 0. -1.
         -1    1    6    6    0  503 -0.31284736006E+03  0.26915979210E+03 -0.24492632692E+03  0.47990558446E+03  0.00000000000E+00 0.  1.
<mgrwt>
<rscale>  0 0.24142300E+04</rscale>
<asrwt>0</asrwt>
<pdfrwt beam="1">  1        1 0.30580926E+00 0.24142300E+04</pdfrwt>
<pdfrwt beam="2">  1       -2 0.11277685E+00 0.24142300E+04</pdfrwt>
<totfact> 0.14771630E+00</totfact>
</mgrwt>
</event>
<event>
12    4  0.4207946E-008  0.1569941E+04  0.7818608E-02  0.8839230E-01
          1   -1    0    0  501    0  0.00000000000E+00  0.00000000000E+00  0.49830203033E+03  0.49830203033E+03  0.00000000000E+00 0. -1.
         -2   -1    0    0    0  501 -0.00000000000E+00 -0.00000000000E+00 -0.12365574293E+04  0.12365574293E+04  0.00000000000E+00 0.  1.
        -24    2    1    2    0    0 -0.42840382971E+03 -0.29603429946E+03 -0.37624701337E+03  0.64762788748E+03  0.81816366344E+02 0.  0.
        254    2    1    2    0    0  0.42840382971E+03  0.29603429946E+03 -0.36200838562E+03  0.10872315722E+04  0.88309471322E+03 0.  0.
         23    2    4    4    0    0 -0.91691303771E+02  0.45401910119E+03 -0.13917007042E+03  0.49239086398E+03  0.92411119442E+02 0.  0.
         23    2    4    4    0    0  0.52009513348E+03 -0.15798480173E+03 -0.22283831520E+03  0.59484070820E+03  0.93383124608E+02 0.  0.
          3    1    3    3  502    0 -0.38367266599E+03 -0.28803896747E+03 -0.32690341663E+03  0.58054888270E+03  0.00000000000E+00 0. -1.
         -2    1    3    3    0  502 -0.44731163727E+02 -0.79953319866E+01 -0.49343596744E+02  0.67079004775E+02  0.00000000000E+00 0.  1.
         11    1    5    5    0    0 -0.24181902687E+02  0.40170715022E+02  0.88460773183E+01  0.47714817896E+02  0.00000000000E+00 0. -1.
        -11    1    5    5    0    0 -0.67509401084E+02  0.41384838616E+03 -0.14801614774E+03  0.44467604608E+03  0.00000000000E+00 0.  1.
          3    1    6    6  503    0  0.18306832088E+03 -0.13285395304E+02 -0.56007039705E+02  0.19190440416E+03  0.00000000000E+00 0. -1.
         -3    1    6    6    0  503  0.33702681260E+03 -0.14469940642E+03 -0.16683127550E+03  0.40293630404E+03  0.00000000000E+00 0.  1.
<mgrwt>
<rscale>  0 0.15699415E+04</rscale>
<asrwt>0</asrwt>
<pdfrwt beam="1">  1        1 0.76661851E-01 0.15699415E+04</pdfrwt>
<pdfrwt beam="2">  1       -2 0.19023960E+00 0.15699415E+04</pdfrwt>
<totfact> 0.57801472E+00</totfact>
</mgrwt>
</event>
<event>
12    4  0.4207946E-008  0.4038838E+04  0.7818608E-02  0.7996757E-01
         -2   -1    0    0    0  501 -0.00000000000E+00  0.00000000000E+00  0.13815241405E+04  0.13815241405E+04  0.00000000000E+00 0.  1.
          1   -1    0    0  501    0  0.00000000000E+00 -0.00000000000E+00 -0.29518503154E+04  0.29518503154E+04  0.00000000000E+00 0. -1.
        -24    2    1    2    0    0 -0.11355540764E+03 -0.16790402500E+04 -0.17328927315E+04  0.24168454251E+04  0.78444874579E+02 0.  0.
        254    2    1    2    0    0  0.11355540764E+03  0.16790402500E+04  0.16256655655E+03  0.19165290308E+04  0.90254343321E+03 0.  0.
         23    2    4    4    0    0  0.41729661075E+03  0.50956734227E+03  0.22718704097E+03  0.70323973673E+03  0.95586809154E+02 0.  0.
         23    2    4    4    0    0 -0.30374120311E+03  0.11694729077E+04 -0.64620484419E+02  0.12132892940E+04  0.89272076800E+02 0.  0.
          3    1    3    3  502    0 -0.75975886181E+02 -0.14619287542E+04 -0.14867528200E+04  0.20864903463E+04  0.00000000000E+00 0. -1.
         -4    1    3    3    0  502 -0.37579521457E+02 -0.21711149582E+03 -0.24613991145E+03  0.33035507875E+03  0.00000000000E+00 0.  1.
         11    1    5    5    0    0  0.30533467937E+03  0.36167667405E+03  0.20713859598E+03  0.51666786326E+03  0.00000000000E+00 0. -1.
        -11    1    5    5    0    0  0.11196193137E+03  0.14789066822E+03  0.20048444981E+02  0.18657187347E+03  0.00000000000E+00 0.  1.
          3    1    6    6  503    0 -0.20527483164E+03  0.92121174235E+03 -0.67282452843E+02  0.94620069711E+03  0.00000000000E+00 0. -1.
         -3    1    6    6    0  503 -0.98466371464E+02  0.24826116535E+03  0.26619684235E+01  0.26708859693E+03  0.00000000000E+00 0.  1.
<mgrwt>
<rscale>  0 0.40388377E+04</rscale>
<asrwt>0</asrwt>
<pdfrwt beam="1">  1        1 0.45413081E+00 0.40388377E+04</pdfrwt>
<pdfrwt beam="2">  1       -2 0.21254218E+00 0.40388377E+04</pdfrwt>
<totfact> 0.49066155E-02</totfact>
</mgrwt>
</event>
<event>
12    4  0.4207946E-008  0.5092644E+04  0.7818608E-02  0.7814373E-01
          1   -1    0    0  501    0  0.00000000000E+00  0.00000000000E+00  0.22635394655E+04  0.22635394655E+04  0.00000000000E+00 0. -1.
         -2   -1    0    0    0  501 -0.00000000000E+00 -0.00000000000E+00 -0.28644328096E+04  0.28644328096E+04  0.00000000000E+00 0.  1.
        -24    2    1    2    0    0  0.11593964965E+04  0.17303843470E+04  0.10375496171E+04  0.23284058876E+04  0.80836531842E+02 0.  0.
        254    2    1    2    0    0 -0.11593964965E+04 -0.17303843470E+04 -0.16384429611E+04  0.27995663875E+04  0.90257764030E+03 0.  0.
         23    2    4    4    0    0 -0.27559133416E+03  0.13343514146E+02 -0.92102014483E+02  0.30529263161E+03  0.92693996642E+02 0.  0.
         23    2    4    4    0    0 -0.88380516234E+03 -0.17437278611E+04 -0.15463409467E+04  0.24942737559E+04  0.92373304424E+02 0.  0.
          1    1    3    3  502    0  0.10731279370E+04  0.16012784391E+04  0.98330148590E+03  0.21639265285E+04  0.00000000000E+00 0. -1.
         -2    1    3    3    0  502  0.86268559454E+02  0.12910590790E+03  0.54248131224E+02  0.16447935903E+03  0.00000000000E+00 0.  1.
         11    1    5    5    0    0 -0.14081436219E+03 -0.39515833553E+02 -0.48894333595E+02  0.15421038084E+03  0.00000000000E+00 0. -1.
        -11    1    5    5    0    0 -0.13477697196E+03  0.52859347699E+02 -0.43207680888E+02  0.15108225077E+03  0.00000000000E+00 0.  1.
          4    1    6    6  503    0 -0.79263593690E+02 -0.22002550176E+03 -0.17440831548E+03  0.29173995136E+03  0.00000000000E+00 0. -1.
         -4    1    6    6    0  503 -0.80454156865E+03 -0.15237023594E+04 -0.13719326312E+04  0.22025338045E+04  0.00000000000E+00 0.  1.
<mgrwt>
<rscale>  0 0.50926444E+04</rscale>
<asrwt>0</asrwt>
<pdfrwt beam="1">  1        1 0.34823684E+00 0.50926444E+04</pdfrwt>
<pdfrwt beam="2">  1       -2 0.44068197E+00 0.50926444E+04</pdfrwt>
<totfact> 0.49760683E-03</totfact>
</mgrwt>
</event>
<event>
12    4  0.4207946E-008  0.1277506E+04  0.7818608E-02  0.9047596E-01
         -2   -1    0    0    0  501 -0.00000000000E+00  0.00000000000E+00  0.35856843075E+03  0.35856843075E+03  0.00000000000E+00 0.  1.
          1   -1    0    0  501    0  0.00000000000E+00 -0.00000000000E+00 -0.11378733515E+04  0.11378733515E+04  0.00000000000E+00 0. -1.
        -24    2    1    2    0    0  0.17530340190E+03  0.99628998666E+02 -0.46465362046E+03  0.51753194055E+03  0.10620311856E+03 0.  0.
        254    2    1    2    0    0 -0.17530340190E+03 -0.99628998666E+02 -0.31465130025E+03  0.97890984166E+03  0.90476616717E+03 0.  0.
         23    2    4    4    0    0 -0.25367461232E+03  0.15034843184E+03 -0.53947100481E+03  0.62156568506E+03  0.91430169638E+02 0.  0.
         23    2    4    4    0    0  0.78371210422E+02 -0.24997743051E+03  0.22481970456E+03  0.35734415660E+03  0.92304844493E+02 0.  0.
          3    1    3    3  502    0  0.73432756164E+02  0.53579530741E+02 -0.33115850824E+03  0.34340805665E+03  0.00000000000E+00 0. -1.
         -4    1    3    3    0  502  0.10187064574E+03  0.46049467924E+02 -0.13349511223E+03  0.17412388391E+03  0.00000000000E+00 0.  1.
         11    1    5    5    0    0 -0.19856266437E+03  0.15684709746E+03 -0.45080229698E+03  0.51696310761E+03  0.00000000000E+00 0.  1.
        -11    1    5    5    0    0 -0.55111947953E+02 -0.64986656179E+01 -0.88668707828E+02  0.10460257745E+03  0.00000000000E+00 0. -1.
          1    1    6    6  503    0  0.31028675972E+02 -0.22978912894E+02  0.70779807479E+01  0.39254388059E+02  0.00000000000E+00 0. -1.
         -1    1    6    6    0  503  0.47342534450E+02 -0.22699851761E+03  0.21774172381E+03  0.31808976855E+03  0.00000000000E+00 0.  1.
<mgrwt>
<rscale>  0 0.12775061E+04</rscale>
<asrwt>0</asrwt>
<pdfrwt beam="1">  1        1 0.17505744E+00 0.12775061E+04</pdfrwt>
<pdfrwt beam="2">  1       -2 0.55164374E-01 0.12775061E+04</pdfrwt>
<totfact> 0.31668111E+01</totfact>
</mgrwt>
</event>
<event>
12    4  0.4207946E-008  0.2749215E+04  0.7818608E-02  0.8319211E-01
         -2   -1    0    0    0  501 -0.00000000000E+00  0.00000000000E+00  0.38877732775E+04  0.38877732775E+04  0.00000000000E+00 0.  1.
          1   -1    0    0  501    0  0.00000000000E+00 -0.00000000000E+00 -0.48602258006E+03  0.48602258006E+03  0.00000000000E+00 0. -1.
        -24    2    1    2    0    0  0.25029551260E+03 -0.10385652875E+04  0.24695471865E+04  0.26918439298E+04  0.78068786896E+02 0.  0.
        254    2    1    2    0    0 -0.25029551260E+03  0.10385652875E+04  0.93220351091E+03  0.16819519278E+04  0.90481666739E+03 0.  0.
         23    2    4    4    0    0 -0.33189566466E+03  0.11279432318E+04  0.61455234621E+03  0.13299117467E+04  0.92628296287E+02 0.  0.
         23    2    4    4    0    0  0.81600152054E+02 -0.89377944269E+02  0.31765116469E+03  0.35204018114E+03  0.91558860676E+02 0.  0.
          1    1    3    3  502    0  0.19016860974E+03 -0.73516589265E+03  0.18355403580E+04  0.19864142054E+04  0.00000000000E+00 0. -1.
         -2    1    3    3    0  502  0.60126902865E+02 -0.30339939490E+03  0.63400682858E+03  0.70542972433E+03  0.00000000000E+00 0.  1.
         11    1    5    5    0    0 -0.29295247959E+02  0.17825174325E+03  0.66904172968E+02  0.19263453451E+03  0.00000000000E+00 0. -1.
        -11    1    5    5    0    0 -0.30260041670E+03  0.94969148857E+03  0.54764817324E+03  0.11372772122E+04  0.00000000000E+00 0.  1.
          4    1    6    6  503    0 -0.18002224986E+02 -0.94342641952E+01  0.76531606546E+02  0.79184419211E+02  0.00000000000E+00 0. -1.
         -4    1    6    6    0  503  0.99602377040E+02 -0.79943680073E+02  0.24111955815E+03  0.27285576193E+03  0.00000000000E+00 0.  1.
<mgrwt>
<rscale>  0 0.27492149E+04</rscale>
<asrwt>0</asrwt>
<pdfrwt beam="1">  1        1 0.74772707E-01 0.27492149E+04</pdfrwt>
<pdfrwt beam="2">  1       -2 0.59811894E+00 0.27492149E+04</pdfrwt>
<totfact> 0.17868294E-02</totfact>
</mgrwt>
</event>
<event>
12    4  0.4207946E-008  0.2390143E+04  0.7818608E-02  0.8443203E-01
         -2   -1    0    0    0  501 -0.00000000000E+00  0.00000000000E+00  0.76142486408E+03  0.76142486408E+03  0.00000000000E+00 0.  1.
          1   -1    0    0  501    0  0.00000000000E+00 -0.00000000000E+00 -0.18756890938E+04  0.18756890938E+04  0.00000000000E+00 0. -1.
        -24    2    1    2    0    0  0.12334490832E+03  0.58590640063E+03  0.43977959777E+03  0.74715707895E+03  0.79607344542E+02 0.  0.
        254    2    1    2    0    0 -0.12334490832E+03 -0.58590640063E+03 -0.15540438275E+04  0.18899568790E+04  0.89352364811E+03 0.  0.
         23    2    4    4    0    0 -0.50673653706E+02 -0.11366840109E+03  0.85801917361E+02  0.17948274171E+03  0.96766528118E+02 0.  0.
         23    2    4    4    0    0 -0.72671254613E+02 -0.47223799954E+03 -0.16398457449E+04  0.17104741373E+04  0.91311925237E+02 0.  0.
          3    1    3    3  502    0  0.10648433142E+03  0.55300278543E+03  0.38944517722E+03  0.68470324929E+03  0.00000000000E+00 0. -1.
         -4    1    3    3    0  502  0.16860576900E+02  0.32903615193E+02  0.50334420555E+02  0.62453829656E+02  0.00000000000E+00 0.  1.
         11    1    5    5    0    0  0.15735067333E+02 -0.91761823584E+01 -0.11907419623E+02  0.21761923369E+02  0.00000000000E+00 0. -1.
        -11    1    5    5    0    0 -0.66408721039E+02 -0.10449221873E+03  0.97709336984E+02  0.15772081834E+03  0.00000000000E+00 0.  1.
          2    1    6    6  503    0 -0.69781583026E+02 -0.16776718682E+03 -0.58611167243E+03  0.61363033730E+03  0.00000000000E+00 0. -1.
         -2    1    6    6    0  503 -0.28896715869E+01 -0.30447081271E+03 -0.10537340725E+04  0.10968437999E+04  0.00000000000E+00 0.  1.
<mgrwt>
<rscale>  0 0.23901434E+04</rscale>
<asrwt>0</asrwt>
<pdfrwt beam="1">  1        1 0.28856755E+00 0.23901434E+04</pdfrwt>
<pdfrwt beam="2">  1       -2 0.11714229E+00 0.23901434E+04</pdfrwt>
<totfact> 0.16071114E+00</totfact>
</mgrwt>
</event>
<event>
12    4  0.4207946E-008  0.1378440E+04  0.7818608E-02  0.8969574E-01
         -4   -1    0    0    0  501 -0.00000000000E+00  0.00000000000E+00  0.75642833588E+03  0.75642833588E+03  0.00000000000E+00 0.  1.
          3   -1    0    0  501    0  0.00000000000E+00 -0.00000000000E+00 -0.62798304873E+03  0.62798304873E+03  0.00000000000E+00 0. -1.
        -24    2    1    2    0    0 -0.12313821616E+03  0.95842866912E+02 -0.31990233826E+03  0.36530153515E+03  0.82212104609E+02 0.  0.
        254    2    1    2    0    0  0.12313821616E+03 -0.95842866912E+02  0.44834762541E+03  0.10191098495E+04  0.90178734557E+03 0.  0.
         23    2    4    4    0    0  0.45477807560E+03  0.15455406223E+03  0.25524228186E+03  0.55151943263E+03  0.91186654320E+02 0.  0.
         23    2    4    4    0    0 -0.33163985945E+03 -0.25039692914E+03  0.19310534355E+03  0.46759041682E+03  0.93099439851E+02 0.  0.
          1    1    3    3  502    0 -0.11349379557E+03  0.10236841249E+03 -0.23986184488E+03  0.28441842088E+03  0.00000000000E+00 0. -1.
         -2    1    3    3    0  502 -0.96444205848E+01 -0.65255455734E+01 -0.80040493380E+02  0.80883114269E+02  0.00000000000E+00 0.  1.
         11    1    5    5    0    0  0.37408644244E+03  0.90678984856E+02  0.21595948680E+03  0.44136361953E+03  0.00000000000E+00 0.  1.
        -11    1    5    5    0    0  0.80691633166E+02  0.63875077372E+02  0.39282795055E+02  0.11015581310E+03  0.00000000000E+00 0. -1.
          2    1    6    6  503    0 -0.87516179588E+02 -0.11259583477E+03  0.91380662149E+02  0.16937334239E+03  0.00000000000E+00 0. -1.
         -2    1    6    6    0  503 -0.24412367986E+03 -0.13780109437E+03  0.10172468140E+03  0.29821707443E+03  0.00000000000E+00 0.  1.
<mgrwt>
<rscale>  0 0.13784399E+04</rscale>
<asrwt>0</asrwt>
<pdfrwt beam="1">  1        3 0.96612777E-01 0.13784399E+04</pdfrwt>
<pdfrwt beam="2">  1       -4 0.11637359E+00 0.13784399E+04</pdfrwt>
<totfact> 0.12081143E+00</totfact>
</mgrwt>
</event>
<event>
12    4  0.4207946E-008  0.1395177E+04  0.7818608E-02  0.8957317E-01
          3   -1    0    0  501    0  0.00000000000E+00  0.00000000000E+00  0.66442352164E+03  0.66442352164E+03  0.00000000000E+00 0. -1.
         -4   -1    0    0    0  501 -0.00000000000E+00 -0.00000000000E+00 -0.73240845500E+03  0.73240845500E+03  0.00000000000E+00 0.  1.
        -24    2    1    2    0    0  0.18390519798E+03  0.13686310133E+03 -0.35529516146E+03  0.43036818653E+03  0.80184124829E+02 0.  0.
        254    2    1    2    0    0 -0.18390519798E+03 -0.13686310133E+03  0.28731022810E+03  0.96646379010E+03  0.89384140655E+03 0.  0.
         23    2    4    4    0    0  0.21681599105E+03  0.26079203554E+03  0.10471379754E+03  0.36609703321E+03  0.89668269489E+02 0.  0.
         23    2    4    4    0    0 -0.40072118903E+03 -0.39765513687E+03  0.18259643056E+03  0.60036675689E+03  0.91606261329E+02 0.  0.
          1    1    3    3  502    0  0.33018922611E+02  0.57643721639E+01 -0.10402375674E+03  0.10929052659E+03  0.00000000000E+00 0. -1.
         -2    1    3    3    0  502  0.15088627537E+03  0.13109872917E+03 -0.25127140472E+03  0.32107765994E+03  0.00000000000E+00 0.  1.
         11    1    5    5    0    0  0.61941152595E+02  0.52607246425E+02 -0.10967682463E+02  0.82003163474E+02  0.00000000000E+00 0. -1.
        -11    1    5    5    0    0  0.15487483846E+03  0.20818478911E+03  0.11568148000E+03  0.28409386973E+03  0.00000000000E+00 0.  1.
          3    1    6    6  503    0 -0.53572661256E+02 -0.76126203090E+02 -0.26743261311E+00  0.93087595044E+02  0.00000000000E+00 0. -1.
         -3    1    6    6    0  503 -0.34714852777E+03 -0.32152893378E+03  0.18286386317E+03  0.50727916185E+03  0.00000000000E+00 0.  1.
<mgrwt>
<rscale>  0 0.13951766E+04</rscale>
<asrwt>0</asrwt>
<pdfrwt beam="1">  1        3 0.10221900E+00 0.13951766E+04</pdfrwt>
<pdfrwt beam="2">  1       -4 0.11267822E+00 0.13951766E+04</pdfrwt>
<totfact> 0.11451400E+00</totfact>
</mgrwt>
</event>
<event>
12    4  0.4207946E-008  0.1477889E+04  0.7818608E-02  0.8899291E-01
         -2   -1    0    0    0  501 -0.00000000000E+00  0.00000000000E+00  0.40887304513E+03  0.40887304513E+03  0.00000000000E+00 0.  1.
          1   -1    0    0  501    0  0.00000000000E+00 -0.00000000000E+00 -0.13354731016E+04  0.13354731016E+04  0.00000000000E+00 0. -1.
        -24    2    1    2    0    0 -0.67243782930E+01  0.80103565527E+01  0.25212203616E+03  0.26462345622E+03  0.79691087258E+02 0.  0.
        254    2    1    2    0    0  0.67243782930E+01 -0.80103565527E+01 -0.11787220927E+04  0.14797226905E+04  0.89447419533E+03 0.  0.
         23    2    4    4    0    0  0.11902323148E+03 -0.33370808384E+03 -0.15935672411E+03  0.39932388240E+03  0.92397958222E+02 0.  0.
         23    2    4    4    0    0 -0.11229885319E+03  0.32569772728E+03 -0.10193653685E+04  0.10803988081E+04  0.97292281620E+02 0.  0.
          3    1    3    3  502    0  0.31161408114E+02  0.11273734039E+02  0.57886289254E+02  0.66700471651E+02  0.00000000000E+00 0. -1.
         -4    1    3    3    0  502 -0.37885786407E+02 -0.32633774862E+01  0.19423574690E+03  0.19792298457E+03  0.00000000000E+00 0.  1.
         11    1    5    5    0    0  0.28202292164E+00 -0.13154764690E+03 -0.51852051729E+02  0.14139836707E+03  0.00000000000E+00 0.  1.
        -11    1    5    5    0    0  0.11874120856E+03 -0.20216043694E+03 -0.10750467238E+03  0.25792551533E+03  0.00000000000E+00 0. -1.
          3    1    6    6  503    0 -0.11709681523E+03  0.30667073155E+03 -0.10012643819E+04  0.10537025027E+04  0.00000000000E+00 0. -1.
         -3    1    6    6    0  503  0.47979620428E+01  0.19026995737E+02 -0.18100986610E+02  0.26696305415E+02  0.00000000000E+00 0.  1.
<mgrwt>
<rscale>  0 0.14778890E+04</rscale>
<asrwt>0</asrwt>
<pdfrwt beam="1">  1        1 0.20545740E+00 0.14778890E+04</pdfrwt>
<pdfrwt beam="2">  1       -2 0.62903547E-01 0.14778890E+04</pdfrwt>
<totfact> 0.16991688E+01</totfact>
</mgrwt>
</event>
<event>
12    4  0.4207946E-008  0.1466959E+04  0.7818608E-02  0.8906727E-01
          1   -1    0    0  501    0  0.00000000000E+00  0.00000000000E+00  0.17477933905E+04  0.17477933905E+04  0.00000000000E+00 0. -1.
         -2   -1    0    0    0  501 -0.00000000000E+00 -0.00000000000E+00 -0.30781226897E+03  0.30781226897E+03  0.00000000000E+00 0.  1.
        -24    2    1    2    0    0 -0.43086272350E+02 -0.14330983925E+03 -0.14638516337E+03  0.22143534652E+03  0.72186285009E+02 0.  0.
        254    2    1    2    0    0  0.43086272350E+02  0.14330983925E+03  0.15863662849E+04  0.18341703129E+04  0.90842094323E+03 0.  0.
         23    2    4    4    0    0 -0.11233803179E+03  0.49779650695E+03  0.98009165901E+03  0.11088594697E+04  0.92566018908E+02 0.  0.
         23    2    4    4    0    0  0.15542430414E+03 -0.35448666769E+03  0.60627462587E+03  0.72531084318E+03  0.93216872782E+02 0.  0.
          1    1    3    3  502    0  0.19934366462E+02 -0.46119539124E+02 -0.47263288196E+02  0.68979774328E+02  0.00000000000E+00 0. -1.
         -2    1    3    3    0  502 -0.63020638812E+02 -0.97190300128E+02 -0.99121875175E+02  0.15245557220E+03  0.00000000000E+00 0.  1.
         11    1    5    5    0    0 -0.86675409443E+02  0.47707904113E+03  0.93123819527E+03  0.10499150510E+04  0.00000000000E+00 0. -1.
        -11    1    5    5    0    0 -0.25662622346E+02  0.20717465816E+02  0.48853463741E+02  0.58944418693E+02  0.00000000000E+00 0.  1.
          4    1    6    6  503    0 -0.66405458776E+01 -0.60578842923E+02  0.71602805495E+02  0.94025819933E+02  0.00000000000E+00 0.  1.
         -4    1    6    6    0  503  0.16206485002E+03 -0.29390782477E+03  0.53467182037E+03  0.63128502325E+03  0.00000000000E+00 0. -1.
<mgrwt>
<rscale>  0 0.14669591E+04</rscale>
<asrwt>0</asrwt>
<pdfrwt beam="1">  1        1 0.26889129E+00 0.14669591E+04</pdfrwt>
<pdfrwt beam="2">  1       -2 0.47355735E-01 0.14669591E+04</pdfrwt>
<totfact> 0.15909944E+01</totfact>
</mgrwt>
</event>
<event>
12    4  0.4207946E-008  0.1701640E+04  0.7818608E-02  0.8760430E-01
         -2   -1    0    0    0  501 -0.00000000000E+00  0.00000000000E+00  0.36482968471E+03  0.36482968471E+03  0.00000000000E+00 0.  1.
          1   -1    0    0  501    0  0.00000000000E+00 -0.00000000000E+00 -0.19841991015E+04  0.19841991015E+04  0.00000000000E+00 0. -1.
        -24    2    1    2    0    0  0.79226636133E+02  0.52360166758E+03 -0.18167135641E+03  0.56544040607E+03  0.79264146423E+02 0.  0.
        254    2    1    2    0    0 -0.79226636133E+02 -0.52360166758E+03 -0.14376980604E+04  0.17835883802E+04  0.91311348190E+03 0.  0.
         23    2    4    4    0    0 -0.32216852749E+03  0.79313731379E+02 -0.78967698294E+03  0.86136195080E+03  0.90947483829E+02 0.  0.
         23    2    4    4    0    0  0.24294189136E+03 -0.60291539896E+03 -0.64802107747E+03  0.92222642937E+03  0.89680150006E+02 0.  0.
          3    1    3    3  502    0  0.30425524615E+02  0.64977873410E+02 -0.43800647358E+02  0.84061485176E+02  0.00000000000E+00 0. -1.
         -4    1    3    3    0  502  0.48801111519E+02  0.45862379417E+03 -0.13787070905E+03  0.48137892089E+03  0.00000000000E+00 0.  1.
         11    1    5    5    0    0 -0.18000527953E+03  0.89148600432E+02 -0.43557062266E+03  0.47965731616E+03  0.00000000000E+00 0.  1.
        -11    1    5    5    0    0 -0.14216324796E+03 -0.98348690532E+01 -0.35410636028E+03  0.38170463465E+03  0.00000000000E+00 0. -1.
          1    1    6    6  503    0  0.22113954979E+03 -0.47068013170E+03 -0.48407687216E+03  0.71047371874E+03  0.00000000000E+00 0. -1.
         -1    1    6    6    0  503  0.21802341569E+02 -0.13223526726E+03 -0.16394420531E+03  0.21175271063E+03  0.00000000000E+00 0.  1.
<mgrwt>
<rscale>  0 0.17016401E+04</rscale>
<asrwt>0</asrwt>
<pdfrwt beam="1">  1        1 0.30526140E+00 0.17016401E+04</pdfrwt>
<pdfrwt beam="2">  1       -2 0.56127644E-01 0.17016401E+04</pdfrwt>
<totfact> 0.76061839E+00</totfact>
</mgrwt>
</event>
<event>
12    4  0.4207946E-008  0.1166374E+04  0.7818608E-02  0.9142809E-01
          1   -1    0    0  501    0  0.00000000000E+00  0.00000000000E+00  0.74452457448E+03  0.74452457448E+03  0.00000000000E+00 0. -1.
         -2   -1    0    0    0  501 -0.00000000000E+00 -0.00000000000E+00 -0.45681143226E+03  0.45681143226E+03  0.00000000000E+00 0.  1.
        -24    2    1    2    0    0 -0.18952798394E+03  0.13507151612E+03  0.65855105647E+02  0.25411235053E+03  0.77916754254E+02 0.  0.
        254    2    1    2    0    0  0.18952798394E+03 -0.13507151612E+03  0.22185803657E+03  0.94722365621E+03  0.89098063690E+03 0.  0.
         23    2    4    4    0    0  0.94742377741E+02  0.23957465700E+03 -0.22168050253E+03  0.35179698466E+03  0.90811556505E+02 0.  0.
         23    2    4    4    0    0  0.94785606194E+02 -0.37464617312E+03  0.44353853910E+03  0.59542667155E+03  0.91991409107E+02 0.  0.
          1    1    3    3  502    0 -0.47483988464E+02  0.75488463617E+02  0.40731860467E+02  0.98042448750E+02  0.00000000000E+00 0. -1.
         -2    1    3    3    0  502 -0.14204399547E+03  0.59583052501E+02  0.25123245180E+02  0.15606990178E+03  0.00000000000E+00 0.  1.
         11    1    5    5    0    0  0.90426807295E+02  0.24714213585E+03 -0.21980575345E+03  0.34288600444E+03  0.00000000000E+00 0.  1.
        -11    1    5    5    0    0  0.43155704462E+01 -0.75674788466E+01 -0.18747490786E+01  0.89109802198E+01  0.00000000000E+00 0. -1.
          4    1    6    6  503    0  0.59531940289E+02 -0.16910213271E+03  0.14151526928E+03  0.22839911261E+03  0.00000000000E+00 0. -1.
         -4    1    6    6    0  503  0.35253665905E+02 -0.20554404041E+03  0.30202326982E+03  0.36702755894E+03  0.00000000000E+00 0.  1.
<mgrwt>
<rscale>  0 0.11663744E+04</rscale>
<asrwt>0</asrwt>
<pdfrwt beam="1">  1        1 0.11454224E+00 0.11663744E+04</pdfrwt>
<pdfrwt beam="2">  1       -2 0.70278682E-01 0.11663744E+04</pdfrwt>
<totfact> 0.39684051E+01</totfact>
</mgrwt>
</event>
<event>
12    4  0.4207946E-008  0.2150712E+04  0.7818608E-02  0.8539228E-01
          1   -1    0    0  501    0  0.00000000000E+00  0.00000000000E+00  0.52683896911E+03  0.52683896911E+03  0.00000000000E+00 0. -1.
         -2   -1    0    0    0  501 -0.00000000000E+00 -0.00000000000E+00 -0.21949595583E+04  0.21949595583E+04  0.00000000000E+00 0.  1.
        -24    2    1    2    0    0  0.22896273618E+03  0.59805669809E+03 -0.14620180914E+04  0.15980991900E+04  0.79551068574E+02 0.  0.
        254    2    1    2    0    0 -0.22896273618E+03 -0.59805669809E+03 -0.20610249771E+03  0.11236993374E+04  0.90007011543E+03 0.  0.
         23    2    4    4    0    0 -0.34195333940E+03 -0.45280383498E+03  0.24778239450E+03  0.62568742492E+03  0.90140109713E+02 0.  0.
         23    2    4    4    0    0  0.11299060323E+03 -0.14525286311E+03 -0.45388489221E+03  0.49801191251E+03  0.90216955012E+02 0.  0.
          3    1    3    3  502    0  0.44404127969E+02  0.52742680224E+02 -0.17999575669E+03  0.19274851316E+03  0.00000000000E+00 0. -1.
         -4    1    3    3    0  502  0.18455860821E+03  0.54531401787E+03 -0.12820223348E+04  0.14053506768E+04  0.00000000000E+00 0.  1.
         11    1    5    5    0    0 -0.21442745322E+02 -0.76958764347E+02  0.24060755713E+02  0.83434781130E+02  0.00000000000E+00 0. -1.
        -11    1    5    5    0    0 -0.32051059408E+03 -0.37584507064E+03  0.22372163878E+03  0.54225264379E+03  0.00000000000E+00 0.  1.
          2    1    6    6  503    0  0.22232900151E+02 -0.68340069387E+01 -0.15163173942E+03  0.15340531249E+03  0.00000000000E+00 0. -1.
         -2    1    6    6    0  503  0.90757703075E+02 -0.13841885617E+03 -0.30225315279E+03  0.34460660002E+03  0.00000000000E+00 0.  1.
<mgrwt>
<rscale>  0 0.21507117E+04</rscale>
<asrwt>0</asrwt>
<pdfrwt beam="1">  1        1 0.81052147E-01 0.21507117E+04</pdfrwt>
<pdfrwt beam="2">  1       -2 0.33768609E+00 0.21507117E+04</pdfrwt>
<totfact> 0.61519400E-01</totfact>
</mgrwt>
</event>
<event>
12    4  0.4207946E-008  0.2247573E+04  0.7818608E-02  0.8498884E-01
          1   -1    0    0  501    0  0.00000000000E+00  0.00000000000E+00  0.12316897539E+04  0.12316897539E+04  0.00000000000E+00 0. -1.
         -2   -1    0    0    0  501 -0.00000000000E+00 -0.00000000000E+00 -0.10253364338E+04  0.10253364338E+04  0.00000000000E+00 0.  1.
        -24    2    1    2    0    0  0.30121666931E+02 -0.60434620381E+03  0.82947599314E+03  0.10298338915E+04  0.79911025061E+02 0.  0.
        254    2    1    2    0    0 -0.30121666931E+02  0.60434620381E+03 -0.62312267308E+03  0.12271922962E+04  0.86693564770E+03 0.  0.
         23    2    4    4    0    0  0.16077363568E+03  0.54125909371E+03 -0.57269504254E+01  0.57170268931E+03  0.89451654798E+02 0.  0.
         23    2    4    4    0    0 -0.19089530261E+03  0.63087110092E+02 -0.61739572266E+03  0.65548960688E+03  0.89822860983E+02 0.  0.
          1    1    3    3  502    0  0.40064735331E+02 -0.57582178516E+03  0.80699972741E+03  0.99218167253E+03  0.00000000000E+00 0. -1.
         -2    1    3    3    0  502 -0.99430683997E+01 -0.28524418651E+02  0.22476265729E+02  0.37652218921E+02  0.00000000000E+00 0.  1.
         11    1    5    5    0    0  0.13563650924E+03  0.51216497389E+03 -0.21228851488E+02  0.53024606294E+03  0.00000000000E+00 0. -1.
        -11    1    5    5    0    0  0.25137126445E+02  0.29094119820E+02  0.15501901062E+02  0.41456626377E+02  0.00000000000E+00 0.  1.
          1    1    6    6  503    0 -0.11313043709E+03  0.44301807032E+02 -0.49174798599E+03  0.50653452757E+03  0.00000000000E+00 0. -1.
         -1    1    6    6    0  503 -0.77764865527E+02  0.18785303059E+02 -0.12564773667E+03  0.14895507931E+03  0.00000000000E+00 0.  1.
<mgrwt>
<rscale>  0 0.22475733E+04</rscale>
<asrwt>0</asrwt>
<pdfrwt beam="1">  1        1 0.18949073E+00 0.22475733E+04</pdfrwt>
<pdfrwt beam="2">  1       -2 0.15774407E+00 0.22475733E+04</pdfrwt>
<totfact> 0.21131797E+00</totfact>
</mgrwt>
</event>
<event>
12    4  0.4207946E-008  0.1698091E+04  0.7818608E-02  0.8762454E-01
         -2   -1    0    0    0  501 -0.00000000000E+00  0.00000000000E+00  0.70476543225E+03  0.70476543225E+03  0.00000000000E+00 0.  1.
          1   -1    0    0  501    0  0.00000000000E+00 -0.00000000000E+00 -0.10228631900E+04  0.10228631900E+04  0.00000000000E+00 0. -1.
        -24    2    1    2    0    0 -0.10584191222E+03 -0.10021727646E+03 -0.71766306248E+03  0.73661526016E+03  0.79471739438E+02 0.  0.
        254    2    1    2    0    0  0.10584191222E+03  0.10021727646E+03  0.39956530475E+03  0.99101336208E+03  0.89510280872E+03 0.  0.
         23    2    4    4    0    0  0.19821268693E+03 -0.29949475156E+03  0.43149193857E+03  0.56936434612E+03  0.94895153246E+02 0.  0.
         23    2    4    4    0    0 -0.92370774705E+02  0.39971202802E+03 -0.31926633826E+02  0.42164901596E+03  0.92013680221E+02 0.  0.
          3    1    3    3  502    0 -0.62262334284E+02 -0.10401642489E+03 -0.48875083212E+03  0.50356071215E+03  0.00000000000E+00 0. -1.
         -4    1    3    3    0  502 -0.43579577941E+02  0.37991484354E+01 -0.22891223036E+03  0.23305454801E+03  0.00000000000E+00 0.  1.
         11    1    5    5    0    0  0.16090787264E+02 -0.13848732620E+02  0.58510267824E+00  0.21237777075E+02  0.00000000000E+00 0. -1.
        -11    1    5    5    0    0  0.18212189967E+03 -0.28564601894E+03  0.43090683590E+03  0.54812656905E+03  0.00000000000E+00 0.  1.
          3    1    6    6  503    0 -0.65403919455E+02  0.13537834692E+03  0.17569378686E+02  0.15137256212E+03  0.00000000000E+00 0. -1.
         -3    1    6    6    0  503 -0.26966855250E+02  0.26433368109E+03 -0.49496012512E+02  0.27027645383E+03  0.00000000000E+00 0.  1.
<mgrwt>
<rscale>  0 0.16980914E+04</rscale>
<asrwt>0</asrwt>
<pdfrwt beam="1">  1        1 0.15736357E+00 0.16980914E+04</pdfrwt>
<pdfrwt beam="2">  1       -2 0.10842545E+00 0.16980914E+04</pdfrwt>
<totfact> 0.82445404E+00</totfact>
</mgrwt>
</event>
<event>
12    4  0.4207946E-008  0.2307971E+04  0.7818608E-02  0.8474785E-01
         -2   -1    0    0    0  501 -0.00000000000E+00  0.00000000000E+00  0.18923263630E+04  0.18923263630E+04  0.00000000000E+00 0.  1.
          1   -1    0    0  501    0  0.00000000000E+00 -0.00000000000E+00 -0.70372792245E+03  0.70372792245E+03  0.00000000000E+00 0. -1.
        -24    2    1    2    0    0  0.25287019497E+03  0.53976617597E+03 -0.36374510677E+03  0.70285140636E+03  0.79992102734E+02 0.  0.
        254    2    1    2    0    0 -0.25287019497E+03 -0.53976617597E+03  0.15523435473E+04  0.18932028791E+04  0.90507225804E+03 0.  0.
         23    2    4    4    0    0  0.44174602758E+02 -0.46608448901E+03  0.22390628972E+03  0.52693873835E+03  0.91346926494E+02 0.  0.
         23    2    4    4    0    0 -0.29704479773E+03 -0.73681686966E+02  0.13284372576E+04  0.13662641407E+04  0.90926080154E+02 0.  0.
          1    1    3    3  502    0  0.14783987971E+03  0.27448700524E+03 -0.14779505075E+03  0.34502626437E+03  0.00000000000E+00 0. -1.
         -2    1    3    3    0  502  0.10503031526E+03  0.26527917073E+03 -0.21595005602E+03  0.35782514199E+03  0.00000000000E+00 0.  1.
         11    1    5    5    0    0  0.82985526672E+01 -0.31730580584E+02 -0.72644744557E+01  0.33592682383E+02  0.00000000000E+00 0.  1.
        -11    1    5    5    0    0  0.35876050090E+02 -0.43435390842E+03  0.23117076417E+03  0.49334605597E+03  0.00000000000E+00 0. -1.
          1    1    6    6  503    0 -0.26989265450E+03 -0.90080177880E+02  0.11279509584E+04  0.11632840788E+04  0.00000000000E+00 0. -1.
         -1    1    6    6    0  503 -0.27152143228E+02  0.16398490915E+02  0.20048629916E+03  0.20298006192E+03  0.00000000000E+00 0.  1.
<mgrwt>
<rscale>  0 0.23079713E+04</rscale>
<asrwt>0</asrwt>
<pdfrwt beam="1">  1        1 0.10826584E+00 0.23079713E+04</pdfrwt>
<pdfrwt beam="2">  1       -2 0.29112713E+00 0.23079713E+04</pdfrwt>
<totfact> 0.77062636E-01</totfact>
</mgrwt>
</event>
<event>
12    4  0.4207946E-008  0.2282303E+04  0.7818608E-02  0.8484931E-01
          1   -1    0    0  501    0  0.00000000000E+00  0.00000000000E+00  0.15955990151E+04  0.15955990151E+04  0.00000000000E+00 0. -1.
         -2   -1    0    0    0  501 -0.00000000000E+00 -0.00000000000E+00 -0.81613687112E+03  0.81613687112E+03  0.00000000000E+00 0.  1.
        -24    2    1    2    0    0  0.43440122667E+02 -0.82652099264E+03 -0.18822098475E+03  0.85236923493E+03  0.77988319779E+02 0.  0.
        254    2    1    2    0    0 -0.43440122667E+02  0.82652099264E+03  0.96768312872E+03  0.15593666513E+04  0.90010539383E+03 0.  0.
         23    2    4    4    0    0 -0.38118611788E+03  0.98607465678E+02  0.42379891907E+03  0.58568446006E+03  0.91621363232E+02 0.  0.
         23    2    4    4    0    0  0.33774599521E+03  0.72791352696E+03  0.54388420966E+03  0.97368219123E+03  0.91194934044E+02 0.  0.
          3    1    3    3  502    0  0.47929008499E+00 -0.16646237360E+03 -0.69284292217E+02  0.18030603066E+03  0.00000000000E+00 0. -1.
         -4    1    3    3    0  502  0.42960832582E+02 -0.66005861904E+03 -0.11893669253E+03  0.67206320427E+03  0.00000000000E+00 0.  1.
         11    1    5    5    0    0 -0.15430054443E+03  0.86827132383E+02  0.18361776925E+03  0.25507468340E+03  0.00000000000E+00 0.  1.
        -11    1    5    5    0    0 -0.22688557345E+03  0.11780333294E+02  0.24018114982E+03  0.33060977666E+03  0.00000000000E+00 0. -1.
          3    1    6    6  503    0  0.26557999220E+03  0.64544161896E+03  0.46520297350E+03  0.83877376109E+03  0.00000000000E+00 0. -1.
         -3    1    6    6    0  503  0.72166003012E+02  0.82471908004E+02  0.78681236161E+02  0.13490843015E+03  0.00000000000E+00 0.  1.
<mgrwt>
<rscale>  0 0.22823034E+04</rscale>
<asrwt>0</asrwt>
<pdfrwt beam="1">  1        1 0.24547677E+00 0.22823034E+04</pdfrwt>
<pdfrwt beam="2">  1       -2 0.12555952E+00 0.22823034E+04</pdfrwt>
<totfact> 0.21178391E+00</totfact>
</mgrwt>
</event>
<event>
12    4  0.4207946E-008  0.1632367E+04  0.7818608E-02  0.8800907E-01
          1   -1    0    0  501    0  0.00000000000E+00  0.00000000000E+00  0.20126052251E+04  0.20126052251E+04  0.00000000000E+00 0. -1.
         -2   -1    0    0    0  501 -0.00000000000E+00 -0.00000000000E+00 -0.33099160629E+03  0.33099160629E+03  0.00000000000E+00 0.  1.
        -24    2    1    2    0    0  0.39983236604E+03  0.39315941360E+03  0.65804617951E+03  0.86825656837E+03  0.80027799615E+02 0.  0.
        254    2    1    2    0    0 -0.39983236604E+03 -0.39315941360E+03  0.10235674393E+04  0.14753402630E+04  0.90249561960E+03 0.  0.
         23    2    4    4    0    0  0.48820553214E+02  0.17607533481E+03  0.59456963055E+03  0.62809771283E+03  0.87222252580E+02 0.  0.
         23    2    4    4    0    0 -0.44865291926E+03 -0.56923474841E+03  0.42899780871E+03  0.84724255015E+03  0.91995533270E+02 0.  0.
          3    1    3    3  502    0  0.56726255314E+02  0.90004810229E+02  0.95724160092E+02  0.14311480962E+03  0.00000000000E+00 0. -1.
         -4    1    3    3    0  502  0.34310611073E+03  0.30315460337E+03  0.56232201942E+03  0.72514175876E+03  0.00000000000E+00 0.  1.
         11    1    5    5    0    0  0.72011470379E+02  0.10727660004E+03  0.40448236191E+03  0.42461735937E+03  0.00000000000E+00 0. -1.
        -11    1    5    5    0    0 -0.23190917166E+02  0.68798734771E+02  0.19008726864E+03  0.20348035346E+03  0.00000000000E+00 0.  1.
          4    1    6    6  503    0 -0.12683947816E+03 -0.10203761355E+03  0.10897373808E+03  0.19589589937E+03  0.00000000000E+00 0. -1.
         -4    1    6    6    0  503 -0.32181344110E+03 -0.46719713486E+03  0.32002407063E+03  0.65134665077E+03  0.00000000000E+00 0.  1.
<mgrwt>
<rscale>  0 0.16323669E+04</rscale>
<asrwt>0</asrwt>
<pdfrwt beam="1">  1        1 0.30963156E+00 0.16323669E+04</pdfrwt>
<pdfrwt beam="2">  1       -2 0.50921787E-01 0.16323669E+04</pdfrwt>
<totfact> 0.89526226E+00</totfact>
</mgrwt>
</event>
<event>
12    4  0.4207946E-008  0.1226060E+04  0.7818608E-02  0.9090347E-01
         -2   -1    0    0    0  501 -0.00000000000E+00  0.00000000000E+00  0.58751987513E+03  0.58751987513E+03  0.00000000000E+00 0.  1.
          1   -1    0    0  501    0  0.00000000000E+00 -0.00000000000E+00 -0.63964743729E+03  0.63964743729E+03  0.00000000000E+00 0. -1.
        -24    2    1    2    0    0  0.16984722345E+03 -0.15047847340E+03 -0.22505842541E+03  0.32922597578E+03  0.79035422503E+02 0.  0.
        254    2    1    2    0    0 -0.16984722345E+03  0.15047847340E+03  0.17293086325E+03  0.89794133665E+03  0.85141159865E+03 0.  0.
         23    2    4    4    0    0 -0.45258847210E+03  0.29733780194E+03  0.10843521965E+03  0.56038470708E+03  0.95009102303E+02 0.  0.
         23    2    4    4    0    0  0.28274124865E+03 -0.14685932854E+03  0.64495643592E+02  0.33755662957E+03  0.90964355966E+02 0.  0.
          1    1    3    3  502    0  0.12391693990E+03 -0.14118260672E+03 -0.20557298621E+03  0.27847475486E+03  0.00000000000E+00 0. -1.
         -2    1    3    3    0  502  0.45930283548E+02 -0.92958666846E+01 -0.19485439196E+02  0.50751220920E+02  0.00000000000E+00 0.  1.
         11    1    5    5    0    0 -0.10224808326E+02  0.12183883139E+02  0.21815041688E+02  0.26997958395E+02  0.00000000000E+00 0.  1.
        -11    1    5    5    0    0 -0.44236366378E+03  0.28515391880E+03  0.86620177966E+02  0.53338674868E+03  0.00000000000E+00 0. -1.
          1    1    6    6  503    0  0.27378507193E+03 -0.15872785183E+03  0.61575140558E+02  0.32240393065E+03  0.00000000000E+00 0. -1.
         -1    1    6    6    0  503  0.89561767195E+01  0.11868523298E+02  0.29205030334E+01  0.15152698924E+02  0.00000000000E+00 0.  1.
<mgrwt>
<rscale>  0 0.12260597E+04</rscale>
<asrwt>0</asrwt>
<pdfrwt beam="1">  1        1 0.98407298E-01 0.12260597E+04</pdfrwt>
<pdfrwt beam="2">  1       -2 0.90387673E-01 0.12260597E+04</pdfrwt>
<totfact> 0.28228507E+01</totfact>
</mgrwt>
</event>
<event>
12    4  0.4207946E-008  0.1819532E+04  0.7818608E-02  0.8695981E-01
          1   -1    0    0  501    0  0.00000000000E+00  0.00000000000E+00  0.11408143858E+04  0.11408143858E+04  0.00000000000E+00 0. -1.
         -2   -1    0    0    0  501 -0.00000000000E+00 -0.00000000000E+00 -0.72551177325E+03  0.72551177325E+03  0.00000000000E+00 0.  1.
        -24    2    1    2    0    0  0.31422677958E+03 -0.24494658175E+03  0.72490063253E+03  0.83100810790E+03  0.79726102596E+02 0.  0.
        254    2    1    2    0    0 -0.31422677958E+03  0.24494658175E+03 -0.30959801995E+03  0.10353180512E+04  0.90404382427E+03 0.  0.
         23    2    4    4    0    0  0.27347608055E+03 -0.89047886828E+02 -0.52994176361E+02  0.30626311727E+03  0.90939658514E+02 0.  0.
         23    2    4    4    0    0 -0.58770286012E+03  0.33399446858E+03 -0.25660384359E+03  0.72905493390E+03  0.93427015687E+02 0.  0.
          3    1    3    3  502    0  0.10911766696E+03 -0.49020565396E+02  0.26368168796E+03  0.28954742900E+03  0.00000000000E+00 0. -1.
         -4    1    3    3    0  502  0.20510911262E+03 -0.19592601636E+03  0.46121894457E+03  0.54146067890E+03  0.00000000000E+00 0.  1.
         11    1    5    5    0    0  0.13970579678E+03 -0.28811564950E+02  0.17107707480E+02  0.14366798386E+03  0.00000000000E+00 0.  1.
        -11    1    5    5    0    0  0.13377028376E+03 -0.60236321879E+02 -0.70101883840E+02  0.16259513341E+03  0.00000000000E+00 0. -1.
          3    1    6    6  503    0 -0.53128361860E+03  0.28180495873E+03 -0.25200747476E+03  0.65206141236E+03  0.00000000000E+00 0. -1.
         -3    1    6    6    0  503 -0.56419241521E+02  0.52189509852E+02 -0.45963688348E+01  0.76993521538E+02  0.00000000000E+00 0.  1.
<mgrwt>
<rscale>  0 0.18195321E+04</rscale>
<asrwt>0</asrwt>
<pdfrwt beam="1">  1        1 0.17550991E+00 0.18195321E+04</pdfrwt>
<pdfrwt beam="2">  1       -2 0.11161720E+00 0.18195321E+04</pdfrwt>
<totfact> 0.61911289E+00</totfact>
</mgrwt>
</event>
<event>
12    4  0.4207946E-008  0.2198989E+04  0.7818608E-02  0.8518849E-01
         -2   -1    0    0    0  501 -0.00000000000E+00  0.00000000000E+00  0.80749765055E+03  0.80749765055E+03  0.00000000000E+00 0.  1.
          1   -1    0    0  501    0  0.00000000000E+00 -0.00000000000E+00 -0.14970795004E+04  0.14970795004E+04  0.00000000000E+00 0. -1.
        -24    2    1    2    0    0 -0.49631152632E+03  0.55841505235E+03  0.28211765441E+03  0.80158419477E+03  0.69241234345E+02 0.  0.
        254    2    1    2    0    0  0.49631152632E+03 -0.55841505235E+03 -0.97169950421E+03  0.15029929561E+04  0.86984791652E+03 0.  0.
         23    2    4    4    0    0  0.94717464232E+02 -0.64095923124E+03 -0.83579814872E+03  0.10614534954E+04  0.91240579073E+02 0.  0.
         23    2    4    4    0    0  0.40159406209E+03  0.82544178891E+02 -0.13590135550E+03  0.44153946078E+03  0.91632880705E+02 0.  0.
          1    1    3    3  502    0 -0.40914672208E+02  0.46230828822E+02  0.44880366233E+02  0.76325272411E+02  0.00000000000E+00 0. -1.
         -2    1    3    3    0  502 -0.45539685411E+03  0.51218422353E+03  0.23723728818E+03  0.72525892236E+03  0.00000000000E+00 0.  1.
         11    1    5    5    0    0  0.14549420832E+02 -0.16083471301E+03 -0.27454423842E+03  0.31851849147E+03  0.00000000000E+00 0. -1.
        -11    1    5    5    0    0  0.80168043400E+02 -0.48012451823E+03 -0.56125391030E+03  0.74293500389E+03  0.00000000000E+00 0.  1.
          2    1    6    6  503    0  0.16053583139E+03  0.49949665715E+02 -0.10009223498E+03  0.19566598521E+03  0.00000000000E+00 0.  1.
         -2    1    6    6    0  503  0.24105823070E+03  0.32594513176E+02 -0.35809120518E+02  0.24587347557E+03  0.00000000000E+00 0. -1.
<mgrwt>
<rscale>  0 0.21989890E+04</rscale>
<asrwt>0</asrwt>
<pdfrwt beam="1">  1        1 0.23031992E+00 0.21989890E+04</pdfrwt>
<pdfrwt beam="2">  1       -2 0.12423041E+00 0.21989890E+04</pdfrwt>
<totfact> 0.25619491E+00</totfact>
</mgrwt>
</event>
<event>
12    4  0.4207946E-008  0.1297905E+04  0.7818608E-02  0.9031228E-01
         -4   -1    0    0    0  501 -0.00000000000E+00  0.00000000000E+00  0.13235009134E+04  0.13235009134E+04  0.00000000000E+00 0.  1.
          3   -1    0    0  501    0  0.00000000000E+00 -0.00000000000E+00 -0.31820117559E+03  0.31820117559E+03  0.00000000000E+00 0. -1.
        -24    2    1    2    0    0  0.24719356385E+03  0.23281476969E+03  0.23450558963E+03  0.42028012801E+03  0.79593589149E+02 0.  0.
        254    2    1    2    0    0 -0.24719356385E+03 -0.23281476969E+03  0.77079414815E+03  0.12214219610E+04  0.88455673244E+03 0.  0.
         23    2    4    4    0    0  0.50942488250E+02 -0.49713749485E+03  0.57745883181E+03  0.76929370865E+03  0.92807768203E+02 0.  0.
         23    2    4    4    0    0 -0.29813605210E+03  0.26432272516E+03  0.19333531634E+03  0.45212825231E+03  0.91048357424E+02 0.  0.
          3    1    3    3  502    0  0.23229019754E+02  0.66716592488E+01  0.41586602928E+02  0.48099313290E+02  0.00000000000E+00 0. -1.
         -4    1    3    3    0  502  0.22396454410E+03  0.22614311044E+03  0.19291898671E+03  0.37218081472E+03  0.00000000000E+00 0.  1.
         11    1    5    5    0    0  0.73535301862E+02 -0.26420547383E+03  0.31424643874E+03  0.41708847657E+03  0.00000000000E+00 0. -1.
        -11    1    5    5    0    0 -0.22592813612E+02 -0.23293202102E+03  0.26321239307E+03  0.35220523208E+03  0.00000000000E+00 0.  1.
          3    1    6    6  503    0 -0.84621831379E+02  0.26037948957E+02  0.48075006027E+02  0.10074738377E+03  0.00000000000E+00 0. -1.
         -3    1    6    6    0  503 -0.21351422073E+03  0.23828477621E+03  0.14526031031E+03  0.35138086854E+03  0.00000000000E+00 0.  1.
<mgrwt>
<rscale>  0 0.12979053E+04</rscale>
<asrwt>0</asrwt>
<pdfrwt beam="1">  1        3 0.48954028E-01 0.12979053E+04</pdfrwt>
<pdfrwt beam="2">  1       -4 0.20361552E+00 0.12979053E+04</pdfrwt>
<totfact> 0.11575942E+00</totfact>
</mgrwt>
</event>
<event>
12    4  0.4207946E-008  0.2264581E+04  0.7818608E-02  0.8492019E-01
          1   -1    0    0  501    0  0.00000000000E+00  0.00000000000E+00  0.10528266108E+04  0.10528266108E+04  0.00000000000E+00 0. -1.
         -2   -1    0    0    0  501 -0.00000000000E+00 -0.00000000000E+00 -0.12177525294E+04  0.12177525294E+04  0.00000000000E+00 0.  1.
        -24    2    1    2    0    0 -0.53388455994E+03 -0.14969115250E+03 -0.84560003954E+03  0.10142392288E+04  0.78750376688E+02 0.  0.
        254    2    1    2    0    0  0.53388455994E+03  0.14969115250E+03  0.68067412090E+03  0.12563399114E+04  0.89868378735E+03 0.  0.
         23    2    4    4    0    0  0.26108292430E+03  0.47763132264E+03  0.59590652865E+03  0.81222488275E+03  0.91152046303E+02 0.  0.
         23    2    4    4    0    0  0.27280163564E+03 -0.32794017013E+03  0.84767592248E+02  0.44411502865E+03  0.89928451474E+02 0.  0.
          1    1    3    3  502    0 -0.33107566458E+03 -0.12894107898E+03 -0.50972036480E+03  0.62133062682E+03  0.00000000000E+00 0. -1.
         -2    1    3    3    0  502 -0.20280889537E+03 -0.20750073521E+02 -0.33587967473E+03  0.39290860195E+03  0.00000000000E+00 0.  1.
         11    1    5    5    0    0  0.25361182131E+03  0.40935914299E+03  0.49917857998E+03  0.69359434728E+03  0.00000000000E+00 0. -1.
        -11    1    5    5    0    0  0.74711029887E+01  0.68272179646E+02  0.96727948670E+02  0.11863053548E+03  0.00000000000E+00 0.  1.
          1    1    6    6  503    0  0.20637292444E+03 -0.29845652337E+03  0.63346130004E+02  0.36834604989E+03  0.00000000000E+00 0. -1.
         -1    1    6    6    0  503  0.66428711199E+02 -0.29483646767E+02  0.21421462244E+02  0.75768978764E+02  0.00000000000E+00 0.  1.
<mgrwt>
<rscale>  0 0.22645814E+04</rscale>
<asrwt>0</asrwt>
<pdfrwt beam="1">  1        1 0.16197333E+00 0.22645814E+04</pdfrwt>
<pdfrwt beam="2">  1       -2 0.18734654E+00 0.22645814E+04</pdfrwt>
<totfact> 0.17682212E+00</totfact>
</mgrwt>
</event>
<event>
12    4  0.4207946E-008  0.4113138E+04  0.7818608E-02  0.7982104E-01
          1   -1    0    0  501    0  0.00000000000E+00  0.00000000000E+00  0.25270907696E+04  0.25270907696E+04  0.00000000000E+00 0. -1.
         -2   -1    0    0    0  501 -0.00000000000E+00 -0.00000000000E+00 -0.16736539592E+04  0.16736539592E+04  0.00000000000E+00 0.  1.
        -24    2    1    2    0    0  0.12297069202E+03 -0.89597096870E+03 -0.13642731058E+04  0.16395963404E+04  0.95651890912E+02 0.  0.
        254    2    1    2    0    0 -0.12297069202E+03  0.89597096870E+03  0.22177099162E+04  0.25611483884E+04  0.90739077977E+03 0.  0.
         23    2    4    4    0    0  0.10700377061E+03  0.66671491079E+03  0.59650431210E+03  0.90540392445E+03  0.89332484945E+02 0.  0.
         23    2    4    4    0    0 -0.22997446263E+03  0.22925605792E+03  0.16212056041E+04  0.16557444640E+04  0.87951836922E+02 0.  0.
          1    1    3    3  502    0  0.36254883790E+02 -0.45244737420E+03 -0.61078332963E+03  0.76097261368E+03  0.00000000000E+00 0. -1.
         -2    1    3    3    0  502  0.86715808228E+02 -0.44352359450E+03 -0.75348977617E+03  0.87862372668E+03  0.00000000000E+00 0.  1.
         11    1    5    5    0    0  0.62729679319E+02  0.58196537634E+03  0.50546483561E+03  0.77337792312E+03  0.00000000000E+00 0. -1.
        -11    1    5    5    0    0  0.44274091293E+02  0.84749534448E+02  0.91039476488E+02  0.13202600133E+03  0.00000000000E+00 0.  1.
          2    1    6    6  503    0 -0.18997796822E+03  0.16004598170E+03  0.13629025689E+04  0.13853554623E+04  0.00000000000E+00 0. -1.
         -2    1    6    6    0  503 -0.39996494410E+02  0.69210076213E+02  0.25830303522E+03  0.27038900166E+03  0.00000000000E+00 0.  1.
<mgrwt>
<rscale>  0 0.41131377E+04</rscale>
<asrwt>0</asrwt>
<pdfrwt beam="1">  1        1 0.38878319E+00 0.41131377E+04</pdfrwt>
<pdfrwt beam="2">  1       -2 0.25748523E+00 0.41131377E+04</pdfrwt>
<totfact> 0.51162184E-02</totfact>
</mgrwt>
</event>
<event>
12    4  0.4207946E-008  0.1488149E+04  0.7818608E-02  0.8892372E-01
         -4   -1    0    0    0  501 -0.00000000000E+00  0.00000000000E+00  0.70992107455E+03  0.70992107455E+03  0.00000000000E+00 0.  1.
          3   -1    0    0  501    0  0.00000000000E+00 -0.00000000000E+00 -0.77987086175E+03  0.77987086175E+03  0.00000000000E+00 0. -1.
        -24    2    1    2    0    0 -0.22775596173E+03 -0.20591302322E+03 -0.38406697261E+03  0.49915839423E+03  0.85899428634E+02 0.  0.
        254    2    1    2    0    0  0.22775596173E+03  0.20591302322E+03  0.31411718541E+03  0.99063354208E+03  0.88792581744E+03 0.  0.
         23    2    4    4    0    0 -0.22489833370E+03  0.35544083185E+03  0.25774413083E+03  0.50164112297E+03  0.91073233322E+02 0.  0.
         23    2    4    4    0    0  0.45265429543E+03 -0.14952780863E+03  0.56373054578E+02  0.48899241911E+03  0.93172892713E+02 0.  0.
          3    1    3    3  502    0 -0.89227249754E+02 -0.11170662361E+03 -0.23415195094E+03  0.27434833330E+03  0.00000000000E+00 0. -1.
         -4    1    3    3    0  502 -0.13852871198E+03 -0.94206399615E+02 -0.14991502167E+03  0.22481006093E+03  0.00000000000E+00 0.  1.
         11    1    5    5    0    0 -0.58653763042E+02  0.45647449032E+02  0.74247477902E+02  0.10505542107E+03  0.00000000000E+00 0. -1.
        -11    1    5    5    0    0 -0.16624457066E+03  0.30979338282E+03  0.18349665293E+03  0.39658570190E+03  0.00000000000E+00 0.  1.
          3    1    6    6  503    0  0.26127375452E+03 -0.95926044554E+02 -0.12619475107E+02  0.27861269170E+03  0.00000000000E+00 0. -1.
         -3    1    6    6    0  503  0.19138054092E+03 -0.53601764072E+02  0.68992529685E+02  0.21037972741E+03  0.00000000000E+00 0.  1.
<mgrwt>
<rscale>  0 0.14881489E+04</rscale>
<asrwt>0</asrwt>
<pdfrwt beam="1">  1        3 0.11998013E+00 0.14881489E+04</pdfrwt>
<pdfrwt beam="2">  1       -4 0.10921863E+00 0.14881489E+04</pdfrwt>
<totfact> 0.83739096E-01</totfact>
</mgrwt>
</event>
<event>
12    4  0.4207946E-008  0.1893020E+04  0.7818608E-02  0.8658339E-01
          1   -1    0    0  501    0  0.00000000000E+00  0.00000000000E+00  0.14984907188E+04  0.14984907188E+04  0.00000000000E+00 0. -1.
         -2   -1    0    0    0  501 -0.00000000000E+00 -0.00000000000E+00 -0.59785537122E+03  0.59785537122E+03  0.00000000000E+00 0.  1.
        -24    2    1    2    0    0 -0.13401137109E+03  0.14140006581E+03 -0.43217052628E+03  0.48033771142E+03  0.77459195954E+02 0.  0.
        254    2    1    2    0    0  0.13401137109E+03 -0.14140006581E+03  0.13328058738E+04  0.16160083786E+04  0.89283736263E+03 0.  0.
         23    2    4    4    0    0  0.39162777758E+03 -0.71125008615E+02  0.21226426360E+03  0.46049505785E+03  0.92566180016E+02 0.  0.
         23    2    4    4    0    0 -0.25761640649E+03 -0.70275057199E+02  0.11205416102E+04  0.11555133207E+04  0.91064469159E+02 0.  0.
          3    1    3    3  502    0 -0.40653548012E+02  0.14820619970E+01 -0.10139211703E+03  0.10924865615E+03  0.00000000000E+00 0. -1.
         -4    1    3    3    0  502 -0.93357823082E+02  0.13991800382E+03 -0.33077840924E+03  0.37108905527E+03  0.00000000000E+00 0.  1.
         11    1    5    5    0    0  0.21626960307E+03 -0.79048320219E+02  0.93319314736E+02  0.24845456858E+03  0.00000000000E+00 0.  1.
        -11    1    5    5    0    0  0.17535817451E+03  0.79233116039E+01  0.11894494886E+03  0.21204048928E+03  0.00000000000E+00 0. -1.
          4    1    6    6  503    0 -0.19344646264E+03 -0.40850855547E+02  0.64087075787E+03  0.67067552110E+03  0.00000000000E+00 0. -1.
         -4    1    6    6    0  503 -0.64169943846E+02 -0.29424201651E+02  0.47967085237E+03  0.48483779963E+03  0.00000000000E+00 0.  1.
<mgrwt>
<rscale>  0 0.18930195E+04</rscale>
<asrwt>0</asrwt>
<pdfrwt beam="1">  1        1 0.23053703E+00 0.18930195E+04</pdfrwt>
<pdfrwt beam="2">  1       -2 0.91977750E-01 0.18930195E+04</pdfrwt>
<totfact> 0.54143600E+00</totfact>
</mgrwt>
</event>
<event>
12    4  0.4207946E-008  0.1207172E+04  0.7818608E-02  0.9106602E-01
         -2   -1    0    0    0  501 -0.00000000000E+00  0.00000000000E+00  0.24817980027E+03  0.24817980027E+03  0.00000000000E+00 0.  1.
          1   -1    0    0  501    0  0.00000000000E+00 -0.00000000000E+00 -0.14679513197E+04  0.14679513197E+04  0.00000000000E+00 0. -1.
        -24    2    1    2    0    0 -0.18216047297E+03 -0.58880827500E+02 -0.22203164541E+02  0.20819187393E+03  0.78749514872E+02 0.  0.
        254    2    1    2    0    0  0.18216047297E+03  0.58880827500E+02 -0.11975683549E+04  0.15079392461E+04  0.89613694010E+03 0.  0.
         23    2    4    4    0    0  0.39048466480E+03  0.36690416457E+02 -0.12133831480E+04  0.12784454464E+04  0.91102334350E+02 0.  0.
         23    2    4    4    0    0 -0.20832419182E+03  0.22190411042E+02  0.15814793081E+02  0.22949379974E+03  0.92335871669E+02 0.  0.
          3    1    3    3  502    0 -0.50165716825E+02 -0.44257542152E+02 -0.33674062730E+02  0.74895071150E+02  0.00000000000E+00 0. -1.
         -4    1    3    3    0  502 -0.13199475615E+03 -0.14623285347E+02  0.11470898189E+02  0.13329680278E+03  0.00000000000E+00 0.  1.
         11    1    5    5    0    0  0.38373717804E+03  0.25922403905E+02 -0.11993657005E+04  0.12595254171E+04  0.00000000000E+00 0.  1.
        -11    1    5    5    0    0  0.67474867564E+01  0.10768012553E+02 -0.14017447557E+02  0.18920029278E+02  0.00000000000E+00 0. -1.
          1    1    6    6  503    0 -0.11267666280E+02  0.10992560174E+02  0.27593873214E+02  0.31768199848E+02  0.00000000000E+00 0. -1.
         -1    1    6    6    0  503 -0.19705652554E+03  0.11197850868E+02 -0.11779080134E+02  0.19772559989E+03  0.00000000000E+00 0.  1.
<mgrwt>
<rscale>  0 0.12071717E+04</rscale>
<asrwt>0</asrwt>
<pdfrwt beam="1">  1        1 0.22583866E+00 0.12071717E+04</pdfrwt>
<pdfrwt beam="2">  1       -2 0.38181509E-01 0.12071717E+04</pdfrwt>
<totfact> 0.38704439E+01</totfact>
</mgrwt>
</event>
<event>
12    4  0.4207946E-008  0.1829421E+04  0.7818608E-02  0.8690808E-01
         -2   -1    0    0    0  501 -0.00000000000E+00  0.00000000000E+00  0.35168296648E+03  0.35168296648E+03  0.00000000000E+00 0.  1.
          1   -1    0    0  501    0  0.00000000000E+00 -0.00000000000E+00 -0.23791189025E+04  0.23791189025E+04  0.00000000000E+00 0. -1.
        -24    2    1    2    0    0 -0.58253372849E+03  0.28930770606E+03 -0.43465463890E+03  0.78627974446E+03  0.79162414113E+02 0.  0.
        254    2    1    2    0    0  0.58253372849E+03 -0.28930770606E+03 -0.15927812972E+04  0.19445221246E+04  0.90618405343E+03 0.  0.
         23    2    4    4    0    0 -0.23473264031E+03 -0.50014925940E+02 -0.32002730437E+03  0.41016399277E+03  0.90642816500E+02 0.  0.
         23    2    4    4    0    0  0.81726636881E+03 -0.23929278012E+03 -0.12727539928E+04  0.15343581318E+04  0.95743397687E+02 0.  0.
          1    1    3    3  502    0 -0.82885998213E+02  0.62679936861E+02 -0.96400128954E+02  0.14174571615E+03  0.00000000000E+00 0. -1.
         -2    1    3    3    0  502 -0.49964773028E+03  0.22662776920E+03 -0.33825450995E+03  0.64453402831E+03  0.00000000000E+00 0.  1.
         11    1    5    5    0    0 -0.16950826445E+03 -0.75821769259E+02 -0.21826337089E+03  0.28656742921E+03  0.00000000000E+00 0. -1.
        -11    1    5    5    0    0 -0.65224375867E+02  0.25806843320E+02 -0.10176393347E+03  0.12359656357E+03  0.00000000000E+00 0.  1.
          1    1    6    6  503    0  0.60916732283E+03 -0.21710246190E+03 -0.99216973452E+03  0.11843222063E+04  0.00000000000E+00 0. -1.
         -1    1    6    6    0  503  0.20809904598E+03 -0.22190318221E+02 -0.28058425826E+03  0.35003592551E+03  0.00000000000E+00 0.  1.
<mgrwt>
<rscale>  0 0.18294213E+04</rscale>
<asrwt>0</asrwt>
<pdfrwt beam="1">  1        1 0.36601831E+00 0.18294213E+04</pdfrwt>
<pdfrwt beam="2">  1       -2 0.54105070E-01 0.18294213E+04</pdfrwt>
<totfact> 0.43699270E+00</totfact>
</mgrwt>
</event>
<event>
12    4  0.4207946E-008  0.1385982E+04  0.7818608E-02  0.8964028E-01
          1   -1    0    0  501    0  0.00000000000E+00  0.00000000000E+00  0.13785267522E+04  0.13785267522E+04  0.00000000000E+00 0. -1.
         -2   -1    0    0    0  501 -0.00000000000E+00 -0.00000000000E+00 -0.34836963564E+03  0.34836963564E+03  0.00000000000E+00 0.  1.
        -24    2    1    2    0    0 -0.17503215735E+03  0.29259390952E+03  0.50309337311E+02  0.35399369657E+03  0.80827320858E+02 0.  0.
        254    2    1    2    0    0  0.17503215735E+03 -0.29259390952E+03  0.97984777921E+03  0.13729026912E+04  0.89917332988E+03 0.  0.
         23    2    4    4    0    0  0.29379610433E+03 -0.40393763215E+03  0.10551486199E+04  0.11710835219E+04  0.92823723188E+02 0.  0.
         23    2    4    4    0    0 -0.11876394699E+03  0.11134372263E+03 -0.75300840673E+02  0.20181916935E+03  0.92511949703E+02 0.  0.
          1    1    3    3  502    0 -0.46630860811E+00  0.18409939192E+02 -0.13393852744E+02  0.22771442556E+02  0.00000000000E+00 0. -1.
         -2    1    3    3    0  502 -0.17456584874E+03  0.27418397033E+03  0.63703190055E+02  0.33122225402E+03  0.00000000000E+00 0.  1.
         11    1    5    5    0    0  0.25178887177E+03 -0.30563662706E+03  0.75643935440E+03  0.85382192560E+03  0.00000000000E+00 0. -1.
        -11    1    5    5    0    0  0.42007232567E+02 -0.98301005095E+02  0.29870926548E+03  0.31726159628E+03  0.00000000000E+00 0.  1.
          4    1    6    6  503    0 -0.27493199665E+02  0.86754109564E+02 -0.50568250809E+02  0.10411195678E+03  0.00000000000E+00 0.  1.
         -4    1    6    6    0  503 -0.91270747322E+02  0.24589613068E+02 -0.24732589864E+02  0.97707212573E+02  0.00000000000E+00 0. -1.
<mgrwt>
<rscale>  0 0.13859825E+04</rscale>
<asrwt>0</asrwt>
<pdfrwt beam="1">  1        1 0.21208104E+00 0.13859825E+04</pdfrwt>
<pdfrwt beam="2">  1       -2 0.53595329E-01 0.13859825E+04</pdfrwt>
<totfact> 0.22347337E+01</totfact>
</mgrwt>
</event>
<event>
12    4  0.4207946E-008  0.2178936E+04  0.7818608E-02  0.8527247E-01
         -2   -1    0    0    0  501 -0.00000000000E+00  0.00000000000E+00  0.82229154364E+03  0.82229154364E+03  0.00000000000E+00 0.  1.
          1   -1    0    0  501    0  0.00000000000E+00 -0.00000000000E+00 -0.14434540246E+04  0.14434540246E+04  0.00000000000E+00 0. -1.
        -24    2    1    2    0    0  0.54575674352E+02  0.87545618027E+03 -0.29719256816E+03  0.92968679223E+03  0.81191633081E+02 0.  0.
        254    2    1    2    0    0 -0.54575674352E+02 -0.87545618027E+03 -0.32396991277E+03  0.13360587760E+04  0.95430315975E+03 0.  0.
         23    2    4    4    0    0  0.41062667729E+02 -0.13874894758E+03  0.31088238190E+03  0.35432536374E+03  0.89225528200E+02 0.  0.
         23    2    4    4    0    0 -0.95638342081E+02 -0.73670723269E+03 -0.63485229466E+03  0.98173341224E+03  0.94227477400E+02 0.  0.
          1    1    3    3  502    0  0.54926507491E+02  0.47575146428E+03 -0.12857145851E+03  0.49586993953E+03  0.00000000000E+00 0. -1.
         -2    1    3    3    0  502 -0.35083313891E+00  0.39970471599E+03 -0.16862110964E+03  0.43381685270E+03  0.00000000000E+00 0.  1.
         11    1    5    5    0    0 -0.23299023182E+01 -0.12314037424E+03  0.24010399251E+03  0.26984978679E+03  0.00000000000E+00 0. -1.
        -11    1    5    5    0    0  0.43392570048E+02 -0.15608573340E+02  0.70778389387E+02  0.84475576952E+02  0.00000000000E+00 0.  1.
          3    1    6    6  503    0 -0.53988023837E+02 -0.64369076330E+03 -0.56494022569E+03  0.85814332375E+03  0.00000000000E+00 0. -1.
         -3    1    6    6    0  503 -0.41650318244E+02 -0.93016469384E+02 -0.69912068967E+02  0.12359008849E+03  0.00000000000E+00 0.  1.
<mgrwt>
<rscale>  0 0.21789356E+04</rscale>
<asrwt>0</asrwt>
<pdfrwt beam="1">  1        1 0.22206985E+00 0.21789356E+04</pdfrwt>
<pdfrwt beam="2">  1       -2 0.12650639E+00 0.21789356E+04</pdfrwt>
<totfact> 0.26718165E+00</totfact>
</mgrwt>
</event>
<event>
12    4  0.4207946E-008  0.1506867E+04  0.7818608E-02  0.8879899E-01
          1   -1    0    0  501    0  0.00000000000E+00  0.00000000000E+00  0.18852633053E+04  0.18852633053E+04  0.00000000000E+00 0. -1.
         -2   -1    0    0    0  501 -0.00000000000E+00 -0.00000000000E+00 -0.30110479511E+03  0.30110479511E+03  0.00000000000E+00 0.  1.
        -24    2    1    2    0    0  0.31918053296E+03  0.34573693608E+03  0.61685500791E+03  0.78001576132E+03  0.80648902819E+02 0.  0.
        254    2    1    2    0    0 -0.31918053296E+03 -0.34573693608E+03  0.96730350226E+03  0.14063523391E+04  0.90594734646E+03 0.  0.
         23    2    4    4    0    0 -0.62260592459E+03 -0.29662168277E+03  0.59329265312E+03  0.91421809831E+03  0.90421230903E+02 0.  0.
         23    2    4    4    0    0  0.30342539163E+03 -0.49115253307E+02  0.37401084914E+03  0.49213424077E+03  0.88502651228E+02 0.  0.
          1    1    3    3  502    0  0.20703097219E+03  0.26220155493E+03  0.47593635054E+03  0.58148679144E+03  0.00000000000E+00 0. -1.
         -2    1    3    3    0  502  0.11214956077E+03  0.83535381147E+02  0.14091865737E+03  0.19852896987E+03  0.00000000000E+00 0.  1.
         11    1    5    5    0    0 -0.60192360904E+03 -0.26478184302E+03  0.56128540379E+03  0.86455928658E+03  0.00000000000E+00 0. -1.
        -11    1    5    5    0    0 -0.20682315549E+02 -0.31839839747E+02  0.32007249336E+02  0.49658811722E+02  0.00000000000E+00 0.  1.
          1    1    6    6  503    0  0.22580969059E+03  0.28989797054E+01  0.25053424102E+03  0.33729190084E+03  0.00000000000E+00 0. -1.
         -1    1    6    6    0  503  0.77615701036E+02 -0.52014233012E+02  0.12347660811E+03  0.15484233993E+03  0.00000000000E+00 0.  1.
<mgrwt>
<rscale>  0 0.15068667E+04</rscale>
<asrwt>0</asrwt>
<pdfrwt beam="1">  1        1 0.29004050E+00 0.15068667E+04</pdfrwt>
<pdfrwt beam="2">  1       -2 0.46323816E-01 0.15068667E+04</pdfrwt>
<totfact> 0.13373772E+01</totfact>
</mgrwt>
</event>
<event>
12    4  0.4207946E-008  0.1582260E+04  0.7818608E-02  0.8831521E-01
          1   -1    0    0  501    0  0.00000000000E+00  0.00000000000E+00  0.11252447130E+04  0.11252447130E+04  0.00000000000E+00 0. -1.
         -2   -1    0    0    0  501 -0.00000000000E+00 -0.00000000000E+00 -0.55622267758E+03  0.55622267758E+03  0.00000000000E+00 0.  1.
        -24    2    1    2    0    0 -0.24172189447E+03  0.36143450393E+03 -0.12892847199E+03  0.46023284535E+03  0.78277366798E+02 0.  0.
        254    2    1    2    0    0  0.24172189447E+03 -0.36143450393E+03  0.69795050744E+03  0.12212345453E+04  0.90289231298E+03 0.  0.
         23    2    4    4    0    0  0.15129520944E+03 -0.46915209403E+03 -0.45419340893E+00  0.50205064410E+03  0.95187789198E+02 0.  0.
         23    2    4    4    0    0  0.90426685030E+02  0.10771759011E+03  0.69840470085E+03  0.71918390117E+03  0.98368150097E+02 0.  0.
          1    1    3    3  502    0 -0.68846822285E+02  0.15879376107E+03 -0.27677033780E+02  0.17527510289E+03  0.00000000000E+00 0. -1.
         -2    1    3    3    0  502 -0.17287507218E+03  0.20264074286E+03 -0.10125143821E+03  0.28495774246E+03  0.00000000000E+00 0.  1.
         11    1    5    5    0    0  0.67290852852E+02 -0.34875332763E+03  0.31088896556E+01  0.35519939133E+03  0.00000000000E+00 0. -1.
        -11    1    5    5    0    0  0.84004356587E+02 -0.12039876641E+03 -0.35630830645E+01  0.14685125277E+03  0.00000000000E+00 0.  1.
          2    1    6    6  503    0  0.88786717652E+02  0.10364862339E+03  0.70094947063E+03  0.71411223120E+03  0.00000000000E+00 0. -1.
         -2    1    6    6    0  503  0.16399673782E+01  0.40689667127E+01 -0.25447697830E+01  0.50716699774E+01  0.00000000000E+00 0.  1.
<mgrwt>
<rscale>  0 0.15822599E+04</rscale>
<asrwt>0</asrwt>
<pdfrwt beam="1">  1        1 0.17311457E+00 0.15822599E+04</pdfrwt>
<pdfrwt beam="2">  1       -2 0.85572720E-01 0.15822599E+04</pdfrwt>
<totfact> 0.12136231E+01</totfact>
</mgrwt>
</event>
<event>
12    4  0.4207946E-008  0.1345207E+04  0.7818608E-02  0.8994464E-01
         -2   -1    0    0    0  501 -0.00000000000E+00  0.00000000000E+00  0.13795259007E+04  0.13795259007E+04  0.00000000000E+00 0.  1.
          1   -1    0    0  501    0  0.00000000000E+00 -0.00000000000E+00 -0.32793536439E+03  0.32793536439E+03  0.00000000000E+00 0. -1.
        -24    2    1    2    0    0  0.39923595052E+02  0.69110357123E+02 -0.16182750404E+03  0.19557469680E+03  0.75439950016E+02 0.  0.
        254    2    1    2    0    0 -0.39923595052E+02 -0.69110357123E+02  0.12134180403E+04  0.15118865683E+04  0.89835823578E+03 0.  0.
         23    2    4    4    0    0 -0.18159520713E+02  0.28571558850E+03  0.66415642876E+02  0.30776376323E+03  0.91347307737E+02 0.  0.
         23    2    4    4    0    0 -0.21764074338E+02 -0.35482594563E+03  0.11470023975E+04  0.12041228050E+04  0.89006197684E+02 0.  0.
          3    1    3    3  502    0  0.12947756063E+02  0.67069753279E+02 -0.15225877837E+03  0.16687939293E+03  0.00000000000E+00 0. -1.
         -4    1    3    3    0  502  0.26975838989E+02  0.20406038445E+01 -0.95687256710E+01  0.28695303870E+02  0.00000000000E+00 0.  1.
         11    1    5    5    0    0 -0.27710977181E+02  0.28760780841E+03  0.57592011534E+02  0.29462347073E+03  0.00000000000E+00 0. -1.
        -11    1    5    5    0    0  0.95514564673E+01 -0.18922199042E+01  0.88236313420E+01  0.13140292496E+02  0.00000000000E+00 0.  1.
          4    1    6    6  503    0  0.26224691874E+02 -0.15298573454E+03  0.40718433961E+03  0.43576536790E+03  0.00000000000E+00 0. -1.
         -4    1    6    6    0  503 -0.47988766213E+02 -0.20184021108E+03  0.73981805785E+03  0.76835743715E+03  0.00000000000E+00 0.  1.
<mgrwt>
<rscale>  0 0.13452068E+04</rscale>
<asrwt>0</asrwt>
<pdfrwt beam="1">  1        1 0.50451595E-01 0.13452068E+04</pdfrwt>
<pdfrwt beam="2">  1       -2 0.21223475E+00 0.13452068E+04</pdfrwt>
<totfact> 0.73870157E+00</totfact>
</mgrwt>
</event>
<event>
12    4  0.4207946E-008  0.2580453E+04  0.7818608E-02  0.8374871E-01
          1   -1    0    0  501    0  0.00000000000E+00  0.00000000000E+00  0.13006056203E+04  0.13006056203E+04  0.00000000000E+00 0. -1.
         -2   -1    0    0    0  501 -0.00000000000E+00 -0.00000000000E+00 -0.12799301658E+04  0.12799301658E+04  0.00000000000E+00 0.  1.
        -24    2    1    2    0    0  0.31935966370E+03  0.10576324332E+04  0.25386391143E+03  0.11361404651E+04  0.76100673148E+02 0.  0.
        254    2    1    2    0    0 -0.31935966370E+03 -0.10576324332E+04 -0.23318845693E+03  0.14443953210E+04  0.90073527098E+03 0.  0.
         23    2    4    4    0    0  0.25819040105E+03 -0.26101440702E+03  0.11811573394E+03  0.39569116681E+03  0.88483721801E+02 0.  0.
         23    2    4    4    0    0 -0.57755006475E+03 -0.79661802617E+03 -0.35130419086E+03  0.10487041542E+04  0.90561645321E+02 0.  0.
          3    1    3    3  502    0  0.18587282058E+03  0.65208687185E+03  0.11920752100E+03  0.68845945918E+03  0.00000000000E+00 0. -1.
         -4    1    3    3    0  502  0.13348684312E+03  0.40554556134E+03  0.13465639044E+03  0.44768100596E+03  0.00000000000E+00 0.  1.
         11    1    5    5    0    0  0.24644740379E+03 -0.25988145206E+03  0.96276386526E+02  0.37086902616E+03  0.00000000000E+00 0. -1.
        -11    1    5    5    0    0  0.11742997260E+02 -0.11329549635E+01  0.21839347409E+02  0.24822140658E+02  0.00000000000E+00 0.  1.
          1    1    6    6  503    0 -0.51257604048E+03 -0.74667581321E+03 -0.31298177384E+03  0.95823617029E+03  0.00000000000E+00 0. -1.
         -1    1    6    6    0  503 -0.64974024269E+02 -0.49942212965E+02 -0.38322417022E+02  0.90467983905E+02  0.00000000000E+00 0.  1.
<mgrwt>
<rscale>  0 0.25804530E+04</rscale>
<asrwt>0</asrwt>
<pdfrwt beam="1">  1        1 0.20009317E+00 0.25804530E+04</pdfrwt>
<pdfrwt beam="2">  1       -2 0.19691233E+00 0.25804530E+04</pdfrwt>
<totfact> 0.97535132E-01</totfact>
</mgrwt>
</event>
<event>
12    4  0.4207946E-008  0.1317881E+04  0.7818608E-02  0.9015504E-01
          1   -1    0    0  501    0  0.00000000000E+00  0.00000000000E+00  0.12168885269E+04  0.12168885269E+04  0.00000000000E+00 0. -1.
         -2   -1    0    0    0  501 -0.00000000000E+00 -0.00000000000E+00 -0.35681369330E+03  0.35681369330E+03  0.00000000000E+00 0.  1.
        -24    2    1    2    0    0  0.21401370774E+03 -0.20364730033E+03  0.46750623299E+03  0.55878999072E+03  0.80063011556E+02 0.  0.
        254    2    1    2    0    0 -0.21401370774E+03  0.20364730033E+03  0.39256860066E+03  0.10149122295E+04  0.88806679781E+03 0.  0.
         23    2    4    4    0    0 -0.37755618663E+03 -0.71424027651E+02 -0.11203481377E+03  0.41053409227E+03  0.91303754717E+02 0.  0.
         23    2    4    4    0    0  0.16354247890E+03  0.27507132798E+03  0.50460341443E+03  0.60437813725E+03  0.90763148108E+02 0.  0.
          3    1    3    3  502    0  0.19573325850E+03 -0.20749921059E+03  0.41966890744E+03  0.50743415608E+03  0.00000000000E+00 0. -1.
         -4    1    3    3    0  502  0.18280449232E+02  0.38519102604E+01  0.47837325549E+02  0.51355834649E+02  0.00000000000E+00 0.  1.
         11    1    5    5    0    0 -0.24269017288E+03 -0.62725040961E+02 -0.11400692080E+03  0.27537343511E+03  0.00000000000E+00 0. -1.
        -11    1    5    5    0    0 -0.13486601376E+03 -0.86989866893E+01  0.19721070338E+01  0.13516065715E+03  0.00000000000E+00 0.  1.
          2    1    6    6  503    0  0.15675026811E+02 -0.27754274715E+01  0.41440849550E+02  0.44393169233E+02  0.00000000000E+00 0.  1.
         -2    1    6    6    0  503  0.14786745209E+03  0.27784675545E+03  0.46316256488E+03  0.55998496802E+03  0.00000000000E+00 0. -1.
<mgrwt>
<rscale>  0 0.13178809E+04</rscale>
<asrwt>0</asrwt>
<pdfrwt beam="1">  1        1 0.18721362E+00 0.13178809E+04</pdfrwt>
<pdfrwt beam="2">  1       -2 0.54894415E-01 0.13178809E+04</pdfrwt>
<totfact> 0.27898874E+01</totfact>
</mgrwt>
</event>
<event>
12    4  0.4207946E-008  0.3022675E+04  0.7818608E-02  0.8237285E-01
         -2   -1    0    0    0  501 -0.00000000000E+00  0.00000000000E+00  0.19619742416E+04  0.19619742416E+04  0.00000000000E+00 0.  1.
          1   -1    0    0  501    0  0.00000000000E+00 -0.00000000000E+00 -0.11642053123E+04  0.11642053123E+04  0.00000000000E+00 0. -1.
        -24    2    1    2    0    0 -0.89514241629E+03  0.10298192127E+04  0.19537114615E+03  0.13809960267E+04  0.84691113177E+02 0.  0.
        254    2    1    2    0    0  0.89514241629E+03 -0.10298192127E+04  0.60239778309E+03  0.17451835273E+04  0.90607665155E+03 0.  0.
         23    2    4    4    0    0  0.47472158826E+03 -0.42562025305E+03 -0.17852159447E+03  0.66813616874E+03  0.89570051451E+02 0.  0.
         23    2    4    4    0    0  0.42042082803E+03 -0.60419895965E+03  0.78091937756E+03  0.10770473585E+04  0.91574465814E+02 0.  0.
          1    1    3    3  502    0 -0.87380496417E+03  0.10095709290E+04  0.17849100161E+03  0.13470811459E+04  0.00000000000E+00 0. -1.
         -2    1    3    3    0  502 -0.21337452121E+02  0.20248283741E+02  0.16880144545E+02  0.33914880765E+02  0.00000000000E+00 0.  1.
         11    1    5    5    0    0  0.42339294722E+03 -0.33765816902E+03 -0.15933508772E+03  0.56450181315E+03  0.00000000000E+00 0. -1.
        -11    1    5    5    0    0  0.51328641032E+02 -0.87962084034E+02 -0.19186506747E+02  0.10363435559E+03  0.00000000000E+00 0.  1.
          2    1    6    6  503    0  0.35349484842E+03 -0.54441336885E+03  0.71500815360E+03  0.96570243023E+03  0.00000000000E+00 0. -1.
         -2    1    6    6    0  503  0.66925979613E+02 -0.59785590795E+02  0.65911223960E+02  0.11134492830E+03  0.00000000000E+00 0.  1.
<mgrwt>
<rscale>  0 0.30226749E+04</rscale>
<asrwt>0</asrwt>
<pdfrwt beam="1">  1        1 0.17910851E+00 0.30226749E+04</pdfrwt>
<pdfrwt beam="2">  1       -2 0.30184219E+00 0.30226749E+04</pdfrwt>
<totfact> 0.26211684E-01</totfact>
</mgrwt>
</event>
<event>
12    4  0.4207946E-008  0.1636537E+04  0.7818608E-02  0.8798411E-01
         -2   -1    0    0    0  501 -0.00000000000E+00  0.00000000000E+00  0.67716425133E+03  0.67716425133E+03  0.00000000000E+00 0.  1.
          1   -1    0    0  501    0  0.00000000000E+00 -0.00000000000E+00 -0.98877506150E+03  0.98877506150E+03  0.00000000000E+00 0. -1.
        -24    2    1    2    0    0 -0.42063410452E+03  0.37334397300E+03  0.31809453164E+02  0.56883459760E+03  0.79007506319E+02 0.  0.
        254    2    1    2    0    0  0.42063410452E+03 -0.37334397300E+03 -0.34342026333E+03  0.10971047152E+04  0.87714451880E+03 0.  0.
         23    2    4    4    0    0  0.63196107947E+03 -0.45710830103E+03 -0.33064955063E+03  0.85204469655E+03  0.91259162582E+02 0.  0.
         23    2    4    4    0    0 -0.21132697495E+03  0.83764328037E+02 -0.12770712698E+02  0.24506001868E+03  0.90640877427E+02 0.  0.
          1    1    3    3  502    0 -0.18392560426E+03  0.11402260052E+03  0.13575525851E+01  0.21640615583E+03  0.00000000000E+00 0. -1.
         -2    1    3    3    0  502 -0.23670850026E+03  0.25932137247E+03  0.30451900579E+02  0.35242844176E+03  0.00000000000E+00 0.  1.
         11    1    5    5    0    0  0.24245640908E+03 -0.12206516511E+03 -0.11004360831E+03  0.29290717056E+03  0.00000000000E+00 0. -1.
        -11    1    5    5    0    0  0.38950467039E+03 -0.33504313592E+03 -0.22060594232E+03  0.55913752599E+03  0.00000000000E+00 0.  1.
          4    1    6    6  503    0 -0.15962803315E+03  0.33576373391E+02 -0.40134857975E+02  0.16798597752E+03  0.00000000000E+00 0. -1.
         -4    1    6    6    0  503 -0.51698941795E+02  0.50187954646E+02  0.27364145277E+02  0.77074041161E+02  0.00000000000E+00 0.  1.
<mgrwt>
<rscale>  0 0.16365367E+04</rscale>
<asrwt>0</asrwt>
<pdfrwt beam="1">  1        1 0.15211924E+00 0.16365367E+04</pdfrwt>
<pdfrwt beam="2">  1       -2 0.10417912E+00 0.16365367E+04</pdfrwt>
<totfact> 0.96997334E+00</totfact>
</mgrwt>
</event>
<event>
12    4  0.4207946E-008  0.1278969E+04  0.7818608E-02  0.9046411E-01
         -2   -1    0    0    0  501 -0.00000000000E+00  0.00000000000E+00  0.15989516498E+03  0.15989516498E+03  0.00000000000E+00 0.  1.
          1   -1    0    0  501    0  0.00000000000E+00 -0.00000000000E+00 -0.25575531182E+04  0.25575531182E+04  0.00000000000E+00 0. -1.
        -24    2    1    2    0    0  0.14636890319E+02  0.11521514063E+03  0.11176231627E+02  0.14063822118E+03  0.78520277107E+02 0.  0.
        254    2    1    2    0    0 -0.14636890319E+02 -0.11521514063E+03 -0.24088341848E+04  0.25768100620E+04  0.90773299949E+03 0.  0.
         23    2    4    4    0    0  0.23518942678E+03 -0.16940046305E+03 -0.22332187131E+04  0.22538604442E+04  0.92792769085E+02 0.  0.
         23    2    4    4    0    0 -0.24982631710E+03  0.54185322426E+02 -0.17561547178E+03  0.32294961784E+03  0.90035681008E+02 0.  0.
          3    1    3    3  502    0 -0.10239420401E+02  0.21573201999E+02 -0.27404966047E+02  0.36349428313E+02  0.00000000000E+00 0. -1.
         -4    1    3    3    0  502  0.24876310720E+02  0.93641938627E+02  0.38581197673E+02  0.10428879287E+03  0.00000000000E+00 0.  1.
         11    1    5    5    0    0  0.18519379791E+03 -0.16662146311E+03 -0.16784307120E+04  0.16968173472E+04  0.00000000000E+00 0. -1.
        -11    1    5    5    0    0  0.49995628871E+02 -0.27789999377E+01 -0.55478800104E+03  0.55704309694E+03  0.00000000000E+00 0.  1.
          1    1    6    6  503    0 -0.22808772365E+03  0.47647973704E+02 -0.18584764383E+03  0.29804980422E+03  0.00000000000E+00 0. -1.
         -1    1    6    6    0  503 -0.21738593452E+02  0.65373487219E+01  0.10232172053E+02  0.24899813624E+02  0.00000000000E+00 0.  1.
<mgrwt>
<rscale>  0 0.12789689E+04</rscale>
<asrwt>0</asrwt>
<pdfrwt beam="1">  1        1 0.39346967E+00 0.12789689E+04</pdfrwt>
<pdfrwt beam="2">  1       -2 0.24599259E-01 0.12789689E+04</pdfrwt>
<totfact> 0.15854819E+01</totfact>
</mgrwt>
</event>
<event>
12    4  0.4207946E-008  0.1879629E+04  0.7818608E-02  0.8665063E-01
          3   -1    0    0  501    0  0.00000000000E+00  0.00000000000E+00  0.33570333007E+03  0.33570333007E+03  0.00000000000E+00 0. -1.
         -4   -1    0    0    0  501 -0.00000000000E+00 -0.00000000000E+00 -0.26310460441E+04  0.26310460441E+04  0.00000000000E+00 0.  1.
        -24    2    1    2    0    0 -0.20089610895E+03  0.68961249577E+03 -0.92041744715E+03  0.11705305078E+04  0.83956844024E+02 0.  0.
        254    2    1    2    0    0  0.20089610895E+03 -0.68961249577E+03 -0.13749252669E+04  0.17962188664E+04  0.90557058569E+03 0.  0.
         23    2    4    4    0    0  0.36365466009E+03  0.31427854142E+02 -0.26661691503E+03  0.46075607632E+03  0.89326147666E+02 0.  0.
         23    2    4    4    0    0 -0.16275855114E+03 -0.72104034991E+03 -0.11083083519E+04  0.13354627901E+04  0.93401974319E+02 0.  0.
          1    1    3    3  502    0 -0.13734049719E+03  0.51548054840E+03 -0.73650721957E+03  0.90940941958E+03  0.00000000000E+00 0. -1.
         -2    1    3    3    0  502 -0.63555611761E+02  0.17413194737E+03 -0.18391022758E+03  0.26112108817E+03  0.00000000000E+00 0.  1.
         11    1    5    5    0    0  0.15817284285E+03 -0.47779510649E+01 -0.66489228352E+02  0.17164584038E+03  0.00000000000E+00 0. -1.
        -11    1    5    5    0    0  0.20548181724E+03  0.36205805207E+02 -0.20012768668E+03  0.28911023594E+03  0.00000000000E+00 0.  1.
          4    1    6    6  503    0 -0.44672442454E+01 -0.18852211921E+01 -0.24391753466E-01  0.48488065593E+01  0.00000000000E+00 0. -1.
         -4    1    6    6    0  503 -0.15829130690E+03 -0.71915512872E+03 -0.11082839601E+04  0.13306139836E+04  0.00000000000E+00 0.  1.
<mgrwt>
<rscale>  0 0.18796286E+04</rscale>
<asrwt>0</asrwt>
<pdfrwt beam="1">  1        3 0.51646666E-01 0.18796286E+04</pdfrwt>
<pdfrwt beam="2">  1       -4 0.40477632E+00 0.18796286E+04</pdfrwt>
<totfact> 0.50526538E-02</totfact>
</mgrwt>
</event>
<event>
12    4  0.4207946E-008  0.1586071E+04  0.7818608E-02  0.8829151E-01
          1   -1    0    0  501    0  0.00000000000E+00  0.00000000000E+00  0.36174419304E+04  0.36174419304E+04  0.00000000000E+00 0. -1.
         -2   -1    0    0    0  501 -0.00000000000E+00 -0.00000000000E+00 -0.17385367596E+03  0.17385367596E+03  0.00000000000E+00 0.  1.
        -24    2    1    2    0    0 -0.82362610890E+02 -0.18350170752E+03  0.23435020351E+04  0.23535506752E+04  0.82112821772E+02 0.  0.
        254    2    1    2    0    0  0.82362610890E+02  0.18350170752E+03  0.11000862193E+04  0.14377449312E+04  0.90358415265E+03 0.  0.
         23    2    4    4    0    0  0.21193785450E+03 -0.32210132208E+03  0.46300045149E+03  0.60934505261E+03  0.90912371066E+02 0.  0.
         23    2    4    4    0    0 -0.12957524361E+03  0.50560302960E+03  0.63708576777E+03  0.82839987854E+03  0.89128648422E+02 0.  0.
          1    1    3    3  502    0 -0.72382575004E+02 -0.18624665712E+03  0.20144544686E+04  0.20243403520E+04  0.00000000000E+00 0. -1.
         -2    1    3    3    0  502 -0.99800358865E+01  0.27449495951E+01  0.32904756651E+03  0.32921032319E+03  0.00000000000E+00 0.  1.
         11    1    5    5    0    0  0.19722117268E+03 -0.32448362709E+03  0.45426400750E+03  0.59206554005E+03  0.00000000000E+00 0.  1.
        -11    1    5    5    0    0  0.14716681817E+02  0.23823050127E+01  0.87364439839E+01  0.17279512561E+02  0.00000000000E+00 0. -1.
          2    1    6    6  503    0 -0.45062980473E+02  0.74109810485E+02  0.14064568607E+03  0.16523965998E+03  0.00000000000E+00 0. -1.
         -2    1    6    6    0  503 -0.84512263134E+02  0.43149321912E+03  0.49644008169E+03  0.66316021856E+03  0.00000000000E+00 0.  1.
<mgrwt>
<rscale>  0 0.15860713E+04</rscale>
<asrwt>0</asrwt>
<pdfrwt beam="1">  1        1 0.55652947E+00 0.15860713E+04</pdfrwt>
<pdfrwt beam="2">  1       -2 0.26746722E-01 0.15860713E+04</pdfrwt>
<totfact> 0.21794765E+00</totfact>
</mgrwt>
</event>
<event>
12    4  0.4207946E-008  0.2782275E+04  0.7818608E-02  0.8308792E-01
         -2   -1    0    0    0  501 -0.00000000000E+00  0.00000000000E+00  0.54465956732E+03  0.54465956732E+03  0.00000000000E+00 0.  1.
          1   -1    0    0  501    0  0.00000000000E+00 -0.00000000000E+00 -0.35531629669E+04  0.35531629669E+04  0.00000000000E+00 0. -1.
        -24    2    1    2    0    0  0.30256570781E+03  0.29654673139E+03 -0.30817277088E+04  0.31117203006E+04  0.79193348468E+02 0.  0.
        254    2    1    2    0    0 -0.30256570781E+03 -0.29654673139E+03  0.73224309192E+02  0.98610223366E+03  0.88744005112E+03 0.  0.
         23    2    4    4    0    0  0.26511006226E+03 -0.10843920004E+03 -0.15595650794E+03  0.33909878948E+03  0.92860925260E+02 0.  0.
         23    2    4    4    0    0 -0.56767577007E+03 -0.18810753136E+03  0.22918081713E+03  0.64700344418E+03  0.91920544840E+02 0.  0.
          1    1    3    3  502    0  0.25779129621E+03  0.21140321004E+03 -0.24910390728E+04  0.25132495562E+04  0.00000000000E+00 0. -1.
         -2    1    3    3    0  502  0.44774411600E+02  0.85143521349E+02 -0.59068863599E+03  0.59847074435E+03  0.00000000000E+00 0.  1.
         11    1    5    5    0    0  0.61267973842E+02 -0.71127805477E+02 -0.48160736400E+02  0.10551012208E+03  0.00000000000E+00 0. -1.
        -11    1    5    5    0    0  0.20384208842E+03 -0.37311394558E+02 -0.10779577154E+03  0.23358866740E+03  0.00000000000E+00 0.  1.
          2    1    6    6  503    0 -0.15097468802E+03 -0.84263052842E+01  0.61032723503E+02  0.16306241866E+03  0.00000000000E+00 0. -1.
         -2    1    6    6    0  503 -0.41670108205E+03 -0.17968122607E+03  0.16814809363E+03  0.48394102552E+03  0.00000000000E+00 0.  1.
<mgrwt>
<rscale>  0 0.27822755E+04</rscale>
<asrwt>0</asrwt>
<pdfrwt beam="1">  1        1 0.54664047E+00 0.27822755E+04</pdfrwt>
<pdfrwt beam="2">  1       -2 0.83793777E-01 0.27822755E+04</pdfrwt>
<totfact> 0.21529674E-01</totfact>
</mgrwt>
</event>
<event>
12    4  0.4207946E-008  0.1698898E+04  0.7818608E-02  0.8761993E-01
         -2   -1    0    0    0  501 -0.00000000000E+00  0.00000000000E+00  0.76242011966E+03  0.76242011966E+03  0.00000000000E+00 0.  1.
          1   -1    0    0  501    0  0.00000000000E+00 -0.00000000000E+00 -0.94641187912E+03  0.94641187912E+03  0.00000000000E+00 0. -1.
        -24    2    1    2    0    0  0.15864232520E+03 -0.34767184288E+03 -0.54664584724E+03  0.67176772087E+03  0.80044305371E+02 0.  0.
        254    2    1    2    0    0 -0.15864232520E+03  0.34767184288E+03  0.36265408778E+03  0.10370642779E+04  0.89327556300E+03 0.  0.
         23    2    4    4    0    0 -0.44365832742E+03  0.43951970987E+03  0.35359531664E+03  0.72353109366E+03  0.91963626998E+02 0.  0.
         23    2    4    4    0    0  0.28501600222E+03 -0.91847866989E+02  0.90587711341E+01  0.31353318424E+03  0.92470774265E+02 0.  0.
          3    1    3    3  502    0  0.16115742020E+03 -0.29102168068E+03 -0.44831498381E+03  0.55825769804E+03  0.00000000000E+00 0. -1.
         -4    1    3    3    0  502 -0.25150950008E+01 -0.56650162197E+02 -0.98330863434E+02  0.11351002283E+03  0.00000000000E+00 0.  1.
         11    1    5    5    0    0 -0.13498574619E+03  0.78744357218E+02  0.94756365887E+02  0.18275829487E+03  0.00000000000E+00 0.  1.
        -11    1    5    5    0    0 -0.30867258124E+03  0.36077535265E+03  0.25883895076E+03  0.54077279879E+03  0.00000000000E+00 0. -1.
          3    1    6    6  503    0  0.27942600636E+03 -0.81025930318E+02 -0.97785971252E+01  0.29110086804E+03  0.00000000000E+00 0. -1.
         -3    1    6    6    0  503  0.55899958616E+01 -0.10821936671E+02  0.18837368259E+02  0.22432316197E+02  0.00000000000E+00 0.  1.
<mgrwt>
<rscale>  0 0.16988978E+04</rscale>
<asrwt>0</asrwt>
<pdfrwt beam="1">  1        1 0.14560183E+00 0.16988978E+04</pdfrwt>
<pdfrwt beam="2">  1       -2 0.11729540E+00 0.16988978E+04</pdfrwt>
<totfact> 0.78183676E+00</totfact>
</mgrwt>
</event>
<event>
12    4  0.4207946E-008  0.1578537E+04  0.7818608E-02  0.8833843E-01
         -2   -1    0    0    0  501 -0.00000000000E+00  0.00000000000E+00  0.12985350909E+04  0.12985350909E+04  0.00000000000E+00 0.  1.
          1   -1    0    0  501    0  0.00000000000E+00 -0.00000000000E+00 -0.47972903527E+03  0.47972903527E+03  0.00000000000E+00 0. -1.
        -24    2    1    2    0    0 -0.49707597906E+03 -0.16918918650E+02  0.45083332397E+03  0.67614767194E+03  0.80958072442E+02 0.  0.
        254    2    1    2    0    0  0.49707597906E+03  0.16918918650E+02  0.36797273164E+03  0.11021164542E+04  0.91207783038E+03 0.  0.
         23    2    4    4    0    0  0.26364130875E+03  0.64250121861E+02 -0.28433038109E+03  0.40182235566E+03  0.83562085071E+02 0.  0.
         23    2    4    4    0    0  0.23343467031E+03 -0.47331203210E+02  0.65230311272E+03  0.70029409856E+03  0.90446036439E+02 0.  0.
          1    1    3    3  502    0 -0.48653409989E+03 -0.98916535404E+01  0.45098659980E+03  0.66347734578E+03  0.00000000000E+00 0. -1.
         -2    1    3    3    0  502 -0.10541879175E+02 -0.70272651101E+01 -0.15327582842E+00  0.12670326158E+02  0.00000000000E+00 0.  1.
         11    1    5    5    0    0  0.16833555836E+03  0.15390097689E+02 -0.12670047244E+03  0.21125038469E+03  0.00000000000E+00 0.  1.
        -11    1    5    5    0    0  0.95305750386E+02  0.48860024172E+02 -0.15762990865E+03  0.19057197097E+03  0.00000000000E+00 0. -1.
          3    1    6    6  503    0  0.17612910079E+03 -0.73345170225E+02  0.51668243101E+03  0.55078281441E+03  0.00000000000E+00 0. -1.
         -3    1    6    6    0  503  0.57305569529E+02  0.26013967015E+02  0.13562068172E+03  0.14951128415E+03  0.00000000000E+00 0.  1.
<mgrwt>
<rscale>  0 0.15785373E+04</rscale>
<asrwt>0</asrwt>
<pdfrwt beam="1">  1        1 0.73804467E-01 0.15785373E+04</pdfrwt>
<pdfrwt beam="2">  1       -2 0.19977463E+00 0.15785373E+04</pdfrwt>
<totfact> 0.52595877E+00</totfact>
</mgrwt>
</event>
<event>
12    4  0.4207946E-008  0.2648567E+04  0.7818608E-02  0.8351889E-01
         -2   -1    0    0    0  501 -0.00000000000E+00  0.00000000000E+00  0.82868860333E+03  0.82868860333E+03  0.00000000000E+00 0.  1.
          1   -1    0    0  501    0  0.00000000000E+00 -0.00000000000E+00 -0.21162673435E+04  0.21162673435E+04  0.00000000000E+00 0. -1.
        -24    2    1    2    0    0  0.10224868946E+04 -0.56821083031E+03 -0.62723167720E+03  0.13298826316E+04  0.82615009715E+02 0.  0.
        254    2    1    2    0    0 -0.10224868946E+04  0.56821083031E+03 -0.66034706293E+03  0.16150733151E+04  0.89669424696E+03 0.  0.
         23    2    4    4    0    0 -0.24163272898E+02  0.43712795108E+03 -0.31621480745E+03  0.54760831588E+03  0.90655136660E+02 0.  0.
         23    2    4    4    0    0 -0.99832362167E+03  0.13108287924E+03 -0.34413225548E+03  0.10674649993E+04  0.84980824789E+02 0.  0.
          1    1    3    3  502    0  0.68386420498E+02 -0.22985840673E+02 -0.56344061040E+02  0.91540726425E+02  0.00000000000E+00 0. -1.
         -2    1    3    3    0  502  0.95410047407E+03 -0.54522498964E+03 -0.57088761616E+03  0.12383419052E+04  0.00000000000E+00 0.  1.
         11    1    5    5    0    0 -0.46363666867E+02  0.19693903337E+03 -0.11017165066E+03  0.23037440197E+03  0.00000000000E+00 0.  1.
        -11    1    5    5    0    0  0.22200393969E+02  0.24018891770E+03 -0.20604315678E+03  0.31723391392E+03  0.00000000000E+00 0. -1.
          2    1    6    6  503    0 -0.42862794698E+03  0.28451788384E+02 -0.18017819863E+03  0.46582786999E+03  0.00000000000E+00 0. -1.
         -2    1    6    6    0  503 -0.56969567468E+03  0.10263109085E+03 -0.16395405685E+03  0.60163712927E+03  0.00000000000E+00 0.  1.
<mgrwt>
<rscale>  0 0.26485669E+04</rscale>
<asrwt>0</asrwt>
<pdfrwt beam="1">  1        1 0.32557959E+00 0.26485669E+04</pdfrwt>
<pdfrwt beam="2">  1       -2 0.12749056E+00 0.26485669E+04</pdfrwt>
<totfact> 0.87376408E-01</totfact>
</mgrwt>
</event>
<event>
12    4  0.4207946E-008  0.2301535E+04  0.7818608E-02  0.8477316E-01
          1   -1    0    0  501    0  0.00000000000E+00  0.00000000000E+00  0.14675446607E+04  0.14675446607E+04  0.00000000000E+00 0. -1.
         -2   -1    0    0    0  501 -0.00000000000E+00 -0.00000000000E+00 -0.90236858114E+03  0.90236858114E+03  0.00000000000E+00 0.  1.
        -24    2    1    2    0    0 -0.21199356304E+03 -0.86955246665E+03  0.60347228465E+03  0.10821453953E+04  0.76138657071E+02 0.  0.
        254    2    1    2    0    0  0.21199356304E+03  0.86955246665E+03 -0.38296205130E+02  0.12877678466E+04  0.92510359651E+03 0.  0.
         23    2    4    4    0    0  0.23330687464E+03  0.10487106640E+04 -0.44391554854E+01  0.10779199248E+04  0.87552861335E+02 0.  0.
         23    2    4    4    0    0 -0.21313311598E+02 -0.17915819737E+03 -0.33857049644E+02  0.20984792179E+03  0.10167562902E+03 0.  0.
          3    1    3    3  502    0 -0.93657460775E+02 -0.40424973431E+03  0.32530797072E+03  0.52727112899E+03  0.00000000000E+00 0. -1.
         -4    1    3    3    0  502 -0.11833610227E+03 -0.46530273233E+03  0.27816431394E+03  0.55487426627E+03  0.00000000000E+00 0.  1.
         11    1    5    5    0    0  0.14010982565E+03  0.73972562743E+03  0.29154372910E+02  0.75344193179E+03  0.00000000000E+00 0. -1.
        -11    1    5    5    0    0  0.93197048989E+02  0.30898503658E+03 -0.33593528395E+02  0.32447799297E+03  0.00000000000E+00 0.  1.
          4    1    6    6  503    0 -0.43186745046E+02 -0.96378783748E+02  0.21650780840E+02  0.10780872514E+03  0.00000000000E+00 0. -1.
         -4    1    6    6    0  503  0.21873433448E+02 -0.82779413618E+02 -0.55507830484E+02  0.10203919666E+03  0.00000000000E+00 0.  1.
<mgrwt>
<rscale>  0 0.23015353E+04</rscale>
<asrwt>0</asrwt>
<pdfrwt beam="1">  1        1 0.22577610E+00 0.23015353E+04</pdfrwt>
<pdfrwt beam="2">  1       -2 0.13882594E+00 0.23015353E+04</pdfrwt>
<totfact> 0.20070724E+00</totfact>
</mgrwt>
</event>
<event>
12    4  0.4207946E-008  0.2565707E+04  0.7818608E-02  0.8379944E-01
         -2   -1    0    0    0  501 -0.00000000000E+00  0.00000000000E+00  0.14305711065E+04  0.14305711065E+04  0.00000000000E+00 0.  1.
          1   -1    0    0  501    0  0.00000000000E+00 -0.00000000000E+00 -0.11503886991E+04  0.11503886991E+04  0.00000000000E+00 0. -1.
        -24    2    1    2    0    0 -0.25569322141E+03  0.10876706642E+04  0.23409324408E+03  0.11444217769E+04  0.80591931433E+02 0.  0.
        254    2    1    2    0    0  0.25569322141E+03 -0.10876706642E+04  0.46089163351E+02  0.14365380287E+04  0.90172656588E+03 0.  0.
         23    2    4    4    0    0  0.11419595732E+03 -0.97467887145E+03  0.37151800601E+03  0.10532425852E+04  0.90855354161E+02 0.  0.
         23    2    4    4    0    0  0.14149726409E+03 -0.11299179273E+03 -0.32542884266E+03  0.38329544346E+03  0.90679900596E+02 0.  0.
          1    1    3    3  502    0 -0.12232814799E+03  0.48164530113E+03  0.64263887285E+02  0.50107506334E+03  0.00000000000E+00 0. -1.
         -2    1    3    3    0  502 -0.13336507342E+03  0.60602536305E+03  0.16982935680E+03  0.64334671360E+03  0.00000000000E+00 0.  1.
         11    1    5    5    0    0 -0.12038902133E+02 -0.22340314237E+03  0.82562907661E+02  0.23847543460E+03  0.00000000000E+00 0. -1.
        -11    1    5    5    0    0  0.12623485945E+03 -0.75127572907E+03  0.28895509835E+03  0.81476715060E+03  0.00000000000E+00 0.  1.
          3    1    6    6  503    0  0.38500322402E+02 -0.47330457964E+02 -0.19623583462E+03  0.20550170283E+03  0.00000000000E+00 0.  1.
         -3    1    6    6    0  503  0.10299694169E+03 -0.65661334769E+02 -0.12919300803E+03  0.17779374062E+03  0.00000000000E+00 0. -1.
<mgrwt>
<rscale>  0 0.25657068E+04</rscale>
<asrwt>0</asrwt>
<pdfrwt beam="1">  1        1 0.17698288E+00 0.25657068E+04</pdfrwt>
<pdfrwt beam="2">  1       -2 0.22008786E+00 0.25657068E+04</pdfrwt>
<totfact> 0.88929473E-01</totfact>
</mgrwt>
</event>
<event>
12    4  0.4207946E-008  0.1900362E+04  0.7818608E-02  0.8654676E-01
         -2   -1    0    0    0  501 -0.00000000000E+00  0.00000000000E+00  0.23135342376E+04  0.23135342376E+04  0.00000000000E+00 0.  1.
          1   -1    0    0  501    0  0.00000000000E+00 -0.00000000000E+00 -0.39024464528E+03  0.39024464528E+03  0.00000000000E+00 0. -1.
        -24    2    1    2    0    0  0.98336596821E+02  0.21002763926E+03  0.17135755444E+04  0.17310250752E+04  0.79529674346E+02 0.  0.
        254    2    1    2    0    0 -0.98336596821E+02 -0.21002763926E+03  0.20971404794E+03  0.97275380770E+03  0.92113424264E+03 0.  0.
         23    2    4    4    0    0 -0.31234287542E+03 -0.39917233579E+03 -0.11793944810E+03  0.52860862417E+03  0.92847932898E+02 0.  0.
         23    2    4    4    0    0  0.21400627860E+03  0.18914469653E+03  0.32765349604E+03  0.44414518353E+03  0.91289249555E+02 0.  0.
          1    1    3    3  502    0  0.76958929299E+02  0.72831564406E+02  0.78826583419E+03  0.79535535387E+03  0.00000000000E+00 0. -1.
         -2    1    3    3    0  502  0.21377667522E+02  0.13719607486E+03  0.92530971017E+03  0.93566972130E+03  0.00000000000E+00 0.  1.
         11    1    5    5    0    0 -0.16816341200E+03 -0.16323807108E+03 -0.88620385421E+02  0.25055772528E+03  0.00000000000E+00 0. -1.
        -11    1    5    5    0    0 -0.14417946342E+03 -0.23593426471E+03 -0.29319062676E+02  0.27805089889E+03  0.00000000000E+00 0.  1.
          2    1    6    6  503    0  0.20114602422E+03  0.14480398058E+03  0.30412862241E+03  0.39232911544E+03  0.00000000000E+00 0. -1.
         -2    1    6    6    0  503  0.12860254373E+02  0.44340715948E+02  0.23524873633E+02  0.51816068095E+02  0.00000000000E+00 0.  1.
<mgrwt>
<rscale>  0 0.19003624E+04</rscale>
<asrwt>0</asrwt>
<pdfrwt beam="1">  1        1 0.60037639E-01 0.19003624E+04</pdfrwt>
<pdfrwt beam="2">  1       -2 0.35592834E+00 0.19003624E+04</pdfrwt>
<totfact> 0.72648296E-01</totfact>
</mgrwt>
</event>
<event>
12    4  0.4207946E-008  0.2021792E+04  0.7818608E-02  0.8596499E-01
         -2   -1    0    0    0  501 -0.00000000000E+00  0.00000000000E+00  0.61186721041E+03  0.61186721041E+03  0.00000000000E+00 0.  1.
          1   -1    0    0  501    0  0.00000000000E+00 -0.00000000000E+00 -0.16701515385E+04  0.16701515385E+04  0.00000000000E+00 0. -1.
        -24    2    1    2    0    0  0.10307630296E+03 -0.11861593195E+03 -0.12296162452E+04  0.12421720130E+04  0.79628737418E+02 0.  0.
        254    2    1    2    0    0 -0.10307630296E+03  0.11861593195E+03  0.17133191709E+03  0.10398467359E+04  0.10135246148E+04 0.  0.
         23    2    4    4    0    0  0.35882119439E+03  0.32900765628E+03  0.36118818537E+01  0.49758741399E+03  0.10286642521E+03 0.  0.
         23    2    4    4    0    0 -0.46189749735E+03 -0.21039172433E+03  0.16772003524E+03  0.54225932195E+03  0.91110846217E+02 0.  0.
          1    1    3    3  502    0  0.87099669433E+02 -0.49329667742E+02 -0.56872855718E+03  0.57747029386E+03  0.00000000000E+00 0. -1.
         -2    1    3    3    0  502  0.15976633525E+02 -0.69286264212E+02 -0.66088768801E+03  0.66470171911E+03  0.00000000000E+00 0.  1.
         11    1    5    5    0    0  0.27207598462E+03  0.23503510866E+03  0.46873254794E+02  0.36257957157E+03  0.00000000000E+00 0. -1.
        -11    1    5    5    0    0  0.86745209777E+02  0.93972547623E+02 -0.43261372940E+02  0.13500784242E+03  0.00000000000E+00 0.  1.
          3    1    6    6  503    0 -0.16373404696E+03 -0.35394452072E+02  0.79681394062E+02  0.18550129361E+03  0.00000000000E+00 0.  1.
         -3    1    6    6    0  503 -0.29816345039E+03 -0.17499727225E+03  0.88038641177E+02  0.35675802834E+03  0.00000000000E+00 0. -1.
<mgrwt>
<rscale>  0 0.20217922E+04</rscale>
<asrwt>0</asrwt>
<pdfrwt beam="1">  1        1 0.25694639E+00 0.20217922E+04</pdfrwt>
<pdfrwt beam="2">  1       -2 0.94133418E-01 0.20217922E+04</pdfrwt>
<totfact> 0.38663459E+00</totfact>
</mgrwt>
</event>
<event>
12    4  0.4207946E-008  0.1309399E+04  0.7818608E-02  0.9022144E-01
          1   -1    0    0  501    0  0.00000000000E+00  0.00000000000E+00  0.92665985717E+03  0.92665985717E+03  0.00000000000E+00 0. -1.
         -4   -1    0    0    0  501 -0.00000000000E+00 -0.00000000000E+00 -0.46255557272E+03  0.46255557272E+03  0.00000000000E+00 0.  1.
        -24    2    1    2    0    0  0.47710777668E+02 -0.14303065562E+02  0.47998493172E+03  0.48925041330E+03  0.80619701384E+02 0.  0.
        254    2    1    2    0    0 -0.47710777668E+02  0.14303065562E+02 -0.15880647272E+02  0.89996501659E+03  0.89844529057E+03 0.  0.
         23    2    4    4    0    0 -0.36117577653E+03 -0.24554521566E+03  0.12020035538E+03  0.46149895113E+03  0.88276621904E+02 0.  0.
         23    2    4    4    0    0  0.31346499886E+03  0.25984828122E+03 -0.13608100265E+03  0.43846606546E+03  0.89179686675E+02 0.  0.
          3    1    3    3  502    0  0.38920008440E+01  0.26154464730E+02  0.25943394322E+03  0.26077801784E+03  0.00000000000E+00 0. -1.
         -4    1    3    3    0  502  0.43818776824E+02 -0.40457530292E+02  0.22055098850E+03  0.22847239546E+03  0.00000000000E+00 0.  1.
         11    1    5    5    0    0 -0.93351645742E+02 -0.10945137240E+03  0.55518523356E+02  0.15419610604E+03  0.00000000000E+00 0.  1.
        -11    1    5    5    0    0 -0.26782413079E+03 -0.13609384327E+03  0.64681832021E+02  0.30730284509E+03  0.00000000000E+00 0. -1.
          2    1    6    6  503    0  0.76671412852E+02  0.81320643340E+02 -0.77966673361E+02  0.13627308882E+03  0.00000000000E+00 0.  1.
         -2    1    6    6    0  503  0.23679358601E+03  0.17852763788E+03 -0.58114329288E+02  0.30219297664E+03  0.00000000000E+00 0. -1.
<mgrwt>
<rscale>  0 0.13093994E+04</rscale>
<asrwt>0</asrwt>
<pdfrwt beam="1">  1        1 0.14256305E+00 0.13093994E+04</pdfrwt>
<pdfrwt beam="2">  1       -4 0.71162396E-01 0.13093994E+04</pdfrwt>
<totfact> 0.14918869E+01</totfact>
</mgrwt>
</event>
<event>
12    4  0.4207946E-008  0.1956003E+04  0.7818608E-02  0.8627472E-01
          1   -1    0    0  501    0  0.00000000000E+00  0.00000000000E+00  0.45045160200E+04  0.45045160200E+04  0.00000000000E+00 0. -1.
         -2   -1    0    0    0  501 -0.00000000000E+00 -0.00000000000E+00 -0.21233944937E+03  0.21233944937E+03  0.00000000000E+00 0.  1.
        -24    2    1    2    0    0  0.31672158858E+03  0.47804338001E+03  0.45897744265E+03  0.73873336442E+03  0.78921815735E+02 0.  0.
        254    2    1    2    0    0 -0.31672158858E+03 -0.47804338001E+03  0.38331991280E+04  0.39781221050E+04  0.89621531419E+03 0.  0.
         23    2    4    4    0    0 -0.54768092740E+03 -0.35125471250E+02  0.20866480049E+04  0.21592284463E+04  0.83542742505E+02 0.  0.
         23    2    4    4    0    0  0.23095933883E+03 -0.44291790876E+03  0.17465511231E+04  0.18188936587E+04  0.91732360851E+02 0.  0.
          1    1    3    3  502    0  0.18914446263E+03  0.26880145340E+03  0.31076904037E+03  0.45233532423E+03  0.00000000000E+00 0. -1.
         -2    1    3    3    0  502  0.12757712595E+03  0.20924192662E+03  0.14820840228E+03  0.28639804019E+03  0.00000000000E+00 0.  1.
         11    1    5    5    0    0 -0.43393570312E+03 -0.25272863937E+02  0.15065755814E+04  0.15680270708E+04  0.00000000000E+00 0. -1.
        -11    1    5    5    0    0 -0.11374522428E+03 -0.98526073132E+01  0.58007242351E+03  0.59120137553E+03  0.00000000000E+00 0.  1.
          4    1    6    6  503    0  0.13465785572E+03 -0.22100116278E+03  0.10540505000E+04  0.10853555678E+04  0.00000000000E+00 0. -1.
         -4    1    6    6    0  503  0.96301483105E+02 -0.22191674598E+03  0.69250062306E+03  0.73353809085E+03  0.00000000000E+00 0.  1.
<mgrwt>
<rscale>  0 0.19560025E+04</rscale>
<asrwt>0</asrwt>
<pdfrwt beam="1">  1        1 0.69300240E+00 0.19560025E+04</pdfrwt>
<pdfrwt beam="2">  1       -2 0.32667611E-01 0.19560025E+04</pdfrwt>
<totfact> 0.23116689E-01</totfact>
</mgrwt>
</event>
<event>
12    4  0.4207946E-008  0.1733095E+04  0.7818608E-02  0.8742711E-01
          1   -1    0    0  501    0  0.00000000000E+00  0.00000000000E+00  0.20878430847E+04  0.20878430847E+04  0.00000000000E+00 0. -1.
         -2   -1    0    0    0  501 -0.00000000000E+00 -0.00000000000E+00 -0.35965547058E+03  0.35965547058E+03  0.00000000000E+00 0.  1.
        -24    2    1    2    0    0 -0.45134500228E+03  0.24904076930E+03  0.10615765786E+04  0.11827249829E+04  0.78485266637E+02 0.  0.
        254    2    1    2    0    0  0.45134500228E+03 -0.24904076930E+03  0.66661103547E+03  0.12647735723E+04  0.94315868273E+03 0.  0.
         23    2    4    4    0    0 -0.32299038562E+02 -0.23386118563E+03 -0.16175723877E+03  0.30098829219E+03  0.93243046414E+02 0.  0.
         23    2    4    4    0    0  0.48364404084E+03 -0.15179583674E+02  0.82836827425E+03  0.96378528015E+03  0.92445067138E+02 0.  0.
          3    1    3    3  502    0 -0.37460771453E+03  0.23819890595E+03  0.90631300952E+03  0.10091941983E+04  0.00000000000E+00 0. -1.
         -4    1    3    3    0  502 -0.76737287757E+02  0.10841863349E+02  0.15526356909E+03  0.17353078464E+03  0.00000000000E+00 0.  1.
         11    1    5    5    0    0 -0.16728844970E+02 -0.14787544006E+03 -0.45632217399E+02  0.15565763487E+03  0.00000000000E+00 0.  1.
        -11    1    5    5    0    0 -0.15570193592E+02 -0.85985745569E+02 -0.11612502138E+03  0.14533065733E+03  0.00000000000E+00 0. -1.
          3    1    6    6  503    0  0.16229105548E+03  0.27623774299E+01  0.36651573478E+03  0.40084885089E+03  0.00000000000E+00 0. -1.
         -3    1    6    6    0  503  0.32135298536E+03 -0.17941961104E+02  0.46185253947E+03  0.56293642926E+03  0.00000000000E+00 0.  1.
<mgrwt>
<rscale>  0 0.17330946E+04</rscale>
<asrwt>0</asrwt>
<pdfrwt beam="1">  1        1 0.32120662E+00 0.17330946E+04</pdfrwt>
<pdfrwt beam="2">  1       -2 0.55331612E-01 0.17330946E+04</pdfrwt>
<totfact> 0.66474320E+00</totfact>
</mgrwt>
</event>
<event>
12    4  0.4207946E-008  0.1450608E+04  0.7818608E-02  0.8917979E-01
         -2   -1    0    0    0  501 -0.00000000000E+00  0.00000000000E+00  0.14952256373E+04  0.14952256373E+04  0.00000000000E+00 0.  1.
          1   -1    0    0  501    0  0.00000000000E+00 -0.00000000000E+00 -0.35183067556E+03  0.35183067556E+03  0.00000000000E+00 0. -1.
        -24    2    1    2    0    0 -0.24119882266E+03 -0.10618005461E+03 -0.91467210537E+02  0.29032207405E+03  0.80433699564E+02 0.  0.
        254    2    1    2    0    0  0.24119882266E+03  0.10618005461E+03  0.12348621723E+04  0.15567342389E+04  0.91054150358E+03 0.  0.
         23    2    4    4    0    0  0.37358395095E+03  0.26440657526E+03  0.21771578241E+03  0.51484786998E+03  0.90511667025E+02 0.  0.
         23    2    4    4    0    0 -0.13238512829E+03 -0.15822652065E+03  0.10171463899E+04  0.10418863689E+04  0.91536730840E+02 0.  0.
          3    1    3    3  502    0 -0.16009404907E+03 -0.96848016373E+02 -0.92392762394E+02  0.20867694018E+03  0.00000000000E+00 0. -1.
         -4    1    3    3    0  502 -0.81104773594E+02 -0.93320382413E+01  0.92555185612E+00  0.81645133864E+02  0.00000000000E+00 0.  1.
         11    1    5    5    0    0  0.79379122387E+02  0.31844876314E+02  0.74448358358E+02  0.11339179547E+03  0.00000000000E+00 0. -1.
        -11    1    5    5    0    0  0.29420482857E+03  0.23256169895E+03  0.14326742405E+03  0.40145607451E+03  0.00000000000E+00 0.  1.
          3    1    6    6  503    0 -0.52097309290E+02 -0.56008505828E+01  0.20087260094E+03  0.20759407740E+03  0.00000000000E+00 0. -1.
         -3    1    6    6    0  503 -0.80287819002E+02 -0.15262567006E+03  0.81627378898E+03  0.83429229148E+03  0.00000000000E+00 0.  1.
<mgrwt>
<rscale>  0 0.14506085E+04</rscale>
<asrwt>0</asrwt>
<pdfrwt beam="1">  1        1 0.54127797E-01 0.14506085E+04</pdfrwt>
<pdfrwt beam="2">  1       -2 0.23003471E+00 0.14506085E+04</pdfrwt>
<totfact> 0.51566768E+00</totfact>
</mgrwt>
</event>
<event>
12    4  0.4207946E-008  0.1948952E+04  0.7818608E-02  0.8630866E-01
         -2   -1    0    0    0  501 -0.00000000000E+00  0.00000000000E+00  0.27881720113E+03  0.27881720113E+03  0.00000000000E+00 0.  1.
          1   -1    0    0  501    0  0.00000000000E+00 -0.00000000000E+00 -0.34058273215E+04  0.34058273215E+04  0.00000000000E+00 0. -1.
        -24    2    1    2    0    0 -0.13512482242E+03 -0.51040566414E+03 -0.17061838591E+03  0.56081150415E+03  0.81401781066E+02 0.  0.
        254    2    1    2    0    0  0.13512482242E+03  0.51040566414E+03 -0.29563917345E+04  0.31238330185E+04  0.85983020424E+03 0.  0.
         23    2    4    4    0    0 -0.67244851137E+02  0.66653917983E+03 -0.15428870802E+04  0.16844794897E+04  0.90411617678E+02 0.  0.
         23    2    4    4    0    0  0.20236967356E+03 -0.15613351569E+03 -0.14135046542E+04  0.14393535288E+04  0.91717031069E+02 0.  0.
          1    1    3    3  502    0 -0.28040202393E+02 -0.31244823705E+02 -0.33317022902E+01  0.42114038024E+02  0.00000000000E+00 0. -1.
         -2    1    3    3    0  502 -0.10708462003E+03 -0.47916084043E+03 -0.16728668362E+03  0.51869746613E+03  0.00000000000E+00 0.  1.
         11    1    5    5    0    0 -0.52886552690E+02  0.63904882298E+03 -0.14258512484E+04  0.15634040323E+04  0.00000000000E+00 0. -1.
        -11    1    5    5    0    0 -0.14358298447E+02  0.27490356846E+02 -0.11703583186E+03  0.12107545743E+03  0.00000000000E+00 0.  1.
          3    1    6    6  503    0  0.73794739122E+02 -0.11477838690E+03 -0.72283543379E+03  0.73560234228E+03  0.00000000000E+00 0. -1.
         -3    1    6    6    0  503  0.12857493444E+03 -0.41355128787E+02 -0.69066922044E+03  0.70375118651E+03  0.00000000000E+00 0.  1.
<mgrwt>
<rscale>  0 0.19489518E+04</rscale>
<asrwt>0</asrwt>
<pdfrwt beam="1">  1        1 0.52397343E+00 0.19489518E+04</pdfrwt>
<pdfrwt beam="2">  1       -2 0.42894954E-01 0.19489518E+04</pdfrwt>
<totfact> 0.12542324E+00</totfact>
</mgrwt>
</event>
<event>
12    4  0.4207946E-008  0.1114234E+04  0.7818608E-02  0.9191429E-01
         -2   -1    0    0    0  501 -0.00000000000E+00  0.00000000000E+00  0.77434978989E+03  0.77434978989E+03  0.00000000000E+00 0.  1.
          1   -1    0    0  501    0  0.00000000000E+00 -0.00000000000E+00 -0.40082555033E+03  0.40082555033E+03  0.00000000000E+00 0. -1.
        -24    2    1    2    0    0  0.15180653130E+02 -0.27330495585E+02  0.25658873541E+03  0.27050164021E+03  0.79724212129E+02 0.  0.
        254    2    1    2    0    0 -0.15180653130E+02  0.27330495585E+02  0.11693550415E+03  0.90467370001E+03  0.89653956028E+03 0.  0.
         23    2    4    4    0    0  0.10450652726E+03 -0.40700343448E+03 -0.35837818922E+01  0.42982529647E+03  0.90352266560E+02 0.  0.
         23    2    4    4    0    0 -0.11968718039E+03  0.43433393007E+03  0.12051928604E+03  0.47484840354E+03  0.89359521484E+02 0.  0.
          1    1    3    3  502    0  0.42030060416E+02 -0.83883393785E+01  0.78794237951E+02  0.89696277238E+02  0.00000000000E+00 0. -1.
         -2    1    3    3    0  502 -0.26849407286E+02 -0.18942156207E+02  0.17779449746E+03  0.18080536297E+03  0.00000000000E+00 0.  1.
         11    1    5    5    0    0  0.65554562180E+02 -0.32852835511E+03  0.29215585207E+02  0.33627642075E+03  0.00000000000E+00 0.  1.
        -11    1    5    5    0    0  0.38951965083E+02 -0.78475079369E+02 -0.32799367099E+02  0.93548875717E+02  0.00000000000E+00 0. -1.
          1    1    6    6  503    0 -0.38711991303E+02  0.46611179568E+02  0.33791133759E+02  0.69376228293E+02  0.00000000000E+00 0. -1.
         -1    1    6    6    0  503 -0.80975189088E+02  0.38772275050E+03  0.86728152284E+02  0.40547217525E+03  0.00000000000E+00 0.  1.
<mgrwt>
<rscale>  0 0.11142337E+04</rscale>
<asrwt>0</asrwt>
<pdfrwt beam="1">  1        1 0.61665469E-01 0.11142337E+04</pdfrwt>
<pdfrwt beam="2">  1       -2 0.11913074E+00 0.11142337E+04</pdfrwt>
<totfact> 0.28126601E+01</totfact>
</mgrwt>
</event>
<event>
12    4  0.4207946E-008  0.1364958E+04  0.7818608E-02  0.8979581E-01
          1   -1    0    0  501    0  0.00000000000E+00  0.00000000000E+00  0.21373220485E+04  0.21373220485E+04  0.00000000000E+00 0. -1.
         -2   -1    0    0    0  501 -0.00000000000E+00 -0.00000000000E+00 -0.21792591909E+03  0.21792591909E+03  0.00000000000E+00 0.  1.
        -24    2    1    2    0    0  0.14738674021E+03  0.15850801348E+03  0.86090130604E+01  0.23022161487E+03  0.77975863724E+02 0.  0.
        254    2    1    2    0    0 -0.14738674021E+03 -0.15850801348E+03  0.19107871163E+04  0.21250263527E+04  0.90431297359E+03 0.  0.
         23    2    4    4    0    0  0.88485287447E+02 -0.55861962171E+02 -0.47931267392E+02  0.14722683817E+03  0.91804850472E+02 0.  0.
         23    2    4    4    0    0 -0.23587202765E+03 -0.10264605130E+03  0.19587183837E+04  0.19777995145E+04  0.94558911225E+02 0.  0.
          1    1    3    3  502    0  0.62602097897E+01  0.15855534876E+01 -0.16467815359E+02  0.17688785972E+02  0.00000000000E+00 0. -1.
         -2    1    3    3    0  502  0.14112653042E+03  0.15692245999E+03  0.25076828420E+02  0.21253282890E+03  0.00000000000E+00 0.  1.
         11    1    5    5    0    0  0.96343253231E+02 -0.51513121810E+02 -0.65581700136E+02  0.12742285334E+03  0.00000000000E+00 0. -1.
        -11    1    5    5    0    0 -0.78579657844E+01 -0.43488403618E+01  0.17650432743E+02  0.19803984821E+02  0.00000000000E+00 0.  1.
          3    1    6    6  503    0 -0.17983586765E+03 -0.33191871205E+02  0.14223376365E+04  0.14340456728E+04  0.00000000000E+00 0. -1.
         -3    1    6    6    0  503 -0.56036160001E+02 -0.69454180100E+02  0.53638074722E+03  0.54375384169E+03  0.00000000000E+00 0.  1.
<mgrwt>
<rscale>  0 0.13649584E+04</rscale>
<asrwt>0</asrwt>
<pdfrwt beam="1">  1        1 0.32881876E+00 0.13649584E+04</pdfrwt>
<pdfrwt beam="2">  1       -2 0.33527066E-01 0.13649584E+04</pdfrwt>
<totfact> 0.17186144E+01</totfact>
</mgrwt>
</event>
<event>
12    4  0.4207946E-008  0.1883797E+04  0.7818608E-02  0.8662964E-01
         -2   -1    0    0    0  501 -0.00000000000E+00  0.00000000000E+00  0.29476649196E+03  0.29476649196E+03  0.00000000000E+00 0.  1.
          1   -1    0    0  501    0  0.00000000000E+00 -0.00000000000E+00 -0.30097476549E+04  0.30097476549E+04  0.00000000000E+00 0. -1.
        -24    2    1    2    0    0 -0.85775649092E+01 -0.31211628774E+03 -0.21877963932E+04  0.22113765153E+04  0.79011915272E+02 0.  0.
        254    2    1    2    0    0  0.85775649092E+01  0.31211628774E+03 -0.52718476975E+03  0.10931376316E+04  0.90528224790E+03 0.  0.
         23    2    4    4    0    0  0.34318712292E+03  0.11973110644E+02  0.46888120966E+02  0.35835710764E+03  0.91107431059E+02 0.  0.
         23    2    4    4    0    0 -0.33460955801E+03  0.30014317709E+03 -0.57407289072E+03  0.73478052391E+03  0.91067290485E+02 0.  0.
          1    1    3    3  502    0 -0.29960806335E+02 -0.28897769828E+03 -0.19627424764E+04  0.19841279668E+04  0.00000000000E+00 0. -1.
         -2    1    3    3    0  502  0.21383241426E+02 -0.23138589463E+02 -0.22505391672E+03  0.22724854844E+03  0.00000000000E+00 0.  1.
         11    1    5    5    0    0  0.77719535574E+02 -0.33091070574E+02 -0.29310547664E+01  0.84521809278E+02  0.00000000000E+00 0. -1.
        -11    1    5    5    0    0  0.26546758734E+03  0.45064181218E+02  0.49819175732E+02  0.27383529836E+03  0.00000000000E+00 0.  1.
          1    1    6    6  503    0 -0.32519003768E+03  0.29689926100E+03 -0.52740775304E+03  0.68706380326E+03  0.00000000000E+00 0. -1.
         -1    1    6    6    0  503 -0.94195203284E+01  0.32439160930E+01 -0.46665137679E+02  0.47716720649E+02  0.00000000000E+00 0.  1.
<mgrwt>
<rscale>  0 0.18837970E+04</rscale>
<asrwt>0</asrwt>
<pdfrwt beam="1">  1        1 0.46303809E+00 0.18837970E+04</pdfrwt>
<pdfrwt beam="2">  1       -2 0.45348693E-01 0.18837970E+04</pdfrwt>
<totfact> 0.22374506E+00</totfact>
</mgrwt>
</event>
<event>
12    4  0.4207946E-008  0.2527629E+04  0.7818608E-02  0.8393208E-01
          1   -1    0    0  501    0  0.00000000000E+00  0.00000000000E+00  0.10344342254E+04  0.10344342254E+04  0.00000000000E+00 0. -1.
         -2   -1    0    0    0  501 -0.00000000000E+00 -0.00000000000E+00 -0.15440583968E+04  0.15440583968E+04  0.00000000000E+00 0.  1.
        -24    2    1    2    0    0  0.81332506024E+03  0.62152013055E+03  0.18933426019E+03  0.10440484011E+04  0.80029216922E+02 0.  0.
        254    2    1    2    0    0 -0.81332506024E+03 -0.62152013055E+03 -0.69895843161E+03  0.15344442210E+04  0.90453924845E+03 0.  0.
         23    2    4    4    0    0 -0.10537834278E+03  0.68436643101E+02  0.15901458949E+03  0.22231255132E+03  0.91373199348E+02 0.  0.
         23    2    4    4    0    0 -0.70794671746E+03 -0.68995677365E+03 -0.85797302110E+03  0.13121316697E+04  0.91339528047E+02 0.  0.
          1    1    3    3  502    0  0.53702840691E+03  0.41202572570E+03  0.16351971131E+03  0.69635005884E+03  0.00000000000E+00 0. -1.
         -2    1    3    3    0  502  0.27629665333E+03  0.20949440485E+03  0.25814548879E+02  0.34769834230E+03  0.00000000000E+00 0.  1.
         11    1    5    5    0    0  0.10841014669E+02  0.20588470427E+02  0.53018852800E+02  0.57900012658E+02  0.00000000000E+00 0. -1.
        -11    1    5    5    0    0 -0.11621935745E+03  0.47848172674E+02  0.10599573669E+03  0.16441253867E+03  0.00000000000E+00 0.  1.
          3    1    6    6  503    0 -0.36056355617E+03 -0.30960402255E+03 -0.36627668816E+03  0.60001611737E+03  0.00000000000E+00 0. -1.
         -3    1    6    6    0  503 -0.34738316129E+03 -0.38035275110E+03 -0.49169633294E+03  0.71211555231E+03  0.00000000000E+00 0.  1.
<mgrwt>
<rscale>  0 0.25276288E+04</rscale>
<asrwt>0</asrwt>
<pdfrwt beam="1">  1        1 0.15914373E+00 0.25276288E+04</pdfrwt>
<pdfrwt beam="2">  1       -2 0.23754745E+00 0.25276288E+04</pdfrwt>
<totfact> 0.84838862E-01</totfact>
</mgrwt>
</event>
<event>
12    4  0.4207946E-008  0.1125444E+04  0.7818608E-02  0.9180742E-01
          1   -1    0    0  501    0  0.00000000000E+00  0.00000000000E+00  0.19602428703E+04  0.19602428703E+04  0.00000000000E+00 0. -1.
         -2   -1    0    0    0  501 -0.00000000000E+00 -0.00000000000E+00 -0.16153909814E+03  0.16153909814E+03  0.00000000000E+00 0.  1.
        -24    2    1    2    0    0  0.67168218553E+01  0.10042450330E+03  0.46870298625E+02  0.13704373303E+03  0.80336562717E+02 0.  0.
        254    2    1    2    0    0 -0.67168218553E+01 -0.10042450330E+03  0.17518334736E+04  0.19847382355E+04  0.92743471339E+03 0.  0.
         23    2    4    4    0    0 -0.35992350168E+03 -0.32770679455E+03  0.80185534224E+03  0.94182706749E+03  0.84436751017E+02 0.  0.
         23    2    4    4    0    0  0.35320667982E+03  0.22728229124E+03  0.94997813133E+03  0.10429111680E+04  0.93771294603E+02 0.  0.
          1    1    3    3  502    0 -0.88761273462E+01  0.39236802787E+02  0.60300797271E+02  0.72487919553E+02  0.00000000000E+00 0. -1.
         -2    1    3    3    0  502  0.15592949202E+02  0.61187700517E+02 -0.13430498647E+02  0.64555813474E+02  0.00000000000E+00 0.  1.
         11    1    5    5    0    0 -0.13743557762E+01  0.37738789817E+01  0.17021133228E+02  0.17488567486E+02  0.00000000000E+00 0. -1.
        -11    1    5    5    0    0 -0.35854914590E+03 -0.33148067353E+03  0.78483420901E+03  0.92433850000E+03  0.00000000000E+00 0.  1.
          4    1    6    6  503    0  0.16329950606E+03  0.15650339610E+03  0.45740951054E+03  0.51027786744E+03  0.00000000000E+00 0. -1.
         -4    1    6    6    0  503  0.18990717376E+03  0.70778895139E+02  0.49256862080E+03  0.53263330053E+03  0.00000000000E+00 0.  1.
<mgrwt>
<rscale>  0 0.11254437E+04</rscale>
<asrwt>0</asrwt>
<pdfrwt beam="1">  1        1 0.30157581E+00 0.11254437E+04</pdfrwt>
<pdfrwt beam="2">  1       -2 0.24852170E-01 0.11254437E+04</pdfrwt>
<totfact> 0.40249081E+01</totfact>
</mgrwt>
</event>
<event>
12    4  0.4207946E-008  0.1315773E+04  0.7818608E-02  0.9017150E-01
          1   -1    0    0  501    0  0.00000000000E+00  0.00000000000E+00  0.12050412814E+04  0.12050412814E+04  0.00000000000E+00 0. -1.
         -2   -1    0    0    0  501 -0.00000000000E+00 -0.00000000000E+00 -0.35916989182E+03  0.35916989182E+03  0.00000000000E+00 0.  1.
        -24    2    1    2    0    0  0.13916794592E+03  0.19886938594E+03 -0.61304657493E+02  0.26126955296E+03  0.74744688356E+02 0.  0.
        254    2    1    2    0    0 -0.13916794592E+03 -0.19886938594E+03  0.90717604708E+03  0.13029416203E+04  0.90320082796E+03 0.  0.
         23    2    4    4    0    0 -0.42183679014E+03  0.10907893477E+01  0.13589637887E+03  0.45272866964E+03  0.92455152288E+02 0.  0.
         23    2    4    4    0    0  0.28266884422E+03 -0.19996017529E+03  0.77127966821E+03  0.85021295064E+03  0.90022150833E+02 0.  0.
          1    1    3    3  502    0  0.18493910242E+02  0.72997509446E+01  0.12079857904E+02  0.23264437386E+02  0.00000000000E+00 0. -1.
         -2    1    3    3    0  502  0.12067403568E+03  0.19156963499E+03 -0.73384515397E+02  0.23800511557E+03  0.00000000000E+00 0.  1.
         11    1    5    5    0    0 -0.70821202162E+02  0.17740606793E+02  0.56862903281E+02  0.92540594198E+02  0.00000000000E+00 0. -1.
        -11    1    5    5    0    0 -0.35101558798E+03 -0.16649817445E+02  0.79033475585E+02  0.36018807544E+03  0.00000000000E+00 0.  1.
          3    1    6    6  503    0  0.46500177890E+01  0.85694583056E+01  0.14806071092E+02  0.17727888263E+02  0.00000000000E+00 0. -1.
         -3    1    6    6    0  503  0.27801882643E+03 -0.20852963359E+03  0.75647359712E+03  0.83248506237E+03  0.00000000000E+00 0.  1.
<mgrwt>
<rscale>  0 0.13157728E+04</rscale>
<asrwt>0</asrwt>
<pdfrwt beam="1">  1        1 0.18539096E+00 0.13157728E+04</pdfrwt>
<pdfrwt beam="2">  1       -2 0.55256907E-01 0.13157728E+04</pdfrwt>
<totfact> 0.28076810E+01</totfact>
</mgrwt>
</event>
<event>
12    4  0.4207946E-008  0.1870531E+04  0.7818608E-02  0.8669666E-01
         -2   -1    0    0    0  501 -0.00000000000E+00  0.00000000000E+00  0.80153839545E+03  0.80153839545E+03  0.00000000000E+00 0.  1.
          1   -1    0    0  501    0  0.00000000000E+00 -0.00000000000E+00 -0.10913034820E+04  0.10913034820E+04  0.00000000000E+00 0. -1.
        -24    2    1    2    0    0  0.48091715371E+02  0.46447523659E+03  0.43420330270E+03  0.64262928145E+03  0.79936392196E+02 0.  0.
        254    2    1    2    0    0 -0.48091715371E+02 -0.46447523659E+03 -0.72396838924E+03  0.12502125960E+04  0.90600841501E+03 0.  0.
         23    2    4    4    0    0  0.65567013878E+02 -0.28656017716E+03 -0.90607578146E+03  0.95684821266E+03  0.90384798864E+02 0.  0.
         23    2    4    4    0    0 -0.11365872925E+03 -0.17791505944E+03  0.18210739223E+03  0.29336438334E+03  0.91255049167E+02 0.  0.
          1    1    3    3  502    0 -0.19827810997E+02  0.54071280193E+02  0.58596320413E+02  0.82160660882E+02  0.00000000000E+00 0. -1.
         -2    1    3    3    0  502  0.67919526368E+02  0.41040395640E+03  0.37560698229E+03  0.56046862056E+03  0.00000000000E+00 0.  1.
         11    1    5    5    0    0  0.91939852042E+01  0.49553074998E+01 -0.37362640571E+02  0.38794991259E+02  0.00000000000E+00 0. -1.
        -11    1    5    5    0    0  0.56373028673E+02 -0.29151548466E+03 -0.86871314089E+03  0.91805322140E+03  0.00000000000E+00 0.  1.
          1    1    6    6  503    0  0.49672389147E+01 -0.55907698345E+02  0.23873224264E+02  0.60994057361E+02  0.00000000000E+00 0. -1.
         -1    1    6    6    0  503 -0.11862596816E+03 -0.12200736109E+03  0.15823416796E+03  0.23237032597E+03  0.00000000000E+00 0.  1.
<mgrwt>
<rscale>  0 0.18705311E+04</rscale>
<asrwt>0</asrwt>
<pdfrwt beam="1">  1        1 0.16789284E+00 0.18705311E+04</pdfrwt>
<pdfrwt beam="2">  1       -2 0.12331360E+00 0.18705311E+04</pdfrwt>
<totfact> 0.52521841E+00</totfact>
</mgrwt>
</event>
<event>
12    4  0.4207946E-008  0.3296891E+04  0.7818608E-02  0.8163687E-01
         -2   -1    0    0    0  501 -0.00000000000E+00  0.00000000000E+00  0.24326771078E+04  0.24326771078E+04  0.00000000000E+00 0.  1.
          1   -1    0    0  501    0  0.00000000000E+00 -0.00000000000E+00 -0.11170295954E+04  0.11170295954E+04  0.00000000000E+00 0. -1.
        -24    2    1    2    0    0  0.14135517771E+04 -0.45403156558E+03  0.26221769175E+03  0.15097700301E+04  0.79838192346E+02 0.  0.
        254    2    1    2    0    0 -0.14135517771E+04  0.45403156558E+03  0.10534298207E+04  0.20399366731E+04  0.92051830730E+03 0.  0.
         23    2    4    4    0    0 -0.49977470302E+03  0.46747037114E+03  0.69147743563E+02  0.69395025597E+03  0.92099107775E+02 0.  0.
         23    2    4    4    0    0 -0.91377707407E+03 -0.13438805561E+02  0.98428207714E+03  0.13459864171E+04  0.87744430816E+02 0.  0.
          1    1    3    3  502    0  0.13765876423E+04 -0.43236796138E+03  0.26419780860E+03  0.14668797064E+04  0.00000000000E+00 0. -1.
         -2    1    3    3    0  502  0.36964134799E+02 -0.21663604192E+02 -0.19801168511E+01  0.42890323742E+02  0.00000000000E+00 0.  1.
         11    1    5    5    0    0 -0.22107949410E+00  0.81378650027E+01  0.97835906823E+01  0.12727622307E+02  0.00000000000E+00 0.  1.
        -11    1    5    5    0    0 -0.49955362353E+03  0.45933250613E+03  0.59364152881E+02  0.68122263367E+03  0.00000000000E+00 0. -1.
          3    1    6    6  503    0 -0.89277095619E+03 -0.17165742601E+02  0.97666657126E+03  0.13233337577E+04  0.00000000000E+00 0. -1.
         -3    1    6    6    0  503 -0.21006117878E+02  0.37269370401E+01  0.76155058731E+01  0.22652659396E+02  0.00000000000E+00 0.  1.
<mgrwt>
<rscale>  0 0.32968909E+04</rscale>
<asrwt>0</asrwt>
<pdfrwt beam="1">  1        1 0.17185071E+00 0.32968909E+04</pdfrwt>
<pdfrwt beam="2">  1       -2 0.37425802E+00 0.32968909E+04</pdfrwt>
<totfact> 0.97690120E-02</totfact>
</mgrwt>
</event>
<event>
12    4  0.4207946E-008  0.1053832E+04  0.7818608E-02  0.9251397E-01
         -4   -1    0    0    0  501 -0.00000000000E+00  0.00000000000E+00  0.10666137387E+04  0.10666137387E+04  0.00000000000E+00 0.  1.
          3   -1    0    0  501    0  0.00000000000E+00 -0.00000000000E+00 -0.26030062768E+03  0.26030062768E+03  0.00000000000E+00 0. -1.
        -24    2    1    2    0    0 -0.47045764118E+02  0.54279012619E+02 -0.21950377059E+02  0.10284863805E+03  0.70260288665E+02 0.  0.
        254    2    1    2    0    0  0.47045764118E+02 -0.54279012619E+02  0.82826348810E+03  0.12240657283E+04  0.89841915966E+03 0.  0.
         23    2    4    4    0    0  0.22694573388E+03 -0.35505755115E+03  0.73187317731E+03  0.84946269763E+03  0.91533033558E+02 0.  0.
         23    2    4    4    0    0 -0.17989996976E+03  0.30077853853E+03  0.96390310788E+02  0.37460303072E+03  0.90579303624E+02 0.  0.
          3    1    3    3  502    0 -0.30754443807E+02  0.58630203821E+02 -0.40633263943E+02  0.77681392577E+02  0.00000000000E+00 0. -1.
         -4    1    3    3    0  502 -0.16291320312E+02 -0.43511912022E+01  0.18682886884E+02  0.25167245473E+02  0.00000000000E+00 0.  1.
         11    1    5    5    0    0  0.19046686130E+02 -0.26815893942E+02  0.20102662744E+02  0.38548482069E+02  0.00000000000E+00 0. -1.
        -11    1    5    5    0    0  0.20789904775E+03 -0.32824165721E+03  0.71177051457E+03  0.81091421556E+03  0.00000000000E+00 0.  1.
          2    1    6    6  503    0 -0.51840716094E+02  0.15400194341E+03  0.13962354974E+02  0.16309201629E+03  0.00000000000E+00 0. -1.
         -2    1    6    6    0  503 -0.12805925367E+03  0.14677659512E+03  0.82427955813E+02  0.21151101443E+03  0.00000000000E+00 0.  1.
<mgrwt>
<rscale>  0 0.10538315E+04</rscale>
<asrwt>0</asrwt>
<pdfrwt beam="1">  1        3 0.40046251E-01 0.10538315E+04</pdfrwt>
<pdfrwt beam="2">  1       -4 0.16409442E+00 0.10538315E+04</pdfrwt>
<totfact> 0.32905198E+00</totfact>
</mgrwt>
</event>
<event>
12    4  0.4207946E-008  0.2216154E+04  0.7818608E-02  0.8511734E-01
          1   -1    0    0  501    0  0.00000000000E+00  0.00000000000E+00  0.20996008309E+04  0.20996008309E+04  0.00000000000E+00 0. -1.
         -2   -1    0    0    0  501 -0.00000000000E+00 -0.00000000000E+00 -0.58479458281E+03  0.58479458281E+03  0.00000000000E+00 0.  1.
        -24    2    1    2    0    0 -0.35537770522E+03  0.70621501393E+02  0.16772129776E+04  0.17178097245E+04  0.80908390217E+02 0.  0.
        254    2    1    2    0    0  0.35537770522E+03 -0.70621501393E+02 -0.16240672954E+03  0.96658568915E+03  0.88126683749E+03 0.  0.
         23    2    4    4    0    0  0.33586403037E+03  0.20534641088E+03  0.23883782659E+03  0.46947425455E+03  0.91601162178E+02 0.  0.
         23    2    4    4    0    0  0.19513674847E+02 -0.27596791228E+03 -0.40124455613E+03  0.49711143460E+03  0.97895416014E+02 0.  0.
          1    1    3    3  502    0 -0.27438388276E+03  0.43094658562E+02  0.14148065559E+04  0.14418117960E+04  0.00000000000E+00 0. -1.
         -2    1    3    3    0  502 -0.80993822459E+02  0.27526842831E+02  0.26240642177E+03  0.27599792850E+03  0.00000000000E+00 0.  1.
         11    1    5    5    0    0  0.45978988746E+02  0.34281852391E+01  0.63016203499E+01  0.46535258452E+02  0.00000000000E+00 0. -1.
        -11    1    5    5    0    0  0.28988504163E+03  0.20191822565E+03  0.23253620624E+03  0.42293899610E+03  0.00000000000E+00 0.  1.
          1    1    6    6  503    0  0.11673270581E+02 -0.66957270439E+01  0.43393172188E+00  0.13464260227E+02  0.00000000000E+00 0. -1.
         -1    1    6    6    0  503  0.78404042653E+01 -0.26927218523E+03 -0.40167848785E+03  0.48364717438E+03  0.00000000000E+00 0.  1.
<mgrwt>
<rscale>  0 0.22161545E+04</rscale>
<asrwt>0</asrwt>
<pdfrwt beam="1">  1        1 0.32301551E+00 0.22161545E+04</pdfrwt>
<pdfrwt beam="2">  1       -2 0.89968398E-01 0.22161545E+04</pdfrwt>
<totfact> 0.21570992E+00</totfact>
</mgrwt>
</event>
<event>
12    4  0.4207946E-008  0.1089404E+04  0.7818608E-02  0.9215582E-01
         -2   -1    0    0    0  501 -0.00000000000E+00  0.00000000000E+00  0.11174653782E+04  0.11174653782E+04  0.00000000000E+00 0.  1.
          1   -1    0    0  501    0  0.00000000000E+00 -0.00000000000E+00 -0.26551161536E+03  0.26551161536E+03  0.00000000000E+00 0. -1.
        -24    2    1    2    0    0 -0.58670948116E+02  0.37281032283E+02  0.31076620099E+03  0.32906387628E+03  0.82917112050E+02 0.  0.
        254    2    1    2    0    0  0.58670948116E+02 -0.37281032283E+02  0.54118756186E+03  0.10539131173E+04  0.90167440142E+03 0.  0.
         23    2    4    4    0    0 -0.80738289225E+02  0.40940943274E+03  0.23896551753E+03  0.48952275367E+03  0.91614697679E+02 0.  0.
         23    2    4    4    0    0  0.13940923734E+03 -0.44669046502E+03  0.30222204433E+03  0.56439036363E+03  0.90724922051E+02 0.  0.
          3    1    3    3  502    0 -0.24735047396E+02  0.44580911464E+02  0.74581773426E+02  0.90342244626E+02  0.00000000000E+00 0. -1.
         -4    1    3    3    0  502 -0.33935900720E+02 -0.72998791814E+01  0.23618442756E+03  0.23872163165E+03  0.00000000000E+00 0.  1.
         11    1    5    5    0    0 -0.27349374929E+02  0.32954485120E+03  0.17523739869E+03  0.37424048840E+03  0.00000000000E+00 0.  1.
        -11    1    5    5    0    0 -0.53388914296E+02  0.79864581537E+02  0.63728118840E+02  0.11528226527E+03  0.00000000000E+00 0. -1.
          2    1    6    6  503    0 -0.10755982675E+02 -0.66659145851E+02  0.33989405081E+02  0.75593733515E+02  0.00000000000E+00 0. -1.
         -2    1    6    6    0  503  0.15016522002E+03 -0.38003131917E+03  0.26823263925E+03  0.48879663011E+03  0.00000000000E+00 0.  1.
<mgrwt>
<rscale>  0 0.10894036E+04</rscale>
<asrwt>0</asrwt>
<pdfrwt beam="1">  1        1 0.40847941E-01 0.10894036E+04</pdfrwt>
<pdfrwt beam="2">  1       -2 0.17191775E+00 0.10894036E+04</pdfrwt>
<totfact> 0.18452573E+01</totfact>
</mgrwt>
</event>
<event>
12    4  0.4207946E-008  0.1163641E+04  0.7818608E-02  0.9145291E-01
         -2   -1    0    0    0  501 -0.00000000000E+00  0.00000000000E+00  0.17555767256E+03  0.17555767256E+03  0.00000000000E+00 0.  1.
          1   -1    0    0  501    0  0.00000000000E+00 -0.00000000000E+00 -0.19282273319E+04  0.19282273319E+04  0.00000000000E+00 0. -1.
        -24    2    1    2    0    0 -0.14223864741E+03  0.15968552945E+03 -0.24835034015E+03  0.33660755505E+03  0.76781856808E+02 0.  0.
        254    2    1    2    0    0  0.14223864741E+03 -0.15968552945E+03 -0.15043193192E+04  0.17671774494E+04  0.90233487267E+03 0.  0.
         23    2    4    4    0    0  0.27891514724E+03 -0.39534866558E+02 -0.15339721059E+04  0.15620540270E+04  0.87095904847E+02 0.  0.
         23    2    4    4    0    0 -0.13667649983E+03 -0.12015066289E+03  0.29652786720E+02  0.20512342236E+03  0.89887058251E+02 0.  0.
          1    1    3    3  502    0 -0.29897108996E+02  0.38960620277E+02 -0.11319508164E+03  0.12338919550E+03  0.00000000000E+00 0. -1.
         -2    1    3    3    0  502 -0.11234153841E+03  0.12072490917E+03 -0.13515525851E+03  0.21321835955E+03  0.00000000000E+00 0.  1.
         11    1    5    5    0    0  0.38711521797E+02 -0.28491098976E+02 -0.39933780301E+03  0.40222009591E+03  0.00000000000E+00 0. -1.
        -11    1    5    5    0    0  0.24020362545E+03 -0.11043767582E+02 -0.11346343029E+04  0.11598339311E+04  0.00000000000E+00 0.  1.
          1    1    6    6  503    0 -0.49064549251E+02 -0.61521857151E+02  0.55852341359E+02  0.96497424504E+02  0.00000000000E+00 0. -1.
         -1    1    6    6    0  503 -0.87611950582E+02 -0.58628805739E+02 -0.26199554639E+02  0.10862599786E+03  0.00000000000E+00 0.  1.
<mgrwt>
<rscale>  0 0.11636410E+04</rscale>
<asrwt>0</asrwt>
<pdfrwt beam="1">  1        1 0.29665035E+00 0.11636410E+04</pdfrwt>
<pdfrwt beam="2">  1       -2 0.27008873E-01 0.11636410E+04</pdfrwt>
<totfact> 0.36234972E+01</totfact>
</mgrwt>
</event>
<event>
12    4  0.4207946E-008  0.2179317E+04  0.7818608E-02  0.8527087E-01
          1   -1    0    0  501    0  0.00000000000E+00  0.00000000000E+00  0.27215243640E+04  0.27215243640E+04  0.00000000000E+00 0. -1.
         -2   -1    0    0    0  501 -0.00000000000E+00 -0.00000000000E+00 -0.43628317718E+03  0.43628317718E+03  0.00000000000E+00 0.  1.
        -24    2    1    2    0    0  0.65182992083E+03 -0.54276163173E+03  0.13911548787E+04  0.16312925900E+04  0.79568732138E+02 0.  0.
        254    2    1    2    0    0 -0.65182992083E+03  0.54276163173E+03  0.89408630808E+03  0.15265149511E+04  0.90076919084E+03 0.  0.
         23    2    4    4    0    0 -0.74266379099E+02  0.28417283161E+03  0.82816504360E+03  0.88338546072E+03  0.90790084637E+02 0.  0.
         23    2    4    4    0    0 -0.57756354173E+03  0.25858880012E+03  0.65921264473E+02  0.64312949041E+03  0.93926120158E+02 0.  0.
          3    1    3    3  502    0  0.39892807716E+03 -0.31301216905E+03  0.76090504614E+03  0.91438324458E+03  0.00000000000E+00 0. -1.
         -4    1    3    3    0  502  0.25290184367E+03 -0.22974946268E+03  0.63024983256E+03  0.71690934543E+03  0.00000000000E+00 0.  1.
         11    1    5    5    0    0 -0.21469010775E+02  0.17948686738E+03  0.60315770243E+03  0.62966313850E+03  0.00000000000E+00 0. -1.
        -11    1    5    5    0    0 -0.52797368325E+02  0.10468596423E+03  0.22500734118E+03  0.25372232222E+03  0.00000000000E+00 0.  1.
          2    1    6    6  503    0 -0.55836925718E+03  0.26548156145E+03  0.57070954414E+02  0.62089756053E+03  0.00000000000E+00 0. -1.
         -2    1    6    6    0  503 -0.19194284554E+02 -0.68927613347E+01  0.88503100583E+01  0.22231929887E+02  0.00000000000E+00 0.  1.
<mgrwt>
<rscale>  0 0.21793167E+04</rscale>
<asrwt>0</asrwt>
<pdfrwt beam="1">  1        1 0.41869604E+00 0.21793167E+04</pdfrwt>
<pdfrwt beam="2">  1       -2 0.67120491E-01 0.21793167E+04</pdfrwt>
<totfact> 0.15498173E+00</totfact>
</mgrwt>
</event>
<event>
12    4  0.4966795E-008  0.2230204E+04  0.7818608E-02  0.8505961E-01
          1   -1    0    0  501    0  0.00000000000E+00  0.00000000000E+00  0.10777035558E+04  0.10777035558E+04  0.00000000000E+00 0. -1.
         -2   -1    0    0    0  501 -0.00000000000E+00 -0.00000000000E+00 -0.11537983181E+04  0.11537983181E+04  0.00000000000E+00 0.  1.
        -24    2    1    2    0    0 -0.84662063382E+01  0.92009240517E+03  0.96710861584E+02  0.93020168493E+03  0.96335212663E+02 0.  0.
        254    2    1    2    0    0  0.84662063382E+01 -0.92009240517E+03 -0.17280562392E+03  0.13013001890E+04  0.90381341414E+03 0.  0.
         23    2    4    4    0    0 -0.59438792470E+02 -0.85274613837E+03  0.21972224778E+03  0.88735409750E+03  0.91708678046E+02 0.  0.
         23    2    4    4    0    0  0.67904998808E+02 -0.67346266806E+02 -0.39252787170E+03  0.41394609152E+03  0.90147812543E+02 0.  0.
          3    1    3    3  502    0  0.30594436906E+01  0.82690374349E+03  0.58994007566E+02  0.82901113028E+03  0.00000000000E+00 0. -1.
         -4    1    3    3    0  502 -0.11525650029E+02  0.93188661680E+02  0.37716854017E+02  0.10119055465E+03  0.00000000000E+00 0.  1.
         11    1    5    5    0    0 -0.44754948124E+02 -0.80047127348E+03  0.22528237093E+03  0.83277212472E+03  0.00000000000E+00 0. -1.
        -11    1    5    5    0    0 -0.14683844346E+02 -0.52274864883E+02 -0.55601231494E+01  0.54581972782E+02  0.00000000000E+00 0.  1.
          2    1    6    6  503    0  0.70969707763E+02 -0.84748609615E+02 -0.36376154054E+03  0.38018611841E+03  0.00000000000E+00 0. -1.
         -2    1    6    6    0  503 -0.30647089544E+01  0.17402342809E+02 -0.28766331154E+02  0.33759973109E+02  0.00000000000E+00 0.  1.
<mgrwt>
<rscale>  0 0.22302041E+04</rscale>
<asrwt>0</asrwt>
<pdfrwt beam="1">  1        1 0.16580055E+00 0.22302041E+04</pdfrwt>
<pdfrwt beam="2">  1       -2 0.17750743E+00 0.22302041E+04</pdfrwt>
<totfact> 0.19834050E+00</totfact>
</mgrwt>
</event>
<event>
12    4  0.4207946E-008  0.1209859E+04  0.7818608E-02  0.9104270E-01
          1   -1    0    0  501    0  0.00000000000E+00  0.00000000000E+00  0.24529178135E+04  0.24529178135E+04  0.00000000000E+00 0. -1.
         -2   -1    0    0    0  501 -0.00000000000E+00 -0.00000000000E+00 -0.14918559169E+03  0.14918559169E+03  0.00000000000E+00 0.  1.
        -24    2    1    2    0    0  0.12589689292E+03  0.23701439147E+03  0.47506024439E+03  0.55169674222E+03  0.81616237134E+02 0.  0.
        254    2    1    2    0    0 -0.12589689292E+03 -0.23701439147E+03  0.18286719774E+04  0.20504066630E+04  0.88775020878E+03 0.  0.
         23    2    4    4    0    0  0.31537365885E+03 -0.27911348447E+03  0.58228938289E+03  0.72464692431E+03  0.93205995347E+02 0.  0.
         23    2    4    4    0    0 -0.44127055178E+03  0.42099092999E+02  0.12463825945E+04  0.13257597387E+04  0.87620084742E+02 0.  0.
          1    1    3    3  502    0  0.53027202648E+02  0.65069234840E+02  0.22084908367E+03  0.23626300451E+03  0.00000000000E+00 0. -1.
         -2    1    3    3    0  502  0.72869690274E+02  0.17194515663E+03  0.25421116072E+03  0.31543373771E+03  0.00000000000E+00 0.  1.
         11    1    5    5    0    0  0.12146811728E+01  0.61201921106E+01  0.41236949367E+01  0.74791083529E+01  0.00000000000E+00 0. -1.
        -11    1    5    5    0    0  0.31415897768E+03 -0.28523367658E+03  0.57816568796E+03  0.71716781595E+03  0.00000000000E+00 0.  1.
          1    1    6    6  503    0 -0.15978845190E+03  0.56019749412E+02  0.50401775504E+03  0.53169959477E+03  0.00000000000E+00 0. -1.
         -1    1    6    6    0  503 -0.28148209988E+03 -0.13920656413E+02  0.74236483947E+03  0.79406014389E+03  0.00000000000E+00 0.  1.
<mgrwt>
<rscale>  0 0.12098595E+04</rscale>
<asrwt>0</asrwt>
<pdfrwt beam="1">  1        1 0.37737194E+00 0.12098595E+04</pdfrwt>
<pdfrwt beam="2">  1       -2 0.22951631E-01 0.12098595E+04</pdfrwt>
<totfact> 0.21347578E+01</totfact>
</mgrwt>
</event>
<event>
12    4  0.4207946E-008  0.1843106E+04  0.7818608E-02  0.8683706E-01
          1   -1    0    0  501    0  0.00000000000E+00  0.00000000000E+00  0.26825717706E+04  0.26825717706E+04  0.00000000000E+00 0. -1.
         -2   -1    0    0    0  501 -0.00000000000E+00 -0.00000000000E+00 -0.31658425622E+03  0.31658425622E+03  0.00000000000E+00 0.  1.
        -24    2    1    2    0    0  0.49870650934E+03 -0.48326928957E+03  0.10354565569E+04  0.12492755777E+04  0.79131531108E+02 0.  0.
        254    2    1    2    0    0 -0.49870650934E+03  0.48326928957E+03  0.13305309575E+04  0.17498804491E+04  0.89972860829E+03 0.  0.
         23    2    4    4    0    0  0.96653725532E+02 -0.15177616133E+03  0.51600256404E+03  0.55426136877E+03  0.92569287549E+02 0.  0.
         23    2    4    4    0    0 -0.59536023487E+03  0.63504545091E+03  0.81452839349E+03  0.11956190804E+04  0.91169882816E+02 0.  0.
          1    1    3    3  502    0  0.43875029409E+03 -0.44055930711E+03  0.96076635336E+03  0.11444065315E+04  0.00000000000E+00 0. -1.
         -2    1    3    3    0  502  0.59956215253E+02 -0.42709982461E+02  0.74690203502E+02  0.10486904619E+03  0.00000000000E+00 0.  1.
         11    1    5    5    0    0  0.11046958951E+03 -0.10401200379E+03  0.36491599376E+03  0.39520337756E+03  0.00000000000E+00 0.  1.
        -11    1    5    5    0    0 -0.13815863982E+02 -0.47764157542E+02  0.15108657029E+03  0.15905799120E+03  0.00000000000E+00 0. -1.
          2    1    6    6  503    0 -0.43365078701E+03  0.51771327587E+03  0.62044581999E+03  0.91707854442E+03  0.00000000000E+00 0. -1.
         -2    1    6    6    0  503 -0.16170944786E+03  0.11733217504E+03  0.19408257351E+03  0.27854053595E+03  0.00000000000E+00 0.  1.
<mgrwt>
<rscale>  0 0.18431061E+04</rscale>
<asrwt>0</asrwt>
<pdfrwt beam="1">  1        1 0.41270333E+00 0.18431061E+04</pdfrwt>
<pdfrwt beam="2">  1       -2 0.48705272E-01 0.18431061E+04</pdfrwt>
<totfact> 0.33330966E+00</totfact>
</mgrwt>
</event>
<event>
12    4  0.4207946E-008  0.1262457E+04  0.7818608E-02  0.9059878E-01
         -2   -1    0    0    0  501 -0.00000000000E+00  0.00000000000E+00  0.22577626093E+03  0.22577626093E+03  0.00000000000E+00 0.  1.
          1   -1    0    0  501    0  0.00000000000E+00 -0.00000000000E+00 -0.17647982602E+04  0.17647982602E+04  0.00000000000E+00 0. -1.
        -24    2    1    2    0    0 -0.50666352311E+02 -0.18992947148E+03 -0.19938428205E+02  0.21399259885E+03  0.82188855989E+02 0.  0.
        254    2    1    2    0    0  0.50666352311E+02  0.18992947148E+03 -0.15190835710E+04  0.17765819223E+04  0.89999341515E+03 0.  0.
         23    2    4    4    0    0  0.35860174520E+03  0.16573862542E+03 -0.13564839064E+04  0.14158970752E+04  0.93013094093E+02 0.  0.
         23    2    4    4    0    0 -0.30793539289E+03  0.24190846057E+02 -0.16259966468E+03  0.36068484708E+03  0.90804761628E+02 0.  0.
          3    1    3    3  502    0 -0.41834460042E+02 -0.13435126755E+03 -0.51052041996E+02  0.14968866401E+03  0.00000000000E+00 0. -1.
         -4    1    3    3    0  502 -0.88318922689E+01 -0.55578203925E+02  0.31113613791E+02  0.64303934839E+02  0.00000000000E+00 0.  1.
         11    1    5    5    0    0  0.13118373250E+03  0.67798222690E+02 -0.35997404399E+03  0.38908493034E+03  0.00000000000E+00 0. -1.
        -11    1    5    5    0    0  0.22741801270E+03  0.97940402731E+02 -0.99650986236E+03  0.10268121448E+04  0.00000000000E+00 0.  1.
          2    1    6    6  503    0 -0.29690676281E+02  0.12117855186E+02 -0.51850954526E+02  0.60966385473E+02  0.00000000000E+00 0. -1.
         -2    1    6    6    0  503 -0.27824471661E+03  0.12072990871E+02 -0.11074871015E+03  0.29971846161E+03  0.00000000000E+00 0.  1.
<mgrwt>
<rscale>  0 0.12624572E+04</rscale>
<asrwt>0</asrwt>
<pdfrwt beam="1">  1        1 0.27150743E+00 0.12624572E+04</pdfrwt>
<pdfrwt beam="2">  1       -2 0.34734809E-01 0.12624572E+04</pdfrwt>
<totfact> 0.28952014E+01</totfact>
</mgrwt>
</event>
<event>
12    4  0.4207946E-008  0.2177310E+04  0.7818608E-02  0.8527932E-01
         -2   -1    0    0    0  501 -0.00000000000E+00  0.00000000000E+00  0.62442220688E+03  0.62442220688E+03  0.00000000000E+00 0.  1.
          1   -1    0    0  501    0  0.00000000000E+00 -0.00000000000E+00 -0.18980253433E+04  0.18980253433E+04  0.00000000000E+00 0. -1.
        -24    2    1    2    0    0 -0.40582373236E+03 -0.29152682401E+03 -0.14029394444E+04  0.14913515669E+04  0.78801146639E+02 0.  0.
        254    2    1    2    0    0  0.40582373236E+03  0.29152682401E+03  0.12933630795E+03  0.10310959833E+04  0.89260867981E+03 0.  0.
         23    2    4    4    0    0  0.19150521699E+02  0.52909380265E+03 -0.41775535560E+02  0.53872617189E+03  0.90408508532E+02 0.  0.
         23    2    4    4    0    0  0.38667321066E+03 -0.23756697864E+03  0.17111184351E+03  0.49236981138E+03  0.84820557539E+02 0.  0.
          1    1    3    3  502    0 -0.24326077402E+03 -0.13918543319E+03 -0.85861293825E+03  0.90319685934E+03  0.00000000000E+00 0. -1.
         -2    1    3    3    0  502 -0.16256295835E+03 -0.15234139082E+03 -0.54432650613E+03  0.58815470759E+03  0.00000000000E+00 0.  1.
         11    1    5    5    0    0 -0.14878170483E+02  0.21152970982E+03 -0.55005279713E+02  0.21907021452E+03  0.00000000000E+00 0. -1.
        -11    1    5    5    0    0  0.34028692182E+02  0.31756409283E+03  0.13229744153E+02  0.31965595736E+03  0.00000000000E+00 0.  1.
          3    1    6    6  503    0  0.24039025938E+03 -0.10410356986E+03  0.11825652061E+03  0.28741891853E+03  0.00000000000E+00 0. -1.
         -3    1    6    6    0  503  0.14628295129E+03 -0.13346340878E+03  0.52855322897E+02  0.20495089285E+03  0.00000000000E+00 0.  1.
<mgrwt>
<rscale>  0 0.21773095E+04</rscale>
<asrwt>0</asrwt>
<pdfrwt beam="1">  1        1 0.29200389E+00 0.21773095E+04</pdfrwt>
<pdfrwt beam="2">  1       -2 0.96064957E-01 0.21773095E+04</pdfrwt>
<totfact> 0.25460555E+00</totfact>
</mgrwt>
</event>
<event>
12    4  0.4207946E-008  0.1393408E+04  0.7818608E-02  0.8958604E-01
         -2   -1    0    0    0  501 -0.00000000000E+00  0.00000000000E+00  0.56368298086E+03  0.56368298086E+03  0.00000000000E+00 0.  1.
          1   -1    0    0  501    0  0.00000000000E+00 -0.00000000000E+00 -0.86111569745E+03  0.86111569745E+03  0.00000000000E+00 0. -1.
        -24    2    1    2    0    0  0.61704463551E+02  0.18276518112E+03 -0.41827743774E+03  0.46756109370E+03  0.80292024329E+02 0.  0.
        254    2    1    2    0    0 -0.61704463551E+02 -0.18276518112E+03  0.12084472114E+03  0.95723758461E+03  0.92977943325E+03 0.  0.
         23    2    4    4    0    0 -0.42907039811E+03  0.22216487311E+02  0.25290620671E+03  0.50699339197E+03  0.92118246105E+02 0.  0.
         23    2    4    4    0    0  0.36736593456E+03 -0.20498166843E+03 -0.13206148557E+03  0.45024419263E+03  0.91128386160E+02 0.  0.
          1    1    3    3  502    0  0.70996087340E+02  0.18252083409E+03 -0.41246651637E+03  0.45659930620E+03  0.00000000000E+00 0. -1.
         -2    1    3    3    0  502 -0.92916237887E+01  0.24434703132E+00 -0.58109213642E+01  0.10961787500E+02  0.00000000000E+00 0.  1.
         11    1    5    5    0    0 -0.36928699356E+03  0.21888489116E+02  0.17623623037E+03  0.40976968953E+03  0.00000000000E+00 0. -1.
        -11    1    5    5    0    0 -0.59783404553E+02  0.32799819515E+00  0.76669976346E+02  0.97223702438E+02  0.00000000000E+00 0.  1.
          4    1    6    6  503    0  0.30388598027E+03 -0.18180147359E+03 -0.75402193491E+02  0.36205518307E+03  0.00000000000E+00 0. -1.
         -4    1    6    6    0  503  0.63479954285E+02 -0.23180194839E+02 -0.56659292077E+02  0.88189009562E+02  0.00000000000E+00 0.  1.
<mgrwt>
<rscale>  0 0.13934077E+04</rscale>
<asrwt>0</asrwt>
<pdfrwt beam="1">  1        1 0.13247934E+00 0.13934077E+04</pdfrwt>
<pdfrwt beam="2">  1       -2 0.86720458E-01 0.13934077E+04</pdfrwt>
<totfact> 0.19287743E+01</totfact>
</mgrwt>
</event>
<event>
12    4  0.4207946E-008  0.1203326E+04  0.7818608E-02  0.9109950E-01
         -4   -1    0    0    0  501 -0.00000000000E+00  0.00000000000E+00  0.15737429509E+04  0.15737429509E+04  0.00000000000E+00 0.  1.
          3   -1    0    0  501    0  0.00000000000E+00 -0.00000000000E+00 -0.23002388090E+03  0.23002388090E+03  0.00000000000E+00 0. -1.
        -24    2    1    2    0    0 -0.18821197747E+03  0.28324624428E+02  0.63470775273E+02  0.21602282969E+03  0.80070536545E+02 0.  0.
        254    2    1    2    0    0  0.18821197747E+03 -0.28324624428E+02  0.12802482947E+04  0.15877440021E+04  0.91960278777E+03 0.  0.
         23    2    4    4    0    0  0.17514916734E+03  0.41775126740E+03  0.82090870893E+03  0.94154745738E+03  0.86180936833E+02 0.  0.
         23    2    4    4    0    0  0.13062810129E+02 -0.44607589183E+03  0.45933958581E+03  0.64619654474E+03  0.86155563172E+02 0.  0.
          1    1    3    3  502    0 -0.98980764428E+02  0.36055862062E+02 -0.15330812988E+01  0.10535448379E+03  0.00000000000E+00 0. -1.
         -2    1    3    3    0  502 -0.89231213042E+02 -0.77312376340E+01  0.65003856571E+02  0.11066834591E+03  0.00000000000E+00 0.  1.
         11    1    5    5    0    0  0.69475113627E+02  0.26629026131E+03  0.45723695035E+03  0.53366930157E+03  0.00000000000E+00 0. -1.
        -11    1    5    5    0    0  0.10567405371E+03  0.15146100609E+03  0.36367175858E+03  0.40787815580E+03  0.00000000000E+00 0.  1.
          4    1    6    6  503    0 -0.92195347693E+01 -0.24884604394E+03  0.19864917897E+03  0.31854489434E+03  0.00000000000E+00 0. -1.
         -4    1    6    6    0  503  0.22282344898E+02 -0.19722984789E+03  0.26069040683E+03  0.32765165040E+03  0.00000000000E+00 0.  1.
<mgrwt>
<rscale>  0 0.12033262E+04</rscale>
<asrwt>0</asrwt>
<pdfrwt beam="1">  1        3 0.35388290E-01 0.12033262E+04</pdfrwt>
<pdfrwt beam="2">  1       -4 0.24211429E+00 0.12033262E+04</pdfrwt>
<totfact> 0.12657161E+00</totfact>
</mgrwt>
</event>
<event>
12    4  0.4207946E-008  0.2455743E+04  0.7818608E-02  0.8418924E-01
          1   -1    0    0  501    0  0.00000000000E+00  0.00000000000E+00  0.26321508628E+04  0.26321508628E+04  0.00000000000E+00 0. -1.
         -4   -1    0    0    0  501 -0.00000000000E+00 -0.00000000000E+00 -0.57278974065E+03  0.57278974065E+03  0.00000000000E+00 0.  1.
        -24    2    1    2    0    0  0.56285653887E+03 -0.98375231392E+02  0.20347705604E+04  0.21149759544E+04  0.79667339079E+02 0.  0.
        254    2    1    2    0    0 -0.56285653887E+03  0.98375231392E+02  0.24590561745E+02  0.10899646490E+04  0.92786479125E+03 0.  0.
         23    2    4    4    0    0 -0.17101513804E+03 -0.34027482366E+03  0.23768706979E+03  0.45809190770E+03  0.91213593834E+02 0.  0.
         23    2    4    4    0    0 -0.39184140083E+03  0.43865005505E+03 -0.21309650805E+03  0.63187274130E+03  0.88879048458E+02 0.  0.
          3    1    3    3  502    0  0.52754711291E+03 -0.71951617679E+02  0.18984929103E+04  0.19717399225E+04  0.00000000000E+00 0. -1.
         -4    1    3    3    0  502  0.35309425960E+02 -0.26423613712E+02  0.13627765007E+03  0.14323603189E+03  0.00000000000E+00 0.  1.
         11    1    5    5    0    0 -0.74007910013E+01 -0.10352908770E+03  0.65445877270E+02  0.12270373490E+03  0.00000000000E+00 0.  1.
        -11    1    5    5    0    0 -0.16361434704E+03 -0.23674573596E+03  0.17224119252E+03  0.33538817280E+03  0.00000000000E+00 0. -1.
          3    1    6    6  503    0 -0.25415569208E+03  0.33502816744E+03 -0.17444535886E+03  0.45526934008E+03  0.00000000000E+00 0. -1.
         -3    1    6    6    0  503 -0.13768570876E+03  0.10362188761E+03 -0.38651149187E+02  0.17660340122E+03  0.00000000000E+00 0.  1.
<mgrwt>
<rscale>  0 0.24557435E+04</rscale>
<asrwt>0</asrwt>
<pdfrwt beam="1">  1        1 0.40494628E+00 0.24557435E+04</pdfrwt>
<pdfrwt beam="2">  1       -4 0.88121500E-01 0.24557435E+04</pdfrwt>
<totfact> 0.53682440E-01</totfact>
</mgrwt>
</event>
<event>
12    4  0.4207946E-008  0.1644054E+04  0.7818608E-02  0.8793932E-01
          1   -1    0    0  501    0  0.00000000000E+00  0.00000000000E+00  0.13685267182E+04  0.13685267182E+04  0.00000000000E+00 0. -1.
         -2   -1    0    0    0  501 -0.00000000000E+00 -0.00000000000E+00 -0.49376361848E+03  0.49376361848E+03  0.00000000000E+00 0.  1.
        -24    2    1    2    0    0  0.48125491940E+03 -0.12929714144E+03  0.63429389799E+03  0.81048863601E+03  0.78987542337E+02 0.  0.
        254    2    1    2    0    0 -0.48125491940E+03  0.12929714144E+03  0.24046920177E+03  0.10518017007E+04  0.89450395884E+03 0.  0.
         23    2    4    4    0    0 -0.28460439617E+03  0.47274529436E+03  0.31083570006E+03  0.63969834114E+03  0.90040877190E+02 0.  0.
         23    2    4    4    0    0 -0.19665052323E+03 -0.34344815292E+03 -0.70366498290E+02  0.41210335957E+03  0.90827709757E+02 0.  0.
          3    1    3    3  502    0  0.46829901743E+03 -0.11580762266E+03  0.62523961611E+03  0.78970877718E+03  0.00000000000E+00 0. -1.
         -4    1    3    3    0  502  0.12955901970E+02 -0.13489518783E+02  0.90542818736E+01  0.20779858833E+02  0.00000000000E+00 0.  1.
         11    1    5    5    0    0 -0.14806929824E+03  0.19964420117E+03  0.96437435556E+02  0.26661302128E+03  0.00000000000E+00 0. -1.
        -11    1    5    5    0    0 -0.13653509793E+03  0.27310109319E+03  0.21439826451E+03  0.37308531985E+03  0.00000000000E+00 0.  1.
          3    1    6    6  503    0 -0.18641094454E+03 -0.33642751516E+03 -0.49458248582E+02  0.38778683778E+03  0.00000000000E+00 0. -1.
         -3    1    6    6    0  503 -0.10239578691E+02 -0.70206377569E+01 -0.20908249709E+02  0.24316521794E+02  0.00000000000E+00 0.  1.
<mgrwt>
<rscale>  0 0.16440544E+04</rscale>
<asrwt>0</asrwt>
<pdfrwt beam="1">  1        1 0.21054257E+00 0.16440544E+04</pdfrwt>
<pdfrwt beam="2">  1       -2 0.75963634E-01 0.16440544E+04</pdfrwt>
<totfact> 0.10526545E+01</totfact>
</mgrwt>
</event>
<event>
12    4  0.4207946E-008  0.1994505E+04  0.7818608E-02  0.8609194E-01
          1   -1    0    0  501    0  0.00000000000E+00  0.00000000000E+00  0.90405060844E+03  0.90405060844E+03  0.00000000000E+00 0. -1.
         -2   -1    0    0    0  501 -0.00000000000E+00 -0.00000000000E+00 -0.11000626983E+04  0.11000626983E+04  0.00000000000E+00 0.  1.
        -24    2    1    2    0    0 -0.14268393898E+03  0.49777950221E+03 -0.67946948324E+03  0.85807093277E+03  0.80397809326E+02 0.  0.
        254    2    1    2    0    0  0.14268393898E+03 -0.49777950221E+03  0.48345739340E+03  0.11460423740E+04  0.90085455674E+03 0.  0.
         23    2    4    4    0    0  0.83396902010E+02 -0.45105779879E+03  0.73331097122E+03  0.86950058575E+03  0.88758700954E+02 0.  0.
         23    2    4    4    0    0  0.59287036967E+02 -0.46721703419E+02 -0.24985357782E+03  0.27654178820E+03  0.91382054871E+02 0.  0.
          3    1    3    3  502    0 -0.16585061466E+02  0.12571846432E+03 -0.12104433124E+03  0.17530523855E+03  0.00000000000E+00 0. -1.
         -4    1    3    3    0  502 -0.12609887751E+03  0.37206103788E+03 -0.55842515200E+03  0.68276569422E+03  0.00000000000E+00 0.  1.
         11    1    5    5    0    0  0.56479507091E+02 -0.13542875679E+03  0.28514639000E+03  0.32068574433E+03  0.00000000000E+00 0. -1.
        -11    1    5    5    0    0  0.26917394919E+02 -0.31562904200E+03  0.44816458122E+03  0.54881484142E+03  0.00000000000E+00 0.  1.
          1    1    6    6  503    0  0.28104280489E+02 -0.32504158576E+02 -0.26305573663E+02  0.50382081262E+02  0.00000000000E+00 0. -1.
         -1    1    6    6    0  503  0.31182756478E+02 -0.14217544843E+02 -0.22354800415E+03  0.22615970694E+03  0.00000000000E+00 0.  1.
<mgrwt>
<rscale>  0 0.19945048E+04</rscale>
<asrwt>0</asrwt>
<pdfrwt beam="1">  1        1 0.13908471E+00 0.19945048E+04</pdfrwt>
<pdfrwt beam="2">  1       -2 0.16924041E+00 0.19945048E+04</pdfrwt>
<totfact> 0.31689506E+00</totfact>
</mgrwt>
</event>
<event>
12    4  0.4207946E-008  0.1833329E+04  0.7818608E-02  0.8688773E-01
          3   -1    0    0  501    0  0.00000000000E+00  0.00000000000E+00  0.34261869176E+03  0.34261869176E+03  0.00000000000E+00 0. -1.
         -4   -1    0    0    0  501 -0.00000000000E+00 -0.00000000000E+00 -0.24525053691E+04  0.24525053691E+04  0.00000000000E+00 0.  1.
        -24    2    1    2    0    0 -0.96358518840E+02  0.18284902248E+03  0.20688100958E+03  0.30295223188E+03  0.79130104861E+02 0.  0.
        254    2    1    2    0    0  0.96358518840E+02 -0.18284902248E+03 -0.23167676869E+04  0.24921718290E+04  0.89486824775E+03 0.  0.
         23    2    4    4    0    0 -0.51770250455E+02 -0.50366936730E+03 -0.16957759447E+04  0.17720703774E+04  0.90633203505E+02 0.  0.
         23    2    4    4    0    0  0.14812876929E+03  0.32082034481E+03 -0.62099174219E+03  0.72010145152E+03  0.89708030123E+02 0.  0.
          3    1    3    3  502    0 -0.50152738865E+02  0.15517565367E+03  0.17955110335E+03  0.24255593051E+03  0.00000000000E+00 0. -1.
         -4    1    3    3    0  502 -0.46205779976E+02  0.27673368815E+02  0.27329906229E+02  0.60396301370E+02  0.00000000000E+00 0.  1.
         11    1    5    5    0    0 -0.28045641613E+02 -0.44005862687E+03 -0.13670361617E+04  0.14363934073E+04  0.00000000000E+00 0.  1.
        -11    1    5    5    0    0 -0.23724608842E+02 -0.63610740427E+02 -0.32873978303E+03  0.33567697018E+03  0.00000000000E+00 0. -1.
          4    1    6    6  503    0  0.30689614361E+02  0.10905512470E+02 -0.68072975004E+02  0.75463319287E+02  0.00000000000E+00 0. -1.
         -4    1    6    6    0  503  0.11743915493E+03  0.30991483234E+03 -0.55291876719E+03  0.64463813223E+03  0.00000000000E+00 0.  1.
<mgrwt>
<rscale>  0 0.18333294E+04</rscale>
<asrwt>0</asrwt>
<pdfrwt beam="1">  1        3 0.52710569E-01 0.18333294E+04</pdfrwt>
<pdfrwt beam="2">  1       -4 0.37730851E+00 0.18333294E+04</pdfrwt>
<totfact> 0.75188601E-02</totfact>
</mgrwt>
</event>
<event>
12    4  0.4207946E-008  0.1964232E+04  0.7818608E-02  0.8623528E-01
          1   -1    0    0  501    0  0.00000000000E+00  0.00000000000E+00  0.10209313170E+04  0.10209313170E+04  0.00000000000E+00 0. -1.
         -2   -1    0    0    0  501 -0.00000000000E+00 -0.00000000000E+00 -0.94477647669E+03  0.94477647669E+03  0.00000000000E+00 0.  1.
        -24    2    1    2    0    0 -0.60027494397E+03 -0.20385633096E+03 -0.40212789000E+03  0.75499157804E+03  0.80112614305E+02 0.  0.
        254    2    1    2    0    0  0.60027494397E+03  0.20385633096E+03  0.47828273035E+03  0.12107162157E+04  0.91388838090E+03 0.  0.
         23    2    4    4    0    0  0.65525215061E+03 -0.27315889538E+02  0.63136052114E+03  0.91486794432E+03  0.90915945710E+02 0.  0.
         23    2    4    4    0    0 -0.54977206638E+02  0.23117222050E+03 -0.15307779080E+03  0.29584827136E+03  0.87351593304E+02 0.  0.
          1    1    3    3  502    0 -0.62886451445E+02 -0.88632729992E+01 -0.17169532954E+02  0.65787964290E+02  0.00000000000E+00 0. -1.
         -2    1    3    3    0  502 -0.53738849252E+03 -0.19499305797E+03 -0.38495835705E+03  0.68920361375E+03  0.00000000000E+00 0.  1.
         11    1    5    5    0    0  0.54509735878E+03 -0.49389486374E+02  0.49287310423E+03  0.73654215683E+03  0.00000000000E+00 0.  1.
        -11    1    5    5    0    0  0.11015479182E+03  0.22073596836E+02  0.13848741691E+03  0.17832578749E+03  0.00000000000E+00 0. -1.
          4    1    6    6  503    0  0.10913078456E+02  0.49805961738E+02 -0.67920225905E+02  0.84928712418E+02  0.00000000000E+00 0. -1.
         -4    1    6    6    0  503 -0.65890285095E+02  0.18136625876E+03 -0.85157564892E+02  0.21091955895E+03  0.00000000000E+00 0.  1.
<mgrwt>
<rscale>  0 0.19642321E+04</rscale>
<asrwt>0</asrwt>
<pdfrwt beam="1">  1        1 0.15706636E+00 0.19642321E+04</pdfrwt>
<pdfrwt beam="2">  1       -2 0.14535023E+00 0.19642321E+04</pdfrwt>
<totfact> 0.38706191E+00</totfact>
</mgrwt>
</event>
<event>
12    4  0.4207946E-008  0.1449130E+04  0.7818608E-02  0.8919004E-01
         -2   -1    0    0    0  501 -0.00000000000E+00  0.00000000000E+00  0.16651139553E+03  0.16651139553E+03  0.00000000000E+00 0.  1.
          1   -1    0    0  501    0  0.00000000000E+00 -0.00000000000E+00 -0.31529048779E+04  0.31529048779E+04  0.00000000000E+00 0. -1.
        -24    2    1    2    0    0  0.83101160508E+02  0.35929955421E+03 -0.14656687596E+04  0.15134521122E+04  0.79689462619E+02 0.  0.
        254    2    1    2    0    0 -0.83101160508E+02 -0.35929955421E+03 -0.15207247227E+04  0.18059641612E+04  0.90161016895E+03 0.  0.
         23    2    4    4    0    0 -0.45266280429E+02 -0.64471782382E+03 -0.86441797292E+03  0.10831429677E+04  0.90940354337E+02 0.  0.
         23    2    4    4    0    0 -0.37834880079E+02  0.28541826961E+03 -0.65630674982E+03  0.72282119354E+03  0.94004580700E+02 0.  0.
          3    1    3    3  502    0  0.93556980461E+02  0.25181750668E+03 -0.10851350617E+04  0.11178922432E+04  0.00000000000E+00 0. -1.
         -4    1    3    3    0  502 -0.10455819953E+02  0.10748204753E+03 -0.38053369793E+03  0.39555986901E+03  0.00000000000E+00 0.  1.
         11    1    5    5    0    0  0.17985999260E+02 -0.68414316182E+02 -0.12385196020E+03  0.14263002094E+03  0.00000000000E+00 0. -1.
        -11    1    5    5    0    0 -0.63252279689E+02 -0.57630350764E+03 -0.74056601272E+03  0.94051294675E+03  0.00000000000E+00 0.  1.
          4    1    6    6  503    0 -0.51900287621E+01 -0.68748473149E+01 -0.22754918058E+02  0.24330766942E+02  0.00000000000E+00 0. -1.
         -4    1    6    6    0  503 -0.32644851317E+02  0.29229311693E+03 -0.63355183176E+03  0.69849042660E+03  0.00000000000E+00 0.  1.
<mgrwt>
<rscale>  0 0.14491302E+04</rscale>
<asrwt>0</asrwt>
<pdfrwt beam="1">  1        1 0.48506224E+00 0.14491302E+04</pdfrwt>
<pdfrwt beam="2">  1       -2 0.25617141E-01 0.14491302E+04</pdfrwt>
<totfact> 0.54430544E+00</totfact>
</mgrwt>
</event>
<event>
12    4  0.4207946E-008  0.1502019E+04  0.7818608E-02  0.8883111E-01
         -2   -1    0    0    0  501 -0.00000000000E+00  0.00000000000E+00  0.36127164460E+03  0.36127164460E+03  0.00000000000E+00 0.  1.
          1   -1    0    0  501    0  0.00000000000E+00 -0.00000000000E+00 -0.15611945802E+04  0.15611945802E+04  0.00000000000E+00 0. -1.
        -24    2    1    2    0    0  0.23219820497E+03  0.21914678645E+03 -0.93126321023E+03  0.98770217481E+03  0.79769035335E+02 0.  0.
        254    2    1    2    0    0 -0.23219820497E+03 -0.21914678645E+03 -0.26865972538E+03  0.93476405000E+03  0.83645947943E+03 0.  0.
         23    2    4    4    0    0 -0.24553684754E+03  0.24589634028E+03 -0.28420575188E+03  0.45833565735E+03  0.92440855313E+02 0.  0.
         23    2    4    4    0    0  0.13338642571E+02 -0.46504312673E+03  0.15546026510E+02  0.47642839265E+03  0.10148549291E+03 0.  0.
          1    1    3    3  502    0  0.12329791482E+03  0.10999972365E+03 -0.59963385675E+03  0.62198318077E+03  0.00000000000E+00 0. -1.
         -2    1    3    3    0  502  0.10890029015E+03  0.10914706280E+03 -0.33162935348E+03  0.36571899404E+03  0.00000000000E+00 0.  1.
         11    1    5    5    0    0 -0.20686787925E+03  0.23636724961E+03 -0.22263266368E+03  0.38500532346E+03  0.00000000000E+00 0.  1.
        -11    1    5    5    0    0 -0.38668968286E+02  0.95290906703E+01 -0.61573088206E+02  0.73330333891E+02  0.00000000000E+00 0. -1.
          3    1    6    6  503    0 -0.12261507793E+02 -0.29196686976E+03 -0.35003090762E+02  0.29431312233E+03  0.00000000000E+00 0. -1.
         -3    1    6    6    0  503  0.25600150364E+02 -0.17307625697E+03  0.50549117272E+02  0.18211527032E+03  0.00000000000E+00 0.  1.
<mgrwt>
<rscale>  0 0.15020191E+04</rscale>
<asrwt>0</asrwt>
<pdfrwt beam="1">  1        1 0.24018378E+00 0.15020191E+04</pdfrwt>
<pdfrwt beam="2">  1       -2 0.55580252E-01 0.15020191E+04</pdfrwt>
<totfact> 0.15319896E+01</totfact>
</mgrwt>
</event>
<event>
12    4  0.4207946E-008  0.3503188E+04  0.7818608E-02  0.8113035E-01
         -2   -1    0    0    0  501 -0.00000000000E+00  0.00000000000E+00  0.14434568021E+04  0.14434568021E+04  0.00000000000E+00 0.  1.
          1   -1    0    0  501    0  0.00000000000E+00 -0.00000000000E+00 -0.21255097969E+04  0.21255097969E+04  0.00000000000E+00 0. -1.
        -24    2    1    2    0    0  0.10545156043E+03 -0.15650423348E+04 -0.79508224831E+03  0.17604428941E+04  0.80782798080E+02 0.  0.
        254    2    1    2    0    0 -0.10545156043E+03  0.15650423348E+04  0.11302925351E+03  0.18085237048E+04  0.89303126345E+03 0.  0.
         23    2    4    4    0    0 -0.68893193422E+02 -0.43174583532E+02 -0.13190160447E+03  0.17895617361E+03  0.89537489638E+02 0.  0.
         23    2    4    4    0    0 -0.36558367011E+02  0.16082169183E+04  0.24493085798E+03  0.16295675312E+04  0.88323513390E+02 0.  0.
          1    1    3    3  502    0  0.99130023634E+02 -0.95316196230E+03 -0.50582433288E+03  0.10836063601E+04  0.00000000000E+00 0. -1.
         -2    1    3    3    0  502  0.63215367988E+01 -0.61188037250E+03 -0.28925791543E+03  0.67683653397E+03  0.00000000000E+00 0.  1.
         11    1    5    5    0    0 -0.28149726614E+02 -0.60744482574E+02 -0.42922112302E+02  0.79527397770E+02  0.00000000000E+00 0. -1.
        -11    1    5    5    0    0 -0.40743466807E+02  0.17569899042E+02 -0.88979492165E+02  0.99428775844E+02  0.00000000000E+00 0.  1.
          3    1    6    6  503    0 -0.53216168704E+01  0.53565858211E+03  0.40143036870E+02  0.53718702479E+03  0.00000000000E+00 0. -1.
         -3    1    6    6    0  503 -0.31236750140E+02  0.10725583362E+04  0.20478782111E+03  0.10923805064E+04  0.00000000000E+00 0.  1.
<mgrwt>
<rscale>  0 0.35031880E+04</rscale>
<asrwt>0</asrwt>
<pdfrwt beam="1">  1        1 0.32700151E+00 0.35031880E+04</pdfrwt>
<pdfrwt beam="2">  1       -2 0.22207028E+00 0.35031880E+04</pdfrwt>
<totfact> 0.16843301E-01</totfact>
</mgrwt>
</event>
<event>
12    4  0.4207946E-008  0.1217738E+04  0.7818608E-02  0.9097470E-01
          1   -1    0    0  501    0  0.00000000000E+00  0.00000000000E+00  0.12854341241E+04  0.12854341241E+04  0.00000000000E+00 0. -1.
         -2   -1    0    0    0  501 -0.00000000000E+00 -0.00000000000E+00 -0.28840187020E+03  0.28840187020E+03  0.00000000000E+00 0.  1.
        -24    2    1    2    0    0 -0.12488067176E+03 -0.90521135105E+02 -0.51084927302E+02  0.18163595636E+03  0.81195398673E+02 0.  0.
        254    2    1    2    0    0  0.12488067176E+03  0.90521135105E+02  0.10481171812E+04  0.13922000379E+04  0.90326190112E+03 0.  0.
         23    2    4    4    0    0  0.50341350907E+03  0.10509259968E+03  0.68579484863E+03  0.86195769268E+03  0.90481345812E+02 0.  0.
         23    2    4    4    0    0 -0.37853283731E+03 -0.14571464571E+02  0.36232233253E+03  0.53024234523E+03  0.79875124521E+02 0.  0.
          3    1    3    3  502    0  0.56392402596E+01 -0.23755970289E+02 -0.20485379093E+02  0.31871584706E+02  0.00000000000E+00 0. -1.
         -4    1    3    3    0  502 -0.13051991202E+03 -0.66765164816E+02 -0.30599548209E+02  0.14976437166E+03  0.00000000000E+00 0.  1.
         11    1    5    5    0    0  0.28985856630E+03  0.40560940889E+02  0.45465778841E+03  0.54071885758E+03  0.00000000000E+00 0. -1.
        -11    1    5    5    0    0  0.21355494277E+03  0.64531658787E+02  0.23113706022E+03  0.32123883510E+03  0.00000000000E+00 0.  1.
          1    1    6    6  503    0 -0.56733695370E+02 -0.48160222251E+01  0.20091108831E+02  0.60378463996E+02  0.00000000000E+00 0. -1.
         -1    1    6    6    0  503 -0.32179914194E+03 -0.97554423459E+01  0.34223122370E+03  0.46986388123E+03  0.00000000000E+00 0.  1.
<mgrwt>
<rscale>  0 0.12177382E+04</rscale>
<asrwt>0</asrwt>
<pdfrwt beam="1">  1        1 0.19775909E+00 0.12177382E+04</pdfrwt>
<pdfrwt beam="2">  1       -2 0.44369519E-01 0.12177382E+04</pdfrwt>
<totfact> 0.38693163E+01</totfact>
</mgrwt>
</event>
<event>
12    4  0.4207946E-008  0.2118381E+04  0.7818608E-02  0.8553189E-01
         -2   -1    0    0    0  501 -0.00000000000E+00  0.00000000000E+00  0.11943967967E+04  0.11943967967E+04  0.00000000000E+00 0.  1.
          1   -1    0    0  501    0  0.00000000000E+00 -0.00000000000E+00 -0.93928987220E+03  0.93928987220E+03  0.00000000000E+00 0. -1.
        -24    2    1    2    0    0 -0.56028400865E+03 -0.59880318885E+02  0.75671466357E+03  0.94689436471E+03  0.80548326587E+02 0.  0.
        254    2    1    2    0    0  0.56028400865E+03  0.59880318885E+02 -0.50160773910E+03  0.11867923041E+04  0.91616692056E+03 0.  0.
         23    2    4    4    0    0 -0.69683298992E+02  0.33060348881E+03 -0.31165253440E+03  0.46954384808E+03  0.95862892179E+02 0.  0.
         23    2    4    4    0    0  0.62996730764E+03 -0.27072316993E+03 -0.18995520470E+03  0.71724845607E+03  0.90622980012E+02 0.  0.
          3    1    3    3  502    0 -0.13460527849E+02 -0.12213775912E+02  0.41689146626E+02  0.45479083966E+02  0.00000000000E+00 0. -1.
         -4    1    3    3    0  502 -0.54682348080E+03 -0.47666542973E+02  0.71502551695E+03  0.90141528074E+03  0.00000000000E+00 0.  1.
         11    1    5    5    0    0 -0.35333118617E+02  0.47582860031E+02 -0.92889398210E+02  0.11018619759E+03  0.00000000000E+00 0.  1.
        -11    1    5    5    0    0 -0.34350180376E+02  0.28302062878E+03 -0.21876313619E+03  0.35935765049E+03  0.00000000000E+00 0. -1.
          2    1    6    6  503    0  0.25160539037E+03 -0.10220488078E+03 -0.29926805688E+02  0.27321552631E+03  0.00000000000E+00 0. -1.
         -2    1    6    6    0  503  0.37836191728E+03 -0.16851828914E+03 -0.16002839901E+03  0.44403292976E+03  0.00000000000E+00 0.  1.
<mgrwt>
<rscale>  0 0.21183813E+04</rscale>
<asrwt>0</asrwt>
<pdfrwt beam="1">  1        1 0.14450613E+00 0.21183813E+04</pdfrwt>
<pdfrwt beam="2">  1       -2 0.18375335E+00 0.21183813E+04</pdfrwt>
<totfact> 0.23245671E+00</totfact>
</mgrwt>
</event>
<event>
12    4  0.4207946E-008  0.1981320E+04  0.7818608E-02  0.8615404E-01
          1   -1    0    0  501    0  0.00000000000E+00  0.00000000000E+00  0.19084545295E+04  0.19084545295E+04  0.00000000000E+00 0. -1.
         -2   -1    0    0    0  501 -0.00000000000E+00 -0.00000000000E+00 -0.51424195462E+03  0.51424195462E+03  0.00000000000E+00 0.  1.
        -24    2    1    2    0    0  0.43184045696E+03 -0.62713666326E+03  0.80963250284E+03  0.11143619162E+04  0.80691486312E+02 0.  0.
        254    2    1    2    0    0 -0.43184045696E+03  0.62713666326E+03  0.58458007203E+03  0.13083345679E+04  0.88894257760E+03 0.  0.
         23    2    4    4    0    0  0.17851511773E+03  0.11693996504E+03 -0.10200893016E+03  0.25372133713E+03  0.91793749259E+02 0.  0.
         23    2    4    4    0    0 -0.61035557469E+03  0.51019669822E+03  0.68658900219E+03  0.10546132308E+04  0.89274913264E+02 0.  0.
          1    1    3    3  502    0  0.31213736201E+03 -0.47327360325E+03  0.64909570836E+03  0.86182531577E+03  0.00000000000E+00 0. -1.
         -2    1    3    3    0  502  0.11970309495E+03 -0.15386306001E+03  0.16053679448E+03  0.25253660043E+03  0.00000000000E+00 0.  1.
         11    1    5    5    0    0  0.33905463332E+02 -0.13123157494E+02 -0.61008264950E+01  0.36864858474E+02  0.00000000000E+00 0. -1.
        -11    1    5    5    0    0  0.14460965439E+03  0.13006312253E+03 -0.95908103668E+02  0.21685647866E+03  0.00000000000E+00 0.  1.
          1    1    6    6  503    0 -0.18236266434E+03  0.11915267823E+03  0.14846537305E+03  0.26361993299E+03  0.00000000000E+00 0. -1.
         -1    1    6    6    0  503 -0.42799291035E+03  0.39104401999E+03  0.53812362914E+03  0.79099329778E+03  0.00000000000E+00 0.  1.
<mgrwt>
<rscale>  0 0.19813202E+04</rscale>
<asrwt>0</asrwt>
<pdfrwt beam="1">  1        1 0.29360839E+00 0.19813202E+04</pdfrwt>
<pdfrwt beam="2">  1       -2 0.79114148E-01 0.19813202E+04</pdfrwt>
<totfact> 0.39760835E+00</totfact>
</mgrwt>
</event>
<event>
12    4  0.4207946E-008  0.2367291E+04  0.7818608E-02  0.8451852E-01
          1   -1    0    0  501    0  0.00000000000E+00  0.00000000000E+00  0.30868001929E+04  0.30868001929E+04  0.00000000000E+00 0. -1.
         -2   -1    0    0    0  501 -0.00000000000E+00 -0.00000000000E+00 -0.45387352005E+03  0.45387352005E+03  0.00000000000E+00 0.  1.
        -24    2    1    2    0    0  0.62047018369E+03 -0.37205000059E+03  0.21788144986E+04  0.22971875562E+04  0.80209707371E+02 0.  0.
        254    2    1    2    0    0 -0.62047018369E+03  0.37205000059E+03  0.45411217422E+03  0.12434861567E+04  0.90367887186E+03 0.  0.
         23    2    4    4    0    0  0.22690707165E+01 -0.20491968750E+03  0.30213379508E+03  0.37624253927E+03  0.90974673489E+02 0.  0.
         23    2    4    4    0    0 -0.62273925440E+03  0.57696968809E+03  0.15197837914E+03  0.86724361747E+03  0.91191361264E+02 0.  0.
          3    1    3    3  502    0  0.53169694652E+03 -0.34934262229E+03  0.19152838218E+04  0.20181808712E+04  0.00000000000E+00 0. -1.
         -4    1    3    3    0  502  0.88773237165E+02 -0.22707378305E+02  0.26353067676E+03  0.27900668497E+03  0.00000000000E+00 0.  1.
         11    1    5    5    0    0 -0.82075055902E+01 -0.18096457311E+03  0.19581710642E+03  0.26675809085E+03  0.00000000000E+00 0. -1.
        -11    1    5    5    0    0  0.10476576307E+02 -0.23955114391E+02  0.10631668866E+03  0.10948444842E+03  0.00000000000E+00 0.  1.
          1    1    6    6  503    0 -0.21550727735E+03  0.20373010334E+03  0.97430162324E+02  0.31215697674E+03  0.00000000000E+00 0. -1.
         -1    1    6    6    0  503 -0.40723197705E+03  0.37323958475E+03  0.54548216813E+02  0.55508664073E+03  0.00000000000E+00 0.  1.
<mgrwt>
<rscale>  0 0.23672912E+04</rscale>
<asrwt>0</asrwt>
<pdfrwt beam="1">  1        1 0.47489233E+00 0.23672912E+04</pdfrwt>
<pdfrwt beam="2">  1       -2 0.69826697E-01 0.23672912E+04</pdfrwt>
<totfact> 0.76248201E-01</totfact>
</mgrwt>
</event>
<event>
12    4  0.4207946E-008  0.1260187E+04  0.7818608E-02  0.9061747E-01
          1   -1    0    0  501    0  0.00000000000E+00  0.00000000000E+00  0.10175095753E+04  0.10175095753E+04  0.00000000000E+00 0. -1.
         -2   -1    0    0    0  501 -0.00000000000E+00 -0.00000000000E+00 -0.39018581957E+03  0.39018581957E+03  0.00000000000E+00 0.  1.
        -24    2    1    2    0    0  0.13447196614E+03  0.14265384800E+03  0.41662035062E+03  0.46823334281E+03  0.85071245065E+02 0.  0.
        254    2    1    2    0    0 -0.13447196614E+03 -0.14265384800E+03  0.21070340508E+03  0.93946205204E+03  0.89429312436E+03 0.  0.
         23    2    4    4    0    0  0.22395809732E+03 -0.34470342188E+03  0.28830876089E+03  0.51011677902E+03  0.90108313829E+02 0.  0.
         23    2    4    4    0    0 -0.35843006346E+03  0.20204957388E+03 -0.77605355809E+02  0.42934527301E+03  0.94966475726E+02 0.  0.
          3    1    3    3  502    0  0.12691238163E+03  0.14189939408E+03  0.41904244014E+03  0.46025944563E+03  0.00000000000E+00 0. -1.
         -4    1    3    3    0  502  0.75595845046E+01  0.75445392696E+00 -0.24220895173E+01  0.79738971801E+01  0.00000000000E+00 0.  1.
         11    1    5    5    0    0  0.19972483181E+03 -0.23556711397E+03  0.20475667876E+03  0.37054982272E+03  0.00000000000E+00 0. -1.
        -11    1    5    5    0    0  0.24233265517E+02 -0.10913630791E+03  0.83552082130E+02  0.13956695630E+03  0.00000000000E+00 0.  1.
          1    1    6    6  503    0 -0.24644481736E+03  0.18338920572E+03 -0.72875813608E+02  0.31571748920E+03  0.00000000000E+00 0. -1.
         -1    1    6    6    0  503 -0.11198524611E+03  0.18660368153E+02 -0.47295422003E+01  0.11362778381E+03  0.00000000000E+00 0.  1.
<mgrwt>
<rscale>  0 0.12601870E+04</rscale>
<asrwt>0</asrwt>
<pdfrwt beam="1">  1        1 0.15653993E+00 0.12601870E+04</pdfrwt>
<pdfrwt beam="2">  1       -2 0.60028588E-01 0.12601870E+04</pdfrwt>
<totfact> 0.32775850E+01</totfact>
</mgrwt>
</event>
<event>
12    4  0.4207946E-008  0.2516961E+04  0.7818608E-02  0.8396968E-01
         -2   -1    0    0    0  501 -0.00000000000E+00  0.00000000000E+00  0.84729614268E+03  0.84729614268E+03  0.00000000000E+00 0.  1.
          1   -1    0    0  501    0  0.00000000000E+00 -0.00000000000E+00 -0.18692090625E+04  0.18692090625E+04  0.00000000000E+00 0. -1.
        -24    2    1    2    0    0  0.45174802572E+03 -0.92277811181E+03 -0.85443751708E+03  0.13390558336E+04  0.86089096650E+02 0.  0.
        254    2    1    2    0    0 -0.45174802572E+03  0.92277811181E+03 -0.16747540271E+03  0.13774493715E+04  0.90206598330E+03 0.  0.
         23    2    4    4    0    0  0.18325107832E+03  0.13306570530E+03  0.17887695649E+03  0.30248075183E+03  0.90610154133E+02 0.  0.
         23    2    4    4    0    0 -0.63499910404E+03  0.78971240651E+03 -0.34635235920E+03  0.10749686197E+04  0.93423923500E+02 0.  0.
          3    1    3    3  502    0  0.30858181739E+03 -0.63761545977E+03 -0.63956146323E+03  0.95436632265E+03  0.00000000000E+00 0. -1.
         -4    1    3    3    0  502  0.14316620832E+03 -0.28516265204E+03 -0.21487605385E+03  0.38468951096E+03  0.00000000000E+00 0.  1.
         11    1    5    5    0    0  0.12346248493E+03  0.13226309096E+03  0.15445174255E+03  0.23789041845E+03  0.00000000000E+00 0.  1.
        -11    1    5    5    0    0  0.59788593394E+02  0.80261433701E+00  0.24425213943E+02  0.64590333378E+02  0.00000000000E+00 0. -1.
          4    1    6    6  503    0 -0.54201545777E+02  0.10779964771E+03 -0.58734703787E+02  0.13419514537E+03  0.00000000000E+00 0. -1.
         -4    1    6    6    0  503 -0.58079755826E+03  0.68191275880E+03 -0.28761765542E+03  0.94077347433E+03  0.00000000000E+00 0.  1.
<mgrwt>
<rscale>  0 0.25169614E+04</rscale>
<asrwt>0</asrwt>
<pdfrwt beam="1">  1        1 0.28757063E+00 0.25169614E+04</pdfrwt>
<pdfrwt beam="2">  1       -2 0.13035325E+00 0.25169614E+04</pdfrwt>
<totfact> 0.12290797E+00</totfact>
</mgrwt>
</event>
