<event>
12    6  0.1553355E-007  0.1537205E+04  0.7818608E-02  0.8860082E-01
         -1   -1    0    0    0  501 -0.00000000000E+00  0.00000000000E+00  0.13235144504E+04  0.13235144504E+04  0.00000000000E+00 0.  1.
          2   -1    0    0  501    0  0.00000000000E+00 -0.00000000000E+00 -0.44634910282E+03  0.44634910282E+03  0.00000000000E+00 0. -1.
         24    2    1    2    0    0  0.27768148074E+03  0.25243187526E+03  0.67858937852E+03  0.77960501870E+03  0.80446156872E+02 0.  0.
        254    2    1    2    0    0 -0.27768148074E+03 -0.25243187526E+03  0.19857596902E+03  0.99025853447E+03  0.89462321299E+03 0.  0.
         23    2    4    4    0    0  0.72601412576E+01 -0.40444052011E+03 -0.20704312933E+03  0.46379200821E+03  0.92797227985E+02 0.  0.
         23    2    4    4    0    0 -0.28494162200E+03  0.15200864485E+03  0.40561909835E+03  0.52646652626E+03  0.91333423591E+02 0.  0.
          2    1    3    3  502    0  0.11617704890E+03  0.59927610323E+02  0.26896307172E+03  0.29904775391E+03  0.00000000000E+00 0. -1.
         -1    1    3    3    0  502  0.16150443184E+03  0.19250426494E+03  0.40962630679E+03  0.48055726479E+03  0.00000000000E+00 0.  1.
         11    1    5    5    0    0  0.13314857941E+02 -0.10816858463E+03 -0.10234451268E+03  0.14950627887E+03  0.00000000000E+00 0. -1.
        -11    1    5    5    0    0 -0.60547166833E+01 -0.29627193547E+03 -0.10469861665E+03  0.31428572935E+03  0.00000000000E+00 0.  1.
          3    1    6    6  503    0 -0.89203875032E+02  0.14624309855E+02  0.15928423900E+03  0.18314658215E+03  0.00000000000E+00 0. -1.
         -3    1    6    6    0  503 -0.19573774697E+03  0.13738433499E+03  0.24633485935E+03  0.34331994411E+03  0.00000000000E+00 0.  1.
<mgrwt>
<rscale>  0 0.15372046E+04</rscale>
<asrwt>0</asrwt>
<pdfrwt beam="1">  1        2 0.68669093E-01 0.15372046E+04</pdfrwt>
<pdfrwt beam="2">  1       -1 0.20361761E+00 0.15372046E+04</pdfrwt>
<totfact> 0.10991221E+01</totfact>
</mgrwt>
</event>
<event>
12    6  0.1553355E-007  0.1895984E+04  0.7818608E-02  0.8656858E-01
         -1   -1    0    0    0  501 -0.00000000000E+00  0.00000000000E+00  0.25861716489E+03  0.25861716489E+03  0.00000000000E+00 0.  1.
          2   -1    0    0  501    0  0.00000000000E+00 -0.00000000000E+00 -0.34749781544E+04  0.34749781544E+04  0.00000000000E+00 0. -1.
         24    2    1    2    0    0  0.70452700874E+03  0.98001411701E+02 -0.92085212201E+03  0.11663290452E+04  0.79951411819E+02 0.  0.
        254    2    1    2    0    0 -0.70452700874E+03 -0.98001411701E+02 -0.22955088675E+04  0.25672662742E+04  0.90306842418E+03 0.  0.
         23    2    4    4    0    0  0.30809143979E+02  0.23345351229E+03 -0.20623943801E+03  0.32575330289E+03  0.90170742495E+02 0.  0.
         23    2    4    4    0    0 -0.73533615272E+03 -0.33145492399E+03 -0.20892694295E+04  0.22415129713E+04  0.93552269164E+02 0.  0.
          4    1    3    3  502    0  0.78217303809E+02 -0.62653047373E+01 -0.73718037259E+02  0.10766405935E+03  0.00000000000E+00 0. -1.
         -1    1    3    3    0  502  0.62630970493E+03  0.10426671644E+03 -0.84713408475E+03  0.10586649858E+04  0.00000000000E+00 0.  1.
         11    1    5    5    0    0  0.37349283555E+02  0.19619160325E+03 -0.20737185538E+03  0.28790484639E+03  0.00000000000E+00 0.  1.
        -11    1    5    5    0    0 -0.65401395762E+01  0.37261909040E+02  0.11324173703E+01  0.37848456508E+02  0.00000000000E+00 0. -1.
          3    1    6    6  503    0 -0.72829183793E+03 -0.32516699361E+03 -0.20821596016E+04  0.22296930689E+04  0.00000000000E+00 0.  1.
         -3    1    6    6    0  503 -0.70443147896E+01 -0.62879303777E+01 -0.71098279657E+01  0.11819902410E+02  0.00000000000E+00 0. -1.
<mgrwt>
<rscale>  0 0.18959842E+04</rscale>
<asrwt>0</asrwt>
<pdfrwt beam="1">  1        2 0.53461199E+00 0.18959842E+04</pdfrwt>
<pdfrwt beam="2">  1       -1 0.39787259E-01 0.18959842E+04</pdfrwt>
<totfact> 0.55888273E+00</totfact>
</mgrwt>
</event>
<event>
12    6  0.1553355E-007  0.1332120E+04  0.7818608E-02  0.9004475E-01
         -1   -1    0    0    0  501 -0.00000000000E+00  0.00000000000E+00  0.11964127544E+04  0.11964127544E+04  0.00000000000E+00 0.  1.
          2   -1    0    0  501    0  0.00000000000E+00 -0.00000000000E+00 -0.37080481082E+03  0.37080481082E+03  0.00000000000E+00 0. -1.
         24    2    1    2    0    0 -0.27810805666E+03  0.70306791419E+02  0.45489298980E+03  0.54356520318E+03  0.79046580166E+02 0.  0.
        254    2    1    2    0    0  0.27810805666E+03 -0.70306791419E+02  0.37071495377E+03  0.10236523620E+04  0.91002606845E+03 0.  0.
         23    2    4    4    0    0  0.15852762277E+03  0.26612538399E+03  0.53160506961E+03  0.62207561391E+03  0.91762695052E+02 0.  0.
         23    2    4    4    0    0  0.11958043388E+03 -0.33643217541E+03 -0.16089011584E+03  0.40157674812E+03  0.88837866024E+02 0.  0.
          4    1    3    3  502    0 -0.82586131056E+02  0.32069491108E+02  0.81655225924E+02  0.12048442731E+03  0.00000000000E+00 0. -1.
         -3    1    3    3    0  502 -0.19552192560E+03  0.38237300310E+02  0.37323776388E+03  0.42308077587E+03  0.00000000000E+00 0.  1.
         11    1    5    5    0    0  0.13085242224E+03  0.13175842244E+03  0.29521683983E+03  0.34876298658E+03  0.00000000000E+00 0. -1.
        -11    1    5    5    0    0  0.27675200539E+02  0.13436696155E+03  0.23638822978E+03  0.27331262733E+03  0.00000000000E+00 0.  1.
          4    1    6    6  503    0  0.12390723663E+03 -0.27803268393E+03 -0.15797419974E+03  0.34294463752E+03  0.00000000000E+00 0. -1.
         -4    1    6    6    0  503 -0.43268027466E+01 -0.58399491475E+02 -0.29159161058E+01  0.58632110599E+02  0.00000000000E+00 0.  1.
<mgrwt>
<rscale>  0 0.13321195E+04</rscale>
<asrwt>0</asrwt>
<pdfrwt beam="1">  1        2 0.57046895E-01 0.13321195E+04</pdfrwt>
<pdfrwt beam="2">  1       -1 0.18406350E+00 0.13321195E+04</pdfrwt>
<totfact> 0.18869266E+01</totfact>
</mgrwt>
</event>
<event>
12    6  0.1553355E-007  0.2084883E+04  0.7818608E-02  0.8567932E-01
         -1   -1    0    0    0  501 -0.00000000000E+00  0.00000000000E+00  0.74899674085E+03  0.74899674085E+03  0.00000000000E+00 0.  1.
          2   -1    0    0  501    0  0.00000000000E+00 -0.00000000000E+00 -0.14508528323E+04  0.14508528323E+04  0.00000000000E+00 0. -1.
         24    2    1    2    0    0  0.65321013680E+03  0.46260563330E+03 -0.57052432322E+03  0.98632106451E+03  0.81509411237E+02 0.  0.
        254    2    1    2    0    0 -0.65321013680E+03 -0.46260563330E+03 -0.13133176825E+03  0.12135285087E+04  0.90261617158E+03 0.  0.
         23    2    4    4    0    0 -0.68281638305E+03 -0.82216421330E+02  0.17533341508E+03  0.71557312753E+03  0.91133646311E+02 0.  0.
         23    2    4    4    0    0  0.29606246255E+02 -0.38038921197E+03 -0.30666518334E+03  0.49795538113E+03  0.91343004815E+02 0.  0.
          2    1    3    3  502    0  0.56366622138E+03  0.42613131802E+03 -0.48315028657E+03  0.85600333453E+03  0.00000000000E+00 0. -1.
         -1    1    3    3    0  502  0.89543915421E+02  0.36474315283E+02 -0.87374036654E+02  0.13031772997E+03  0.00000000000E+00 0.  1.
         11    1    5    5    0    0 -0.45666778090E+03 -0.11529297876E+02  0.11711098320E+03  0.47158601464E+03  0.00000000000E+00 0. -1.
        -11    1    5    5    0    0 -0.22614860216E+03 -0.70687123454E+02  0.58222431883E+02  0.24398711289E+03  0.00000000000E+00 0.  1.
          4    1    6    6  503    0  0.18335388391E+02 -0.31464094401E+03 -0.29201090175E+03  0.42965739474E+03  0.00000000000E+00 0. -1.
         -4    1    6    6    0  503  0.11270857864E+02 -0.65748267959E+02 -0.14654281590E+02  0.68297986395E+02  0.00000000000E+00 0.  1.
<mgrwt>
<rscale>  0 0.20848828E+04</rscale>
<asrwt>0</asrwt>
<pdfrwt beam="1">  1        2 0.22320813E+00 0.20848828E+04</pdfrwt>
<pdfrwt beam="2">  1       -1 0.11523027E+00 0.20848828E+04</pdfrwt>
<totfact> 0.97209532E+00</totfact>
</mgrwt>
</event>
<event>
12    6  0.1553355E-007  0.1491034E+04  0.7818608E-02  0.8890437E-01
          2   -1    0    0  501    0  0.00000000000E+00  0.00000000000E+00  0.10325918159E+04  0.10325918159E+04  0.00000000000E+00 0. -1.
         -1   -1    0    0    0  501 -0.00000000000E+00 -0.00000000000E+00 -0.53825298123E+03  0.53825298123E+03  0.00000000000E+00 0.  1.
         24    2    1    2    0    0 -0.21059431679E+02 -0.45371893121E+03  0.29841913368E+03  0.54920632000E+03  0.79178496951E+02 0.  0.
        254    2    1    2    0    0  0.21059431679E+02  0.45371893121E+03  0.19591970097E+03  0.10216384771E+04  0.89389948008E+03 0.  0.
         23    2    4    4    0    0 -0.13129945700E+03  0.10254576499E+03  0.49302077764E+03  0.52868442225E+03  0.93180200774E+02 0.  0.
         23    2    4    4    0    0  0.15235888868E+03  0.35117316622E+03 -0.29710107667E+03  0.49295405487E+03  0.90547373345E+02 0.  0.
          4    1    3    3  502    0 -0.58011232196E+01 -0.40803338089E+03  0.28921085984E+03  0.50016778624E+03  0.00000000000E+00 0. -1.
         -3    1    3    3    0  502 -0.15258308459E+02 -0.45685550325E+02  0.92082738356E+01  0.49038533752E+02  0.00000000000E+00 0.  1.
         11    1    5    5    0    0 -0.40719057832E+02  0.53493723176E+02  0.32276525090E+03  0.32969232214E+03  0.00000000000E+00 0.  1.
        -11    1    5    5    0    0 -0.90580399165E+02  0.49052041817E+02  0.17025552674E+03  0.19899210011E+03  0.00000000000E+00 0. -1.
          3    1    6    6  503    0  0.79867990531E+02  0.12246184641E+03 -0.15950597287E+03  0.21637457133E+03  0.00000000000E+00 0. -1.
         -3    1    6    6    0  503  0.72490898145E+02  0.22871131981E+03 -0.13759510380E+03  0.27657948353E+03  0.00000000000E+00 0.  1.
<mgrwt>
<rscale>  0 0.14910340E+04</rscale>
<asrwt>0</asrwt>
<pdfrwt beam="1">  1        2 0.15886028E+00 0.14910340E+04</pdfrwt>
<pdfrwt beam="2">  1       -1 0.82808151E-01 0.14910340E+04</pdfrwt>
<totfact> 0.38371820E+01</totfact>
</mgrwt>
</event>
<event>
12    6  0.1553355E-007  0.1789907E+04  0.7818608E-02  0.8711685E-01
          2   -1    0    0  501    0  0.00000000000E+00  0.00000000000E+00  0.34151781148E+04  0.34151781148E+04  0.00000000000E+00 0. -1.
         -1   -1    0    0    0  501 -0.00000000000E+00 -0.00000000000E+00 -0.23452417818E+03  0.23452417818E+03  0.00000000000E+00 0.  1.
         24    2    1    2    0    0 -0.57562248224E+03 -0.19386833746E+03  0.17649881018E+04  0.18683256783E+04  0.80818726452E+02 0.  0.
        254    2    1    2    0    0  0.57562248224E+03  0.19386833746E+03  0.14156658348E+04  0.17813766147E+04  0.89457627568E+03 0.  0.
         23    2    4    4    0    0 -0.12905149638E+03  0.95247162224E+02  0.84490155357E+03  0.86476018071E+03  0.90693022330E+02 0.  0.
         23    2    4    4    0    0  0.70467397862E+03  0.98621175233E+02  0.57076428127E+03  0.91661643394E+03  0.90123636518E+02 0.  0.
          2    1    3    3  502    0 -0.51913707348E+03 -0.15064571520E+03  0.15928323842E+04  0.16820560147E+04  0.00000000000E+00 0. -1.
         -1    1    3    3    0  502 -0.56485408756E+02 -0.43222622258E+02  0.17215571762E+03  0.18626966362E+03  0.00000000000E+00 0.  1.
         11    1    5    5    0    0  0.73684423016E+01  0.11869820653E+02  0.19429694130E+03  0.19479858312E+03  0.00000000000E+00 0.  1.
        -11    1    5    5    0    0 -0.13641993868E+03  0.83377341571E+02  0.65060461226E+03  0.66996159760E+03  0.00000000000E+00 0. -1.
          3    1    6    6  503    0  0.61528194122E+03  0.62261938279E+02  0.46723865248E+03  0.77508733348E+03  0.00000000000E+00 0. -1.
         -3    1    6    6    0  503  0.89392037394E+02  0.36359236954E+02  0.10352562879E+03  0.14152910046E+03  0.00000000000E+00 0.  1.
<mgrwt>
<rscale>  0 0.17899071E+04</rscale>
<asrwt>0</asrwt>
<pdfrwt beam="1">  1        2 0.52541198E+00 0.17899071E+04</pdfrwt>
<pdfrwt beam="2">  1       -1 0.36080645E-01 0.17899071E+04</pdfrwt>
<totfact> 0.74115217E+00</totfact>
</mgrwt>
</event>
<event>
12    6  0.1553355E-007  0.4316153E+04  0.7818608E-02  0.7943638E-01
         -1   -1    0    0    0  501 -0.00000000000E+00  0.00000000000E+00  0.12374719346E+04  0.12374719346E+04  0.00000000000E+00 0.  1.
          2   -1    0    0  501    0  0.00000000000E+00 -0.00000000000E+00 -0.37635559944E+04  0.37635559944E+04  0.00000000000E+00 0. -1.
         24    2    1    2    0    0 -0.14410710481E+04 -0.14756766396E+04 -0.11776186533E+04  0.23764354858E+04  0.79703292904E+02 0.  0.
        254    2    1    2    0    0  0.14410710481E+04  0.14756766396E+04 -0.13484654065E+04  0.26245924431E+04  0.90322711968E+03 0.  0.
         23    2    4    4    0    0  0.14890551655E+04  0.14274760882E+04 -0.14051448986E+04  0.24975437594E+04  0.91210610207E+02 0.  0.
         23    2    4    4    0    0 -0.47984117346E+02  0.48200551382E+02  0.56679492171E+02  0.12704868379E+03  0.91120988523E+02 0.  0.
          4    1    3    3  502    0 -0.12365156291E+04 -0.12852465164E+04 -0.99016263084E+03  0.20399145925E+04  0.00000000000E+00 0. -1.
         -3    1    3    3    0  502 -0.20455541901E+03 -0.19043012320E+03 -0.18745602249E+03  0.33652089332E+03  0.00000000000E+00 0.  1.
         11    1    5    5    0    0  0.53036453973E+03  0.53536593747E+03 -0.56118081924E+03  0.93958881640E+03  0.00000000000E+00 0.  1.
        -11    1    5    5    0    0  0.95869062574E+03  0.89211015078E+03 -0.84396407939E+03  0.15579549430E+04  0.00000000000E+00 0. -1.
          4    1    6    6  503    0 -0.58036049038E+02  0.31323298680E+02  0.75220042413E+02  0.10003692723E+03  0.00000000000E+00 0. -1.
         -4    1    6    6    0  503  0.10051931692E+02  0.16877252702E+02 -0.18540550242E+02  0.27011756566E+02  0.00000000000E+00 0.  1.
<mgrwt>
<rscale>  0 0.43161533E+04</rscale>
<asrwt>0</asrwt>
<pdfrwt beam="1">  1        2 0.57900861E+00 0.43161533E+04</pdfrwt>
<pdfrwt beam="2">  1       -1 0.19038030E+00 0.43161533E+04</pdfrwt>
<totfact> 0.79961219E-02</totfact>
</mgrwt>
</event>
<event>
12    6  0.1553355E-007  0.2598368E+04  0.7818608E-02  0.8368756E-01
          2   -1    0    0  501    0  0.00000000000E+00  0.00000000000E+00  0.40465373519E+04  0.40465373519E+04  0.00000000000E+00 0. -1.
         -1   -1    0    0    0  501 -0.00000000000E+00 -0.00000000000E+00 -0.41711680910E+03  0.41711680910E+03  0.00000000000E+00 0.  1.
         24    2    1    2    0    0 -0.18903674755E+03  0.53330400209E+02  0.34756188409E+04  0.34822234284E+04  0.85875806951E+02 0.  0.
        254    2    1    2    0    0  0.18903674755E+03 -0.53330400209E+02  0.15380170192E+03  0.98143073267E+03  0.94919560471E+03 0.  0.
         23    2    4    4    0    0 -0.28649906392E+03  0.13011939506E+03 -0.17097256644E+03  0.37019361887E+03  0.93802592610E+02 0.  0.
         23    2    4    4    0    0  0.47553581147E+03 -0.18344979527E+03  0.32477426836E+03  0.61123711380E+03  0.91347405692E+02 0.  0.
          4    1    3    3  502    0 -0.15052665016E+03  0.27696383069E+02  0.19870032445E+04  0.19928891730E+04  0.00000000000E+00 0. -1.
         -3    1    3    3    0  502 -0.38510097389E+02  0.25634017140E+02  0.14886155964E+04  0.14893342554E+04  0.00000000000E+00 0.  1.
         11    1    5    5    0    0 -0.22048984784E+03  0.13589313926E+03 -0.15568089458E+03  0.30219076630E+03  0.00000000000E+00 0. -1.
        -11    1    5    5    0    0 -0.66009216075E+02 -0.57737442051E+01 -0.15291671856E+02  0.68002852566E+02  0.00000000000E+00 0.  1.
          1    1    6    6  503    0  0.34872793851E+03 -0.17565158668E+03  0.25390976904E+03  0.46576262819E+03  0.00000000000E+00 0. -1.
         -1    1    6    6    0  503  0.12680787296E+03 -0.77982085897E+01  0.70864499316E+02  0.14547448561E+03  0.00000000000E+00 0.  1.
<mgrwt>
<rscale>  0 0.25983678E+04</rscale>
<asrwt>0</asrwt>
<pdfrwt beam="1">  1        2 0.62254418E+00 0.25983678E+04</pdfrwt>
<pdfrwt beam="2">  1       -1 0.64171819E-01 0.25983678E+04</pdfrwt>
<totfact> 0.77851104E-01</totfact>
</mgrwt>
</event>
<event>
12    6  0.1553355E-007  0.1748393E+04  0.7818608E-02  0.8734235E-01
         -1   -1    0    0    0  501 -0.00000000000E+00  0.00000000000E+00  0.56594111615E+03  0.56594111615E+03  0.00000000000E+00 0.  1.
          2   -1    0    0  501    0  0.00000000000E+00 -0.00000000000E+00 -0.13503519927E+04  0.13503519927E+04  0.00000000000E+00 0. -1.
         24    2    1    2    0    0 -0.47677677683E+03 -0.31114201303E+03 -0.60044848696E+03  0.83129003893E+03  0.79870496054E+02 0.  0.
        254    2    1    2    0    0  0.47677677683E+03  0.31114201303E+03 -0.18396238960E+03  0.10850030699E+04  0.90513206428E+03 0.  0.
         23    2    4    4    0    0  0.21973065055E+03  0.38154254293E+03  0.28895641916E+03  0.53514160862E+03  0.94997148592E+02 0.  0.
         23    2    4    4    0    0  0.25704612628E+03 -0.70400529908E+02 -0.47291880876E+03  0.54986146132E+03  0.87558445110E+02 0.  0.
          2    1    3    3  502    0 -0.30154901809E+03 -0.21709363100E+03 -0.34043601041E+03  0.50394258811E+03  0.00000000000E+00 0. -1.
         -1    1    3    3    0  502 -0.17522775874E+03 -0.94048382029E+02 -0.26001247655E+03  0.32734745082E+03  0.00000000000E+00 0.  1.
         11    1    5    5    0    0  0.11000109750E+03  0.27601830608E+03  0.20818515162E+03  0.36280491190E+03  0.00000000000E+00 0. -1.
        -11    1    5    5    0    0  0.10972955305E+03  0.10552423686E+03  0.80771267541E+02  0.17233669672E+03  0.00000000000E+00 0.  1.
          1    1    6    6  503    0  0.11033668450E+03  0.10033793730E+02 -0.22454668755E+03  0.25039184462E+03  0.00000000000E+00 0. -1.
         -1    1    6    6    0  503  0.14670944179E+03 -0.80434323638E+02 -0.24837212122E+03  0.29946961670E+03  0.00000000000E+00 0.  1.
<mgrwt>
<rscale>  0 0.17483932E+04</rscale>
<asrwt>0</asrwt>
<pdfrwt beam="1">  1        2 0.20774646E+00 0.17483932E+04</pdfrwt>
<pdfrwt beam="2">  1       -1 0.87067865E-01 0.17483932E+04</pdfrwt>
<totfact> 0.21696400E+01</totfact>
</mgrwt>
</event>
<event>
12    6  0.1553355E-007  0.1571255E+04  0.7818608E-02  0.8838405E-01
         -1   -1    0    0    0  501 -0.00000000000E+00  0.00000000000E+00  0.76941175012E+03  0.76941175012E+03  0.00000000000E+00 0.  1.
          2   -1    0    0  501    0  0.00000000000E+00 -0.00000000000E+00 -0.80218457856E+03  0.80218457856E+03  0.00000000000E+00 0. -1.
         24    2    1    2    0    0 -0.31440848507E+03 -0.30992315142E+03  0.24493630074E+03  0.51130939780E+03  0.80860704888E+02 0.  0.
        254    2    1    2    0    0  0.31440848507E+03  0.30992315142E+03 -0.27770912917E+03  0.10602869309E+04  0.92313647967E+03 0.  0.
         23    2    4    4    0    0 -0.17499446509E+03  0.29818931938E+03  0.16524977915E+03  0.39367317361E+03  0.90172862371E+02 0.  0.
         23    2    4    4    0    0  0.48940295016E+03  0.11733832037E+02 -0.44295890832E+03  0.66661375726E+03  0.92240861188E+02 0.  0.
          4    1    3    3  502    0 -0.56520831346E+02 -0.40545417567E+02  0.92955529922E+01  0.70177935045E+02  0.00000000000E+00 0. -1.
         -1    1    3    3    0  502 -0.25788765372E+03 -0.26937773385E+03  0.23564074775E+03  0.44113146276E+03  0.00000000000E+00 0.  1.
         11    1    5    5    0    0 -0.15526917725E+02  0.10555781534E+03  0.39578115585E+02  0.11379791205E+03  0.00000000000E+00 0.  1.
        -11    1    5    5    0    0 -0.15946754737E+03  0.19263150404E+03  0.12567166357E+03  0.27987526156E+03  0.00000000000E+00 0. -1.
          1    1    6    6  503    0  0.13344949580E+03  0.43900039912E+02 -0.11522657256E+03  0.18169519658E+03  0.00000000000E+00 0. -1.
         -1    1    6    6    0  503  0.35595345435E+03 -0.32166207874E+02 -0.32773233576E+03  0.48491856069E+03  0.00000000000E+00 0.  1.
<mgrwt>
<rscale>  0 0.15712546E+04</rscale>
<asrwt>0</asrwt>
<pdfrwt beam="1">  1        2 0.12341301E+00 0.15712546E+04</pdfrwt>
<pdfrwt beam="2">  1       -1 0.11837104E+00 0.15712546E+04</pdfrwt>
<totfact> 0.24111976E+01</totfact>
</mgrwt>
</event>
<event>
12    6  0.1553355E-007  0.1573167E+04  0.7818608E-02  0.8837204E-01
          2   -1    0    0  501    0  0.00000000000E+00  0.00000000000E+00  0.21297048759E+04  0.21297048759E+04  0.00000000000E+00 0. -1.
         -1   -1    0    0    0  501 -0.00000000000E+00 -0.00000000000E+00 -0.29051623823E+03  0.29051623823E+03  0.00000000000E+00 0.  1.
         24    2    1    2    0    0 -0.33644005356E+03  0.31969765310E+03  0.71486314519E+03  0.85599283353E+03  0.79346806275E+02 0.  0.
        254    2    1    2    0    0  0.33644005356E+03 -0.31969765310E+03  0.11243254924E+04  0.15642282806E+04  0.98351604039E+03 0.  0.
         23    2    4    4    0    0  0.21729298479E+03  0.22087387988E+03  0.90659936673E+03  0.96240090037E+03  0.91058054227E+02 0.  0.
         23    2    4    4    0    0  0.11914706877E+03 -0.54057153298E+03  0.21772612572E+03  0.60182738019E+03  0.91530997260E+02 0.  0.
          4    1    3    3  502    0 -0.15865817264E+03  0.10582475987E+03  0.33024835150E+03  0.38135976350E+03  0.00000000000E+00 0. -1.
         -3    1    3    3    0  502 -0.17778188093E+03  0.21387289323E+03  0.38461479369E+03  0.47463307003E+03  0.00000000000E+00 0.  1.
         11    1    5    5    0    0 -0.24967343429E+01  0.34903228513E+02  0.93556398358E+02  0.99886278921E+02  0.00000000000E+00 0. -1.
        -11    1    5    5    0    0  0.21978971913E+03  0.18597065137E+03  0.81304296837E+03  0.86251462145E+03  0.00000000000E+00 0.  1.
          3    1    6    6  503    0  0.11259330785E+03 -0.30504027508E+03  0.13567415708E+03  0.35232697781E+03  0.00000000000E+00 0. -1.
         -3    1    6    6    0  503  0.65537609246E+01 -0.23553125790E+03  0.82051968645E+02  0.24950040238E+03  0.00000000000E+00 0.  1.
<mgrwt>
<rscale>  0 0.15731673E+04</rscale>
<asrwt>0</asrwt>
<pdfrwt beam="1">  1        2 0.32764689E+00 0.15731673E+04</pdfrwt>
<pdfrwt beam="2">  1       -1 0.44694807E-01 0.15731673E+04</pdfrwt>
<totfact> 0.30717644E+01</totfact>
</mgrwt>
</event>
<event>
12    6  0.1553355E-007  0.1507725E+04  0.7818608E-02  0.8879332E-01
          2   -1    0    0  501    0  0.00000000000E+00  0.00000000000E+00  0.62594933221E+03  0.62594933221E+03  0.00000000000E+00 0. -1.
         -1   -1    0    0    0  501 -0.00000000000E+00 -0.00000000000E+00 -0.90791483701E+03  0.90791483701E+03  0.00000000000E+00 0.  1.
         24    2    1    2    0    0 -0.39252227344E+03  0.28636500434E+03 -0.86709526769E+02  0.50009734757E+03  0.80623595557E+02 0.  0.
        254    2    1    2    0    0  0.39252227344E+03 -0.28636500434E+03 -0.19525597803E+03  0.10337668216E+04  0.89133063098E+03 0.  0.
         23    2    4    4    0    0 -0.94422653329E+02 -0.39160113114E+03  0.12964723313E+03  0.43286228135E+03  0.91072861998E+02 0.  0.
         23    2    4    4    0    0  0.48694492677E+03  0.10523612680E+03 -0.32490321116E+03  0.60090454030E+03  0.85639744516E+02 0.  0.
          2    1    3    3  502    0 -0.34216580967E+03  0.25445967392E+03 -0.48199790904E+02  0.42912747151E+03  0.00000000000E+00 0. -1.
         -1    1    3    3    0  502 -0.50356463765E+02  0.31905330425E+02 -0.38509735864E+02  0.70969876066E+02  0.00000000000E+00 0.  1.
         11    1    5    5    0    0 -0.72410300389E+02 -0.38068626465E+03  0.12851509969E+03  0.40826635245E+03  0.00000000000E+00 0.  1.
        -11    1    5    5    0    0 -0.22012352940E+02 -0.10914866484E+02  0.11321334344E+01  0.24595928899E+02  0.00000000000E+00 0. -1.
          1    1    6    6  503    0  0.15889813201E+02  0.21810563753E+02 -0.20408394611E+02  0.33833259160E+02  0.00000000000E+00 0. -1.
         -1    1    6    6    0  503  0.47105511357E+03  0.83425563042E+02 -0.30449481655E+03  0.56707128114E+03  0.00000000000E+00 0.  1.
<mgrwt>
<rscale>  0 0.15077250E+04</rscale>
<asrwt>0</asrwt>
<pdfrwt beam="1">  1        2 0.96299898E-01 0.15077250E+04</pdfrwt>
<pdfrwt beam="2">  1       -1 0.13967921E+00 0.15077250E+04</pdfrwt>
<totfact> 0.21916452E+01</totfact>
</mgrwt>
</event>
<event>
12    6  0.2417683E-007  0.1958610E+04  0.7818608E-02  0.8626220E-01
         -1   -1    0    0    0  501 -0.00000000000E+00  0.00000000000E+00  0.95492925305E+03  0.95492925305E+03  0.00000000000E+00 0.  1.
          2   -1    0    0  501    0  0.00000000000E+00 -0.00000000000E+00 -0.10043026758E+04  0.10043026758E+04  0.00000000000E+00 0. -1.
         24    2    1    2    0    0  0.37724972911E+02  0.60234768136E+03 -0.49775951598E+03  0.78556533423E+03  0.71431476144E+02 0.  0.
        254    2    1    2    0    0 -0.37724972911E+02 -0.60234768136E+03  0.44838609327E+03  0.11736665946E+04  0.90121988646E+03 0.  0.
         23    2    4    4    0    0  0.27518849402E+03 -0.64407351993E+03  0.46259883652E+03  0.84413684661E+03  0.89498189577E+02 0.  0.
         23    2    4    4    0    0 -0.31291346694E+03  0.41725838574E+02 -0.14212743247E+02  0.32952974796E+03  0.93445006960E+02 0.  0.
          2    1    3    3  502    0  0.31153065180E+02  0.59991134055E+03 -0.49253054410E+03  0.77682074307E+03  0.00000000000E+00 0. -1.
         -1    1    3    3    0  502  0.65719077311E+01  0.24363408107E+01 -0.52289718807E+01  0.87445911684E+01  0.00000000000E+00 0.  1.
         11    1    5    5    0    0  0.15112214984E+03 -0.41722940018E+03  0.24952800780E+03  0.50909969870E+03  0.00000000000E+00 0. -1.
        -11    1    5    5    0    0  0.12406634419E+03 -0.22684411975E+03  0.21307082872E+03  0.33503714791E+03  0.00000000000E+00 0.  1.
          2    1    6    6  503    0 -0.20584564437E+03  0.70306626231E+02  0.20183458754E+01  0.21753051445E+03  0.00000000000E+00 0. -1.
         -2    1    6    6    0  503 -0.10706782257E+03 -0.28580787658E+02 -0.16231089123E+02  0.11199923351E+03  0.00000000000E+00 0.  1.
<mgrwt>
<rscale>  0 0.19586097E+04</rscale>
<asrwt>0</asrwt>
<pdfrwt beam="1">  1        2 0.15450810E+00 0.19586097E+04</pdfrwt>
<pdfrwt beam="2">  1       -1 0.14691219E+00 0.19586097E+04</pdfrwt>
<totfact> 0.98201654E+00</totfact>
</mgrwt>
</event>
<event>
12    6  0.1553355E-007  0.2320140E+04  0.7818608E-02  0.8470022E-01
         -1   -1    0    0    0  501 -0.00000000000E+00  0.00000000000E+00  0.13684219365E+04  0.13684219365E+04  0.00000000000E+00 0.  1.
          2   -1    0    0  501    0  0.00000000000E+00 -0.00000000000E+00 -0.98344074145E+03  0.98344074145E+03  0.00000000000E+00 0. -1.
         24    2    1    2    0    0 -0.62021627603E+03  0.66443273172E+03  0.54134227100E+03  0.10609235725E+04  0.79801555142E+02 0.  0.
        254    2    1    2    0    0  0.62021627603E+03 -0.66443273172E+03 -0.15636107595E+03  0.12909391055E+04  0.90329170481E+03 0.  0.
         23    2    4    4    0    0  0.80184394502E+03 -0.52366184835E+03  0.58770422969E+02  0.96284066631E+03  0.80204379658E+02 0.  0.
         23    2    4    4    0    0 -0.18162766899E+03 -0.14077088337E+03 -0.21513149892E+03  0.32809843917E+03  0.92530925724E+02 0.  0.
          2    1    3    3  502    0 -0.18369037291E+03  0.19532030628E+03  0.11820828495E+03  0.29302794027E+03  0.00000000000E+00 0. -1.
         -1    1    3    3    0  502 -0.43652590312E+03  0.46911242544E+03  0.42313398606E+03  0.76789563220E+03  0.00000000000E+00 0.  1.
         11    1    5    5    0    0  0.94222296634E+02 -0.64253432620E+02 -0.18895685717E+02  0.11560013722E+03  0.00000000000E+00 0.  1.
        -11    1    5    5    0    0  0.70762164838E+03 -0.45940841573E+03  0.77666108686E+02  0.84724052909E+03  0.00000000000E+00 0. -1.
          3    1    6    6  503    0 -0.11270763483E+03 -0.70850723901E+02 -0.17987856923E+03  0.22378368058E+03  0.00000000000E+00 0. -1.
         -3    1    6    6    0  503 -0.68920034157E+02 -0.69920159471E+02 -0.35252929686E+02  0.10431475859E+03  0.00000000000E+00 0.  1.
<mgrwt>
<rscale>  0 0.23201396E+04</rscale>
<asrwt>0</asrwt>
<pdfrwt beam="1">  1        2 0.15129858E+00 0.23201396E+04</pdfrwt>
<pdfrwt beam="2">  1       -1 0.21052645E+00 0.23201396E+04</pdfrwt>
<totfact> 0.33974880E+00</totfact>
</mgrwt>
</event>
<event>
12    6  0.1553355E-007  0.2094397E+04  0.7818608E-02  0.8563715E-01
         -1   -1    0    0    0  501 -0.00000000000E+00  0.00000000000E+00  0.73820179092E+03  0.73820179092E+03  0.00000000000E+00 0.  1.
          2   -1    0    0  501    0  0.00000000000E+00 -0.00000000000E+00 -0.14855353701E+04  0.14855353701E+04  0.00000000000E+00 0. -1.
         24    2    1    2    0    0 -0.40812826849E+03 -0.51164584246E+03  0.26956770867E+03  0.71215004986E+03  0.78363207684E+02 0.  0.
        254    2    1    2    0    0  0.40812826849E+03  0.51164584246E+03 -0.10169012878E+04  0.15115871112E+04  0.90689426825E+03 0.  0.
         23    2    4    4    0    0  0.14531300098E+02 -0.24045587918E+03 -0.17049238662E+03  0.30939529405E+03  0.92884904951E+02 0.  0.
         23    2    4    4    0    0  0.39359696839E+03  0.75210172164E+03 -0.84640890122E+03  0.12021918171E+04  0.91003098127E+02 0.  0.
          4    1    3    3  502    0 -0.20530980021E+02 -0.58859311052E+02  0.15522224385E+02  0.64240789908E+02  0.00000000000E+00 0. -1.
         -3    1    3    3    0  502 -0.38759728846E+03 -0.45278653141E+03  0.25404548428E+03  0.64790925995E+03  0.00000000000E+00 0.  1.
         11    1    5    5    0    0  0.39941093746E+02 -0.50601270242E+02 -0.61056777804E+02  0.88790256423E+02  0.00000000000E+00 0. -1.
        -11    1    5    5    0    0 -0.25409793648E+02 -0.18985460894E+03 -0.10943560882E+03  0.22060503762E+03  0.00000000000E+00 0.  1.
          2    1    6    6  503    0  0.39836317885E+03  0.74542104337E+03 -0.84126230750E+03  0.11925049368E+04  0.00000000000E+00 0. -1.
         -2    1    6    6    0  503 -0.47662104642E+01  0.66806782628E+01 -0.51465937277E+01  0.96868803667E+01  0.00000000000E+00 0.  1.
<mgrwt>
<rscale>  0 0.20943972E+04</rscale>
<asrwt>0</asrwt>
<pdfrwt beam="1">  1        2 0.22854390E+00 0.20943972E+04</pdfrwt>
<pdfrwt beam="2">  1       -1 0.11356951E+00 0.20943972E+04</pdfrwt>
<totfact> 0.96111032E+00</totfact>
</mgrwt>
</event>
<event>
12    6  0.1553355E-007  0.1840420E+04  0.7818608E-02  0.8685095E-01
         -1   -1    0    0    0  501 -0.00000000000E+00  0.00000000000E+00  0.37077887193E+03  0.37077887193E+03  0.00000000000E+00 0.  1.
          2   -1    0    0  501    0  0.00000000000E+00 -0.00000000000E+00 -0.22838042074E+04  0.22838042074E+04  0.00000000000E+00 0. -1.
         24    2    1    2    0    0 -0.91561378415E+02  0.64561686356E+03 -0.38718852345E+03  0.76254943695E+03  0.79762588766E+02 0.  0.
        254    2    1    2    0    0  0.91561378415E+02 -0.64561686356E+03 -0.15258368120E+04  0.18920336424E+04  0.90907024284E+03 0.  0.
         23    2    4    4    0    0 -0.62265435589E+02 -0.32689465415E+03 -0.23584772872E+02  0.34590839751E+03  0.91429090399E+02 0.  0.
         23    2    4    4    0    0  0.15382681400E+03 -0.31872220941E+03 -0.15022520391E+04  0.15461252448E+04  0.92171298244E+02 0.  0.
          2    1    3    3  502    0 -0.18052400832E+02  0.24123027238E+03 -0.10337296417E+03  0.26306634755E+03  0.00000000000E+00 0. -1.
         -1    1    3    3    0  502 -0.73508977583E+02  0.40438659118E+03 -0.28381555928E+03  0.49948308940E+03  0.00000000000E+00 0.  1.
         11    1    5    5    0    0 -0.43048882008E+02 -0.30768597154E+03 -0.11697951898E+01  0.31068510062E+03  0.00000000000E+00 0. -1.
        -11    1    5    5    0    0 -0.19216553582E+02 -0.19208682614E+02 -0.22414977682E+02  0.35223296890E+02  0.00000000000E+00 0.  1.
          1    1    6    6  503    0  0.90859024697E+02 -0.19066987483E+03 -0.10786461436E+04  0.10991305049E+04  0.00000000000E+00 0. -1.
         -1    1    6    6    0  503  0.62967789307E+02 -0.12805233458E+03 -0.42360589548E+03  0.44699473997E+03  0.00000000000E+00 0.  1.
<mgrwt>
<rscale>  0 0.18404199E+04</rscale>
<asrwt>0</asrwt>
<pdfrwt beam="1">  1        2 0.35135450E+00 0.18404199E+04</pdfrwt>
<pdfrwt beam="2">  1       -1 0.57042903E-01 0.18404199E+04</pdfrwt>
<totfact> 0.15444300E+01</totfact>
</mgrwt>
</event>
<event>
12    6  0.1553355E-007  0.1646864E+04  0.7818608E-02  0.8792264E-01
          2   -1    0    0  501    0  0.00000000000E+00  0.00000000000E+00  0.15174606817E+04  0.15174606817E+04  0.00000000000E+00 0. -1.
         -1   -1    0    0    0  501 -0.00000000000E+00 -0.00000000000E+00 -0.44682551735E+03  0.44682551735E+03  0.00000000000E+00 0.  1.
         24    2    1    2    0    0 -0.34611547844E+03 -0.27036651092E+03 -0.72571862378E+02  0.45240021405E+03  0.80655463667E+02 0.  0.
        254    2    1    2    0    0  0.34611547844E+03  0.27036651092E+03  0.11432070267E+04  0.15118859850E+04  0.88655679514E+03 0.  0.
         23    2    4    4    0    0  0.54550316924E+03 -0.96794926220E+02  0.60371572924E+03  0.82341618871E+03  0.81231599198E+02 0.  0.
         23    2    4    4    0    0 -0.19938769080E+03  0.36716143714E+03  0.53949129747E+03  0.68846979627E+03  0.91525013822E+02 0.  0.
          4    1    3    3  502    0 -0.12743199378E+03 -0.55397801333E+02 -0.36277333977E+02  0.14361014724E+03  0.00000000000E+00 0. -1.
         -3    1    3    3    0  502 -0.21868348466E+03 -0.21496870959E+03 -0.36294528401E+02  0.30879006681E+03  0.00000000000E+00 0.  1.
         11    1    5    5    0    0  0.47915528616E+02  0.14139769156E+02  0.60094467923E+02  0.78148423076E+02  0.00000000000E+00 0.  1.
        -11    1    5    5    0    0  0.49758764063E+03 -0.11093469538E+03  0.54362126131E+03  0.74526776563E+03  0.00000000000E+00 0. -1.
          1    1    6    6  503    0 -0.17901082224E+03  0.24720372660E+03  0.36595525016E+03  0.47652681146E+03  0.00000000000E+00 0. -1.
         -1    1    6    6    0  503 -0.20376868569E+02  0.11995771055E+03  0.17353604731E+03  0.21194298481E+03  0.00000000000E+00 0.  1.
<mgrwt>
<rscale>  0 0.16468639E+04</rscale>
<asrwt>0</asrwt>
<pdfrwt beam="1">  1        2 0.23345549E+00 0.16468639E+04</pdfrwt>
<pdfrwt beam="2">  1       -1 0.68742388E-01 0.16468639E+04</pdfrwt>
<totfact> 0.28930900E+01</totfact>
</mgrwt>
</event>
<event>
12    6  0.1553355E-007  0.1585543E+04  0.7818608E-02  0.8829479E-01
         -1   -1    0    0    0  501 -0.00000000000E+00  0.00000000000E+00  0.38423919514E+03  0.38423919514E+03  0.00000000000E+00 0.  1.
          2   -1    0    0  501    0  0.00000000000E+00 -0.00000000000E+00 -0.16356657402E+04  0.16356657402E+04  0.00000000000E+00 0. -1.
         24    2    1    2    0    0 -0.41670517098E+03 -0.26554597667E+03 -0.16158853931E+03  0.52609762898E+03  0.80684533442E+02 0.  0.
        254    2    1    2    0    0  0.41670517098E+03  0.26554597667E+03 -0.10898380058E+04  0.14938073064E+04  0.89417868712E+03 0.  0.
         23    2    4    4    0    0  0.69338612632E+02  0.55061615013E+03 -0.60574413809E+03  0.82731033779E+03  0.97624004182E+02 0.  0.
         23    2    4    4    0    0  0.34736655835E+03 -0.28507017346E+03 -0.48409386767E+03  0.66649696858E+03  0.89122425629E+02 0.  0.
          4    1    3    3  502    0 -0.12735632872E+03 -0.40670002417E+02 -0.53844138656E+02  0.14412798073E+03  0.00000000000E+00 0. -1.
         -3    1    3    3    0  502 -0.28934884226E+03 -0.22487597425E+03 -0.10774440065E+03  0.38196964825E+03  0.00000000000E+00 0.  1.
         11    1    5    5    0    0  0.58425491609E+02  0.53152411269E+03 -0.54864078432E+03  0.76611887502E+03  0.00000000000E+00 0.  1.
        -11    1    5    5    0    0  0.10913121023E+02  0.19092037440E+02 -0.57103353763E+02  0.61191462763E+02  0.00000000000E+00 0. -1.
          1    1    6    6  503    0  0.98783596377E+02 -0.49131473024E+02 -0.16320226297E+03  0.19699512480E+03  0.00000000000E+00 0. -1.
         -1    1    6    6    0  503  0.24858296197E+03 -0.23593870044E+03 -0.32089160470E+03  0.46950184378E+03  0.00000000000E+00 0.  1.
<mgrwt>
<rscale>  0 0.15855433E+04</rscale>
<asrwt>0</asrwt>
<pdfrwt beam="1">  1        2 0.25164089E+00 0.15855433E+04</pdfrwt>
<pdfrwt beam="2">  1       -1 0.59113721E-01 0.15855433E+04</pdfrwt>
<totfact> 0.33790227E+01</totfact>
</mgrwt>
</event>
<event>
12    6  0.1553355E-007  0.2913896E+04  0.7818608E-02  0.8268755E-01
         -1   -1    0    0    0  501 -0.00000000000E+00  0.00000000000E+00  0.62685465311E+03  0.62685465311E+03  0.00000000000E+00 0.  1.
          2   -1    0    0  501    0  0.00000000000E+00 -0.00000000000E+00 -0.33862680878E+04  0.33862680878E+04  0.00000000000E+00 0. -1.
         24    2    1    2    0    0  0.73821560085E+03 -0.92581770114E+03 -0.20377309535E+04  0.23581377162E+04  0.79783208813E+02 0.  0.
        254    2    1    2    0    0 -0.73821560085E+03  0.92581770114E+03 -0.72168248112E+03  0.16549850247E+04  0.90335438192E+03 0.  0.
         23    2    4    4    0    0 -0.60943839713E+03  0.17191846426E+03 -0.59629541034E+03  0.87452050746E+03  0.90811801692E+02 0.  0.
         23    2    4    4    0    0 -0.12877720372E+03  0.75389923688E+03 -0.12538707078E+03  0.78046451723E+03  0.91952800852E+02 0.  0.
          2    1    3    3  502    0  0.31087916468E+03 -0.38517750950E+03 -0.77457957526E+03  0.91922852831E+03  0.00000000000E+00 0. -1.
         -1    1    3    3    0  502  0.42733643617E+03 -0.54064019164E+03 -0.12631513783E+04  0.14389091879E+04  0.00000000000E+00 0.  1.
         11    1    5    5    0    0 -0.58286198607E+03  0.15246410481E+03 -0.53878511474E+03  0.80824674322E+03  0.00000000000E+00 0. -1.
        -11    1    5    5    0    0 -0.26576411059E+02  0.19454359454E+02 -0.57510295601E+02  0.66273764241E+02  0.00000000000E+00 0.  1.
          3    1    6    6  503    0 -0.38312438497E+02  0.33399605866E+03 -0.97422159825E+02  0.35001755295E+03  0.00000000000E+00 0. -1.
         -3    1    6    6    0  503 -0.90464765226E+02  0.41990317821E+03 -0.27964910954E+02  0.43044696429E+03  0.00000000000E+00 0.  1.
<mgrwt>
<rscale>  0 0.29138963E+04</rscale>
<asrwt>0</asrwt>
<pdfrwt beam="1">  1        2 0.52096433E+00 0.29138963E+04</pdfrwt>
<pdfrwt beam="2">  1       -1 0.96439176E-01 0.29138963E+04</pdfrwt>
<totfact> 0.98714789E-01</totfact>
</mgrwt>
</event>
<event>
12    6  0.1553355E-007  0.1426342E+04  0.7818608E-02  0.8934969E-01
          2   -1    0    0  501    0  0.00000000000E+00  0.00000000000E+00  0.43641944407E+04  0.43641944407E+04  0.00000000000E+00 0. -1.
         -1   -1    0    0    0  501 -0.00000000000E+00 -0.00000000000E+00 -0.11654214098E+03  0.11654214098E+03  0.00000000000E+00 0.  1.
         24    2    1    2    0    0  0.20700747733E+03  0.27416127216E+03  0.20502775824E+04  0.20804435326E+04  0.81182686155E+02 0.  0.
        254    2    1    2    0    0 -0.20700747733E+03 -0.27416127216E+03  0.21973747173E+04  0.24002930491E+04  0.90273726768E+03 0.  0.
         23    2    4    4    0    0  0.15731249655E+03  0.24533720304E+03  0.50585215203E+03  0.59148044099E+03  0.95000776847E+02 0.  0.
         23    2    4    4    0    0 -0.36431997388E+03 -0.51949847520E+03  0.16915225653E+04  0.18088126081E+04  0.89144564006E+02 0.  0.
          4    1    3    3  502    0  0.11973764258E+03  0.16147470699E+03  0.14261745578E+04  0.14402725622E+04  0.00000000000E+00 0. -1.
         -3    1    3    3    0  502  0.87269834749E+02  0.11268656517E+03  0.62410302457E+03  0.64017097037E+03  0.00000000000E+00 0.  1.
         11    1    5    5    0    0  0.15656069723E+03  0.21599811085E+03  0.39382528978E+03  0.47567299133E+03  0.00000000000E+00 0. -1.
        -11    1    5    5    0    0  0.75179931306E+00  0.29339092186E+02  0.11202686225E+03  0.11580744966E+03  0.00000000000E+00 0.  1.
          1    1    6    6  503    0 -0.24321161424E+03 -0.40409322760E+03  0.13062531481E+04  0.13887910256E+04  0.00000000000E+00 0.  1.
         -1    1    6    6    0  503 -0.12110835964E+03 -0.11540524759E+03  0.38526941714E+03  0.42002158246E+03  0.00000000000E+00 0. -1.
<mgrwt>
<rscale>  0 0.14263416E+04</rscale>
<asrwt>0</asrwt>
<pdfrwt beam="1">  1        2 0.67141440E+00 0.14263416E+04</pdfrwt>
<pdfrwt beam="2">  1       -1 0.17929564E-01 0.14263416E+04</pdfrwt>
<totfact> 0.46657340E+00</totfact>
</mgrwt>
</event>
<event>
12    6  0.1553355E-007  0.1562620E+04  0.7818608E-02  0.8843847E-01
         -1   -1    0    0    0  501 -0.00000000000E+00  0.00000000000E+00  0.53780705223E+03  0.53780705223E+03  0.00000000000E+00 0.  1.
          2   -1    0    0  501    0  0.00000000000E+00 -0.00000000000E+00 -0.11350637318E+04  0.11350637318E+04  0.00000000000E+00 0. -1.
         24    2    1    2    0    0  0.39037269823E+02 -0.25642417307E+03  0.28216982576E+03  0.39111328336E+03  0.77926406836E+02 0.  0.
        254    2    1    2    0    0 -0.39037269823E+02  0.25642417307E+03 -0.87942650537E+03  0.12817575007E+04  0.89567519074E+03 0.  0.
         23    2    4    4    0    0 -0.37180914401E+03 -0.11835880475E+03 -0.25007709793E+03  0.47229023412E+03  0.90932195087E+02 0.  0.
         23    2    4    4    0    0  0.33277187419E+03  0.37478297781E+03 -0.62934940744E+03  0.80946726660E+03  0.89203017485E+02 0.  0.
          2    1    3    3  502    0  0.15126089627E+02 -0.20400642587E+01  0.17914462294E+02  0.23534833946E+02  0.00000000000E+00 0. -1.
         -1    1    3    3    0  502  0.23911180196E+02 -0.25438410881E+03  0.26425536346E+03  0.36757844941E+03  0.00000000000E+00 0.  1.
         11    1    5    5    0    0 -0.17226331897E+03 -0.65867251871E+02 -0.66308461700E+02  0.19598458619E+03  0.00000000000E+00 0. -1.
        -11    1    5    5    0    0 -0.19954582504E+03 -0.52491552875E+02 -0.18376863623E+03  0.27630564792E+03  0.00000000000E+00 0.  1.
          1    1    6    6  503    0  0.15876066963E+03  0.13962717442E+03 -0.32151925127E+03  0.38480557038E+03  0.00000000000E+00 0. -1.
         -1    1    6    6    0  503  0.17401120455E+03  0.23515580340E+03 -0.30783015617E+03  0.42466169621E+03  0.00000000000E+00 0.  1.
<mgrwt>
<rscale>  0 0.15626200E+04</rscale>
<asrwt>0</asrwt>
<pdfrwt beam="1">  1        2 0.17462519E+00 0.15626200E+04</pdfrwt>
<pdfrwt beam="2">  1       -1 0.82739547E-01 0.15626200E+04</pdfrwt>
<totfact> 0.33004064E+01</totfact>
</mgrwt>
</event>
<event>
12    6  0.1553355E-007  0.1960674E+04  0.7818608E-02  0.8625231E-01
         -1   -1    0    0    0  501 -0.00000000000E+00  0.00000000000E+00  0.15626956311E+04  0.15626956311E+04  0.00000000000E+00 0.  1.
          2   -1    0    0  501    0  0.00000000000E+00 -0.00000000000E+00 -0.61500185056E+03  0.61500185056E+03  0.00000000000E+00 0. -1.
         24    2    1    2    0    0  0.88697740318E+02  0.46755777928E+03  0.10469090885E+04  0.11527923195E+04  0.80211759477E+02 0.  0.
        254    2    1    2    0    0 -0.88697740318E+02 -0.46755777928E+03 -0.99215307979E+02  0.10249051621E+04  0.90228008279E+03 0.  0.
         23    2    4    4    0    0  0.69438748172E+02  0.60221529796E+01 -0.41305091006E+03  0.42860843592E+03  0.90753131985E+02 0.  0.
         23    2    4    4    0    0 -0.15813648849E+03 -0.47357993226E+03  0.31383560208E+03  0.59629672615E+03  0.88271735295E+02 0.  0.
          4    1    3    3  502    0 -0.76770843893E+01  0.28237714384E+02  0.10512982621E+03  0.10912647020E+03  0.00000000000E+00 0. -1.
         -3    1    3    3    0  502  0.96374824707E+02  0.43932006490E+03  0.94177926226E+03  0.10436658493E+04  0.00000000000E+00 0.  1.
         11    1    5    5    0    0 -0.10926903224E+02 -0.22261935644E+02 -0.51566847904E+02  0.57220020932E+02  0.00000000000E+00 0. -1.
        -11    1    5    5    0    0  0.80365651396E+02  0.28284088624E+02 -0.36148406216E+03  0.37138841499E+03  0.00000000000E+00 0.  1.
          3    1    6    6  503    0 -0.58391826188E+02 -0.12580498529E+03  0.13161125557E+03  0.19120152270E+03  0.00000000000E+00 0. -1.
         -3    1    6    6    0  503 -0.99744662301E+02 -0.34777494698E+03  0.18222434651E+03  0.40509520346E+03  0.00000000000E+00 0.  1.
<mgrwt>
<rscale>  0 0.19606741E+04</rscale>
<asrwt>0</asrwt>
<pdfrwt beam="1">  1        2 0.94615670E-01 0.19606741E+04</pdfrwt>
<pdfrwt beam="2">  1       -1 0.24041471E+00 0.19606741E+04</pdfrwt>
<totfact> 0.41267334E+00</totfact>
</mgrwt>
</event>
<event>
12    6  0.1553355E-007  0.1251162E+04  0.7818608E-02  0.9069217E-01
         -1   -1    0    0    0  501 -0.00000000000E+00  0.00000000000E+00  0.44384003122E+03  0.44384003122E+03  0.00000000000E+00 0.  1.
          2   -1    0    0  501    0  0.00000000000E+00 -0.00000000000E+00 -0.88174027036E+03  0.88174027036E+03  0.00000000000E+00 0. -1.
         24    2    1    2    0    0  0.26301984884E+03  0.56648405271E+02 -0.11494505427E+02  0.28116537022E+03  0.80829196776E+02 0.  0.
        254    2    1    2    0    0 -0.26301984884E+03 -0.56648405271E+02 -0.42640573371E+03  0.10444149314E+04  0.91465415125E+03 0.  0.
         23    2    4    4    0    0 -0.35086235461E+03  0.87160739433E+02  0.17555242775E+03  0.41211714741E+03  0.91216785276E+02 0.  0.
         23    2    4    4    0    0  0.87842505767E+02 -0.14380914470E+03 -0.60195816146E+03  0.63229778395E+03  0.95128773342E+02 0.  0.
          2    1    3    3  502    0  0.16215468579E+02  0.94947330287E+01 -0.22918902537E+02  0.29637264888E+02  0.00000000000E+00 0. -1.
         -1    1    3    3    0  502  0.24680438026E+03  0.47153672242E+02  0.11424397110E+02  0.25152810533E+03  0.00000000000E+00 0.  1.
         11    1    5    5    0    0 -0.21207359870E+03  0.94633131475E+02  0.12830442224E+03  0.26531616160E+03  0.00000000000E+00 0.  1.
        -11    1    5    5    0    0 -0.13878875591E+03 -0.74723920416E+01  0.47248005511E+02  0.14680098581E+03  0.00000000000E+00 0. -1.
          3    1    6    6  503    0  0.12699122606E+02 -0.89847763257E+00 -0.46533027753E+01  0.13554637720E+02  0.00000000000E+00 0. -1.
         -3    1    6    6    0  503  0.75143383161E+02 -0.14291066707E+03 -0.59730485869E+03  0.61874314623E+03  0.00000000000E+00 0.  1.
<mgrwt>
<rscale>  0 0.12511621E+04</rscale>
<asrwt>0</asrwt>
<pdfrwt beam="1">  1        2 0.13565235E+00 0.12511621E+04</pdfrwt>
<pdfrwt beam="2">  1       -1 0.68283082E-01 0.12511621E+04</pdfrwt>
<totfact> 0.73540236E+01</totfact>
</mgrwt>
</event>
<event>
12    6  0.1553355E-007  0.1185102E+04  0.7818608E-02  0.9125998E-01
         -1   -1    0    0    0  501 -0.00000000000E+00  0.00000000000E+00  0.33019768326E+03  0.33019768326E+03  0.00000000000E+00 0.  1.
          2   -1    0    0  501    0  0.00000000000E+00 -0.00000000000E+00 -0.10633529249E+04  0.10633529249E+04  0.00000000000E+00 0. -1.
         24    2    1    2    0    0  0.12910234553E+03  0.80569358423E+02  0.58283160798E+02  0.18165930993E+03  0.80276652363E+02 0.  0.
        254    2    1    2    0    0 -0.12910234553E+03 -0.80569358423E+02 -0.79143840244E+03  0.12118912982E+04  0.90506736585E+03 0.  0.
         23    2    4    4    0    0 -0.89904233845E+02 -0.27357288690E+02  0.18639105284E+03  0.22758123590E+03  0.90666431742E+02 0.  0.
         23    2    4    4    0    0 -0.39198111687E+02 -0.53212069733E+02 -0.97782945528E+03  0.98431006234E+03  0.91366508473E+02 0.  0.
          2    1    3    3  502    0  0.38749476121E+02 -0.40805139409E+01 -0.10055058480E+02  0.40240237259E+02  0.00000000000E+00 0. -1.
         -1    1    3    3    0  502  0.90352869410E+02  0.84649872364E+02  0.68338219278E+02  0.14141907267E+03  0.00000000000E+00 0.  1.
         11    1    5    5    0    0 -0.74113864118E+01  0.26185262955E+02  0.18171435863E+02  0.32723045792E+02  0.00000000000E+00 0. -1.
        -11    1    5    5    0    0 -0.82492847433E+02 -0.53542551645E+02  0.16821961698E+03  0.19485819010E+03  0.00000000000E+00 0.  1.
          4    1    6    6  503    0 -0.10595756472E+02  0.26250180777E+02 -0.24881160367E+03  0.25041676495E+03  0.00000000000E+00 0. -1.
         -4    1    6    6    0  503 -0.28602355215E+02 -0.79462250510E+02 -0.72901785161E+03  0.73389329739E+03  0.00000000000E+00 0.  1.
<mgrwt>
<rscale>  0 0.11851020E+04</rscale>
<asrwt>0</asrwt>
<pdfrwt beam="1">  1        2 0.16359276E+00 0.11851020E+04</pdfrwt>
<pdfrwt beam="2">  1       -1 0.50799644E-01 0.11851020E+04</pdfrwt>
<totfact> 0.10068140E+02</totfact>
</mgrwt>
</event>
<event>
12    6  0.1746518E-007  0.1804160E+04  0.7818608E-02  0.8704091E-01
         -1   -1    0    0    0  501 -0.00000000000E+00  0.00000000000E+00  0.96846289974E+03  0.96846289974E+03  0.00000000000E+00 0.  1.
          2   -1    0    0  501    0  0.00000000000E+00 -0.00000000000E+00 -0.84024692070E+03  0.84024692070E+03  0.00000000000E+00 0. -1.
         24    2    1    2    0    0 -0.14709629197E+03 -0.29926428268E+03 -0.54922137868E+03  0.64752322367E+03  0.80285567750E+02 0.  0.
        254    2    1    2    0    0  0.14709629197E+03  0.29926428268E+03  0.67743735772E+03  0.11611865968E+04  0.88217714144E+03 0.  0.
         23    2    4    4    0    0 -0.14317571470E+03  0.16282647355E+03 -0.14295725925E+03  0.27566220286E+03  0.92418214373E+02 0.  0.
         23    2    4    4    0    0  0.29027200667E+03  0.13643780914E+03  0.82039461697E+03  0.88552439391E+03  0.90735941214E+02 0.  0.
          4    1    3    3  502    0 -0.15172666624E+03 -0.24923039924E+03 -0.48464030824E+03  0.56569691666E+03  0.00000000000E+00 0. -1.
         -3    1    3    3    0  502  0.46303742711E+01 -0.50033883449E+02 -0.64581070439E+02  0.81826307004E+02  0.00000000000E+00 0.  1.
         11    1    5    5    0    0 -0.10921058001E+03  0.16595282173E+03 -0.13625884887E+03  0.24090197949E+03  0.00000000000E+00 0. -1.
        -11    1    5    5    0    0 -0.33965134691E+02 -0.31263481840E+01 -0.66984103843E+01  0.34760223377E+02  0.00000000000E+00 0.  1.
          3    1    6    6  503    0  0.26142774166E+03  0.97416815406E+02  0.74834384897E+03  0.79865700794E+03  0.00000000000E+00 0. -1.
         -3    1    6    6    0  503  0.28844265010E+02  0.39020993730E+02  0.72050768001E+02  0.86867385969E+02  0.00000000000E+00 0.  1.
<mgrwt>
<rscale>  0 0.18041596E+04</rscale>
<asrwt>0</asrwt>
<pdfrwt beam="1">  1        2 0.12926876E+00 0.18041596E+04</pdfrwt>
<pdfrwt beam="2">  1       -1 0.14899429E+00 0.18041596E+04</pdfrwt>
<totfact> 0.12340053E+01</totfact>
</mgrwt>
</event>
<event>
12    6  0.1553355E-007  0.2060097E+04  0.7818608E-02  0.8579027E-01
         -1   -1    0    0    0  501 -0.00000000000E+00  0.00000000000E+00  0.41769170017E+03  0.41769170017E+03  0.00000000000E+00 0.  1.
          2   -1    0    0  501    0  0.00000000000E+00 -0.00000000000E+00 -0.25401517186E+04  0.25401517186E+04  0.00000000000E+00 0. -1.
         24    2    1    2    0    0  0.41634410543E+02 -0.77405313201E+03 -0.44074063438E+03  0.89525562828E+03  0.79615688525E+02 0.  0.
        254    2    1    2    0    0 -0.41634410543E+02  0.77405313201E+03 -0.16817193841E+04  0.20625877905E+04  0.90840334185E+03 0.  0.
         23    2    4    4    0    0 -0.16462613876E+03 -0.16129308713E+03 -0.34537782392E+03  0.42428918086E+03  0.87282542468E+02 0.  0.
         23    2    4    4    0    0  0.12299172822E+03  0.93534621914E+03 -0.13363415601E+04  0.16382986096E+04  0.90631419051E+02 0.  0.
          2    1    3    3  502    0  0.46997567680E+02 -0.32204949442E+03 -0.21427162414E+03  0.38966264530E+03  0.00000000000E+00 0. -1.
         -1    1    3    3    0  502 -0.53631571367E+01 -0.45200363759E+03 -0.22646901024E+03  0.50559298299E+03  0.00000000000E+00 0.  1.
         11    1    5    5    0    0 -0.10919567212E+02 -0.59472417683E+02 -0.65525616889E+02  0.89161717580E+02  0.00000000000E+00 0.  1.
        -11    1    5    5    0    0 -0.15370657155E+03 -0.10182066945E+03 -0.27985220703E+03  0.33512746328E+03  0.00000000000E+00 0. -1.
          1    1    6    6  503    0  0.54295990516E+02  0.15311909065E+03 -0.23498629647E+03  0.28567826315E+03  0.00000000000E+00 0. -1.
         -1    1    6    6    0  503  0.68695737706E+02  0.78222712849E+03 -0.11013552637E+04  0.13526203465E+04  0.00000000000E+00 0.  1.
<mgrwt>
<rscale>  0 0.20600974E+04</rscale>
<asrwt>0</asrwt>
<pdfrwt beam="1">  1        2 0.39079255E+00 0.20600974E+04</pdfrwt>
<pdfrwt beam="2">  1       -1 0.64260264E-01 0.20600974E+04</pdfrwt>
<totfact> 0.85292988E+00</totfact>
</mgrwt>
</event>
<event>
12    6  0.1553355E-007  0.2297621E+04  0.7818608E-02  0.8478860E-01
         -1   -1    0    0    0  501 -0.00000000000E+00  0.00000000000E+00  0.11414646751E+04  0.11414646751E+04  0.00000000000E+00 0.  1.
          2   -1    0    0  501    0  0.00000000000E+00 -0.00000000000E+00 -0.11562040998E+04  0.11562040998E+04  0.00000000000E+00 0. -1.
         24    2    1    2    0    0 -0.40431940144E+03  0.24085584942E+03 -0.85582323476E+03  0.98000482093E+03  0.80562530487E+02 0.  0.
        254    2    1    2    0    0  0.40431940144E+03 -0.24085584942E+03  0.84108381003E+03  0.13176639540E+04  0.89851577706E+03 0.  0.
         23    2    4    4    0    0  0.62108117992E+03  0.45221302402E+02  0.63533435881E+03  0.89443001233E+03  0.92566199193E+02 0.  0.
         23    2    4    4    0    0 -0.21676177848E+03 -0.28607715182E+03  0.20574945123E+03  0.42323394169E+03  0.89265487800E+02 0.  0.
          2    1    3    3  502    0 -0.27239474735E+03  0.19627658281E+03 -0.55770914735E+03  0.65097072775E+03  0.00000000000E+00 0. -1.
         -1    1    3    3    0  502 -0.13192465409E+03  0.44579266608E+02 -0.29811408741E+03  0.32903409318E+03  0.00000000000E+00 0.  1.
         11    1    5    5    0    0  0.48991937624E+03  0.24503410475E+02  0.44467050829E+03  0.66208252754E+03  0.00000000000E+00 0.  1.
        -11    1    5    5    0    0  0.13116180368E+03  0.20717891927E+02  0.19066385052E+03  0.23234748478E+03  0.00000000000E+00 0. -1.
          1    1    6    6  503    0 -0.11226333912E+03 -0.11191826114E+03  0.46673932071E+02  0.16524893470E+03  0.00000000000E+00 0. -1.
         -1    1    6    6    0  503 -0.10449843936E+03 -0.17415889068E+03  0.15907551916E+03  0.25798500698E+03  0.00000000000E+00 0.  1.
<mgrwt>
<rscale>  0 0.22976215E+04</rscale>
<asrwt>0</asrwt>
<pdfrwt beam="1">  1        2 0.17787755E+00 0.22976215E+04</pdfrwt>
<pdfrwt beam="2">  1       -1 0.17560995E+00 0.22976215E+04</pdfrwt>
<totfact> 0.46583778E+00</totfact>
</mgrwt>
</event>
<event>
12    6  0.1553355E-007  0.1542557E+04  0.7818608E-02  0.8856636E-01
          2   -1    0    0  501    0  0.00000000000E+00  0.00000000000E+00  0.56881870158E+03  0.56881870158E+03  0.00000000000E+00 0. -1.
         -1   -1    0    0    0  501 -0.00000000000E+00 -0.00000000000E+00 -0.10458005011E+04  0.10458005011E+04  0.00000000000E+00 0.  1.
         24    2    1    2    0    0 -0.25059092686E+03  0.38250567206E+03 -0.42836858267E+03  0.63178967769E+03  0.80945366941E+02 0.  0.
        254    2    1    2    0    0  0.25059092686E+03 -0.38250567206E+03 -0.48613216836E+02  0.98282952497E+03  0.86861051601E+03 0.  0.
         23    2    4    4    0    0  0.53653936570E+03 -0.40255074644E+03 -0.74546379715E+02  0.68126539459E+03  0.92971935130E+02 0.  0.
         23    2    4    4    0    0 -0.28594843885E+03  0.20045074381E+02  0.25933162879E+02  0.30156413039E+03  0.90000450623E+02 0.  0.
          2    1    3    3  502    0 -0.12081946937E+03  0.11582724088E+03 -0.14141981461E+03  0.21911836498E+03  0.00000000000E+00 0. -1.
         -3    1    3    3    0  502 -0.12977145749E+03  0.26667843118E+03 -0.28694876806E+03  0.41267131270E+03  0.00000000000E+00 0.  1.
         11    1    5    5    0    0  0.31507316939E+03 -0.17931825042E+03 -0.31761378439E+02  0.36391609220E+03  0.00000000000E+00 0. -1.
        -11    1    5    5    0    0  0.22146619631E+03 -0.22323249602E+03 -0.42785001276E+02  0.31734930238E+03  0.00000000000E+00 0.  1.
          4    1    6    6  503    0 -0.10838511814E+02  0.22383738928E+02 -0.24194595956E+01  0.24987174539E+02  0.00000000000E+00 0.  1.
         -4    1    6    6    0  503 -0.27510992703E+03 -0.23386645471E+01  0.28352622474E+02  0.27657695585E+03  0.00000000000E+00 0. -1.
<mgrwt>
<rscale>  0 0.15425575E+04</rscale>
<asrwt>0</asrwt>
<pdfrwt beam="1">  1        2 0.87510570E-01 0.15425575E+04</pdfrwt>
<pdfrwt beam="2">  1       -1 0.16089238E+00 0.15425575E+04</pdfrwt>
<totfact> 0.16748528E+01</totfact>
</mgrwt>
</event>
<event>
12    6  0.1553355E-007  0.1380203E+04  0.7818608E-02  0.8968274E-01
          2   -1    0    0  501    0  0.00000000000E+00  0.00000000000E+00  0.26729551973E+04  0.26729551973E+04  0.00000000000E+00 0. -1.
         -3   -1    0    0    0  501 -0.00000000000E+00 -0.00000000000E+00 -0.17816992818E+03  0.17816992818E+03  0.00000000000E+00 0.  1.
         24    2    1    2    0    0  0.12356345331E+03  0.35555936577E+03  0.70534638130E+03  0.80327966304E+03  0.77809445900E+02 0.  0.
        254    2    1    2    0    0 -0.12356345331E+03 -0.35555936577E+03  0.17894388878E+04  0.20478454624E+04  0.92189430803E+03 0.  0.
         23    2    4    4    0    0 -0.26624403140E+03 -0.56414610075E+03  0.15974103268E+04  0.17171004699E+04  0.86991749876E+02 0.  0.
         23    2    4    4    0    0  0.14268057809E+03  0.20858673499E+03  0.19202856106E+03  0.33074499250E+03  0.93011334926E+02 0.  0.
          2    1    3    3  502    0  0.33693147275E+02  0.30106156559E+02  0.10887481359E+03  0.11787847077E+03  0.00000000000E+00 0. -1.
         -1    1    3    3    0  502  0.89870306035E+02  0.32545320921E+03  0.59647156771E+03  0.68540119227E+03  0.00000000000E+00 0.  1.
         11    1    5    5    0    0 -0.33500523986E+02 -0.71367082641E+02  0.13352189110E+03  0.15506012058E+03  0.00000000000E+00 0. -1.
        -11    1    5    5    0    0 -0.23274350741E+03 -0.49277901811E+03  0.14638884357E+04  0.15620403494E+04  0.00000000000E+00 0.  1.
          4    1    6    6  503    0 -0.11724119461E+02  0.30617164514E+02  0.32778260356E+02  0.46360328860E+02  0.00000000000E+00 0. -1.
         -4    1    6    6    0  503  0.15440469755E+03  0.17796957047E+03  0.15925030071E+03  0.28438466364E+03  0.00000000000E+00 0.  1.
<mgrwt>
<rscale>  0 0.13802032E+04</rscale>
<asrwt>0</asrwt>
<pdfrwt beam="1">  1        2 0.41122385E+00 0.13802032E+04</pdfrwt>
<pdfrwt beam="2">  1       -3 0.27410760E-01 0.13802032E+04</pdfrwt>
<totfact> 0.22566280E+01</totfact>
</mgrwt>
</event>
<event>
12    6  0.1553355E-007  0.1044242E+04  0.7818608E-02  0.9261309E-01
          2   -1    0    0  501    0  0.00000000000E+00  0.00000000000E+00  0.10395140473E+04  0.10395140473E+04  0.00000000000E+00 0. -1.
         -1   -1    0    0    0  501 -0.00000000000E+00 -0.00000000000E+00 -0.26224809283E+03  0.26224809283E+03  0.00000000000E+00 0.  1.
         24    2    1    2    0    0 -0.61645680304E+01  0.40445696999E+02  0.15366524534E+03  0.17704181127E+03  0.77826338782E+02 0.  0.
        254    2    1    2    0    0  0.61645680304E+01 -0.40445696999E+02  0.62360070915E+03  0.11247203289E+04  0.93511716775E+03 0.  0.
         23    2    4    4    0    0 -0.83830416042E+02  0.42943159643E+03  0.28151184713E+03  0.52812461576E+03  0.90706422218E+02 0.  0.
         23    2    4    4    0    0  0.89994984072E+02 -0.46987729343E+03  0.34208886202E+03  0.59659571311E+03  0.10008939673E+03 0.  0.
          4    1    3    3  502    0  0.11310845420E+02  0.59310410119E+02  0.12300647898E+03  0.13702647132E+03  0.00000000000E+00 0. -1.
         -3    1    3    3    0  502 -0.17475413451E+02 -0.18864713120E+02  0.30658766361E+02  0.40015339948E+02  0.00000000000E+00 0.  1.
         11    1    5    5    0    0 -0.94120103851E+02  0.41324279001E+03  0.28176675714E+03  0.50894076558E+03  0.00000000000E+00 0.  1.
        -11    1    5    5    0    0  0.10289687809E+02  0.16188806424E+02 -0.25491000802E+00  0.19183850181E+02  0.00000000000E+00 0. -1.
          2    1    6    6  503    0  0.37470846614E+02 -0.22935268830E+03  0.10574891764E+03  0.25532245017E+03  0.00000000000E+00 0. -1.
         -2    1    6    6    0  503  0.52524137458E+02 -0.24052460513E+03  0.23633994438E+03  0.34127326294E+03  0.00000000000E+00 0.  1.
<mgrwt>
<rscale>  0 0.10442425E+04</rscale>
<asrwt>0</asrwt>
<pdfrwt beam="1">  1        2 0.15992524E+00 0.10442425E+04</pdfrwt>
<pdfrwt beam="2">  1       -1 0.40345861E-01 0.10442425E+04</pdfrwt>
<totfact> 0.16168853E+02</totfact>
</mgrwt>
</event>
<event>
12    6  0.1553355E-007  0.1287030E+04  0.7818608E-02  0.9039914E-01
          2   -1    0    0  501    0  0.00000000000E+00  0.00000000000E+00  0.74538749237E+03  0.74538749237E+03  0.00000000000E+00 0. -1.
         -1   -1    0    0    0  501 -0.00000000000E+00 -0.00000000000E+00 -0.55556559612E+03  0.55556559612E+03  0.00000000000E+00 0.  1.
         24    2    1    2    0    0 -0.13685951857E+02  0.12194042162E+03 -0.24917195214E+03  0.28782084383E+03  0.75481154638E+02 0.  0.
        254    2    1    2    0    0  0.13685951857E+02 -0.12194042162E+03  0.43899384840E+03  0.10131322447E+04  0.90480084800E+03 0.  0.
         23    2    4    4    0    0  0.37659275269E+03  0.85369203691E+02  0.42777334653E+03  0.58524839692E+03  0.10205708096E+03 0.  0.
         23    2    4    4    0    0 -0.36290680083E+03 -0.20730962532E+03  0.11220501864E+02  0.42788384774E+03  0.90994838623E+02 0.  0.
          4    1    3    3  502    0  0.52336350651E+01 -0.85668955666E+01 -0.34025910552E+02  0.35475980953E+02  0.00000000000E+00 0. -1.
         -3    1    3    3    0  502 -0.18919586922E+02  0.13050731719E+03 -0.21514604159E+03  0.25234486288E+03  0.00000000000E+00 0.  1.
         11    1    5    5    0    0  0.11947129677E+03 -0.33883963668E+01  0.80387013633E+02  0.14403799479E+03  0.00000000000E+00 0. -1.
        -11    1    5    5    0    0  0.25712145592E+03  0.88757600058E+02  0.34738633290E+03  0.44121040213E+03  0.00000000000E+00 0.  1.
          2    1    6    6  503    0 -0.17145398438E+03 -0.12919438701E+03 -0.30809365722E+02  0.21687986401E+03  0.00000000000E+00 0.  1.
         -2    1    6    6    0  503 -0.19145281645E+03 -0.78115238307E+02  0.42029867586E+02  0.21100398373E+03  0.00000000000E+00 0. -1.
<mgrwt>
<rscale>  0 0.12870301E+04</rscale>
<asrwt>0</asrwt>
<pdfrwt beam="1">  1        2 0.11467500E+00 0.12870301E+04</pdfrwt>
<pdfrwt beam="2">  1       -1 0.85471629E-01 0.12870301E+04</pdfrwt>
<totfact> 0.57314724E+01</totfact>
</mgrwt>
</event>
<event>
12    6  0.1553355E-007  0.1584679E+04  0.7818608E-02  0.8830016E-01
          2   -1    0    0  501    0  0.00000000000E+00  0.00000000000E+00  0.40797005967E+03  0.40797005967E+03  0.00000000000E+00 0. -1.
         -1   -1    0    0    0  501 -0.00000000000E+00 -0.00000000000E+00 -0.15388425408E+04  0.15388425408E+04  0.00000000000E+00 0.  1.
         24    2    1    2    0    0 -0.57849340817E+01 -0.20411923246E+03 -0.10003946347E+04  0.10240916892E+04  0.79222700374E+02 0.  0.
        254    2    1    2    0    0  0.57849340817E+01  0.20411923246E+03 -0.13047784640E+03  0.92272091123E+03  0.89033212067E+03 0.  0.
         23    2    4    4    0    0  0.32731081226E+03  0.15601502843E+03 -0.35642377084E+03  0.51641550250E+03  0.90410231093E+02 0.  0.
         23    2    4    4    0    0 -0.32152587817E+03  0.48104204028E+02  0.22594592444E+03  0.40630540872E+03  0.91321517759E+02 0.  0.
          2    1    3    3  502    0 -0.32008246324E+01 -0.17200302743E+02 -0.22562161934E+02  0.28550776590E+02  0.00000000000E+00 0. -1.
         -1    1    3    3    0  502 -0.25841094494E+01 -0.18691892972E+03 -0.97783247277E+03  0.99554091263E+03  0.00000000000E+00 0.  1.
         11    1    5    5    0    0  0.25948844584E+03  0.13876310997E+03 -0.32861886278E+03  0.44111201659E+03  0.00000000000E+00 0. -1.
        -11    1    5    5    0    0  0.67822366419E+02  0.17251918459E+02 -0.27804908068E+02  0.75303485908E+02  0.00000000000E+00 0.  1.
          2    1    6    6  503    0 -0.26566986251E+03  0.71270656708E+01  0.19883846049E+03  0.33191565838E+03  0.00000000000E+00 0. -1.
         -2    1    6    6    0  503 -0.55856015662E+02  0.40977138357E+02  0.27107463959E+02  0.74389750342E+02  0.00000000000E+00 0.  1.
<mgrwt>
<rscale>  0 0.15846787E+04</rscale>
<asrwt>0</asrwt>
<pdfrwt beam="1">  1        2 0.62764624E-01 0.15846787E+04</pdfrwt>
<pdfrwt beam="2">  1       -1 0.23674501E+00 0.15846787E+04</pdfrwt>
<totfact> 0.72746070E+00</totfact>
</mgrwt>
</event>
<event>
12    6  0.1553355E-007  0.2156406E+04  0.7818608E-02  0.8536795E-01
          2   -1    0    0  501    0  0.00000000000E+00  0.00000000000E+00  0.17035503880E+04  0.17035503880E+04  0.00000000000E+00 0. -1.
         -1   -1    0    0    0  501 -0.00000000000E+00 -0.00000000000E+00 -0.68241131223E+03  0.68241131223E+03  0.00000000000E+00 0.  1.
         24    2    1    2    0    0 -0.54324545895E+01 -0.85701000924E+03  0.41121959062E+03  0.95386597541E+03  0.79139622463E+02 0.  0.
        254    2    1    2    0    0  0.54324545895E+01  0.85701000924E+03  0.60991948512E+03  0.14320957248E+04  0.97180281904E+03 0.  0.
         23    2    4    4    0    0  0.43313287300E+03  0.29545681714E+03  0.66476212416E+02  0.53723604620E+03  0.96460696961E+02 0.  0.
         23    2    4    4    0    0 -0.42770041841E+03  0.56155319210E+03  0.54344327270E+03  0.89485967857E+03  0.84697214985E+02 0.  0.
          2    1    3    3  502    0  0.16957212565E+02 -0.17517491118E+03  0.11427066936E+03  0.20983703782E+03  0.00000000000E+00 0. -1.
         -1    1    3    3    0  502 -0.22389667154E+02 -0.68183509806E+03  0.29694892126E+03  0.74402893760E+03  0.00000000000E+00 0.  1.
         11    1    5    5    0    0  0.47587073813E+02  0.53568417799E+02  0.38238376334E+02  0.81217475978E+02  0.00000000000E+00 0. -1.
        -11    1    5    5    0    0  0.38554579918E+03  0.24188839934E+03  0.28237836082E+02  0.45601857023E+03  0.00000000000E+00 0.  1.
          1    1    6    6  503    0 -0.26745690205E+02  0.63751327344E+02  0.77557208282E+02  0.10389746984E+03  0.00000000000E+00 0. -1.
         -1    1    6    6    0  503 -0.40095472820E+03  0.49780186475E+03  0.46588606442E+03  0.79096220873E+03  0.00000000000E+00 0.  1.
<mgrwt>
<rscale>  0 0.21564063E+04</rscale>
<asrwt>0</asrwt>
<pdfrwt beam="1">  1        2 0.26208467E+00 0.21564063E+04</pdfrwt>
<pdfrwt beam="2">  1       -1 0.10498636E+00 0.21564063E+04</pdfrwt>
<totfact> 0.86846925E+00</totfact>
</mgrwt>
</event>
<event>
12    6  0.1553355E-007  0.1464935E+04  0.7818608E-02  0.8908111E-01
         -1   -1    0    0    0  501 -0.00000000000E+00  0.00000000000E+00  0.25545576422E+04  0.25545576422E+04  0.00000000000E+00 0.  1.
          2   -1    0    0  501    0  0.00000000000E+00 -0.00000000000E+00 -0.21002031296E+03  0.21002031296E+03  0.00000000000E+00 0. -1.
         24    2    1    2    0    0  0.32083491336E+03 -0.18297455628E+03  0.11870717102E+04  0.12459661210E+04  0.82931295618E+02 0.  0.
        254    2    1    2    0    0 -0.32083491336E+03  0.18297455628E+03  0.11574656191E+04  0.15186118342E+04  0.91106559238E+03 0.  0.
         23    2    4    4    0    0  0.19771250667E+03  0.36384504111E+03  0.45983094051E+03  0.62647601482E+03  0.97745864665E+02 0.  0.
         23    2    4    4    0    0 -0.51854742003E+03 -0.18087048482E+03  0.69763467862E+03  0.89213581938E+03  0.87215917725E+02 0.  0.
          4    1    3    3  502    0  0.64095067098E+02 -0.68671750303E+02  0.37713049136E+03  0.38865330878E+03  0.00000000000E+00 0. -1.
         -3    1    3    3    0  502  0.25673984626E+03 -0.11430280598E+03  0.80994121880E+03  0.85731281223E+03  0.00000000000E+00 0.  1.
         11    1    5    5    0    0  0.65360300741E+02  0.42642186991E+02  0.87279259141E+02  0.11708114323E+03  0.00000000000E+00 0. -1.
        -11    1    5    5    0    0  0.13235220593E+03  0.32120285412E+03  0.37255168137E+03  0.50939487159E+03  0.00000000000E+00 0.  1.
          3    1    6    6  503    0 -0.15746254766E+03 -0.25915767486E+02  0.15764401217E+03  0.22431610618E+03  0.00000000000E+00 0. -1.
         -3    1    6    6    0  503 -0.36108487237E+03 -0.15495471734E+03  0.53999066645E+03  0.66781971320E+03  0.00000000000E+00 0.  1.
<mgrwt>
<rscale>  0 0.14649355E+04</rscale>
<asrwt>0</asrwt>
<pdfrwt beam="1">  1        2 0.32310819E-01 0.14649355E+04</pdfrwt>
<pdfrwt beam="2">  1       -1 0.39300885E+00 0.14649355E+04</pdfrwt>
<totfact> 0.14624887E+00</totfact>
</mgrwt>
</event>
<event>
12    6  0.1553355E-007  0.2239138E+04  0.7818608E-02  0.8502312E-01
         -1   -1    0    0    0  501 -0.00000000000E+00  0.00000000000E+00  0.42077192650E+03  0.42077192650E+03  0.00000000000E+00 0.  1.
          2   -1    0    0  501    0  0.00000000000E+00 -0.00000000000E+00 -0.29788942371E+04  0.29788942371E+04  0.00000000000E+00 0. -1.
         24    2    1    2    0    0 -0.71934737788E+03  0.34384299394E+03 -0.33418011860E+03  0.86801166582E+03  0.77969518367E+02 0.  0.
        254    2    1    2    0    0  0.71934737788E+03 -0.34384299394E+03 -0.22239421920E+04  0.25316544978E+04  0.90976203936E+03 0.  0.
         23    2    4    4    0    0  0.68152137696E+03 -0.58926037804E+03 -0.14110472744E+04  0.16766368179E+04  0.91418971708E+02 0.  0.
         23    2    4    4    0    0  0.37826000920E+02  0.24541738410E+03 -0.81289491765E+03  0.85501767986E+03  0.92717781293E+02 0.  0.
          2    1    3    3  502    0 -0.59581203018E+03  0.31553020459E+03 -0.28762018708E+03  0.73299158067E+03  0.00000000000E+00 0. -1.
         -1    1    3    3    0  502 -0.12353534770E+03  0.28312789350E+02 -0.46559931520E+02  0.13502008515E+03  0.00000000000E+00 0.  1.
         11    1    5    5    0    0  0.40300836273E+03 -0.29702143409E+03 -0.82443250449E+03  0.96453430587E+03  0.00000000000E+00 0.  1.
        -11    1    5    5    0    0  0.27851301423E+03 -0.29223894396E+03 -0.58661476987E+03  0.71210251206E+03  0.00000000000E+00 0. -1.
          1    1    6    6  503    0  0.52349496819E+02  0.24498169593E+03 -0.77055196779E+03  0.81025109456E+03  0.00000000000E+00 0. -1.
         -1    1    6    6    0  503 -0.14523495899E+02  0.43568817154E+00 -0.42342949859E+02  0.44766585307E+02  0.00000000000E+00 0.  1.
<mgrwt>
<rscale>  0 0.22391383E+04</rscale>
<asrwt>0</asrwt>
<pdfrwt beam="1">  1        2 0.45829143E+00 0.22391383E+04</pdfrwt>
<pdfrwt beam="2">  1       -1 0.64734141E-01 0.22391383E+04</pdfrwt>
<totfact> 0.45067679E+00</totfact>
</mgrwt>
</event>
<event>
12    6  0.1553355E-007  0.1367283E+04  0.7818608E-02  0.8977847E-01
          2   -1    0    0  501    0  0.00000000000E+00  0.00000000000E+00  0.27798231539E+04  0.27798231539E+04  0.00000000000E+00 0. -1.
         -1   -1    0    0    0  501 -0.00000000000E+00 -0.00000000000E+00 -0.16812783034E+03  0.16812783034E+03  0.00000000000E+00 0.  1.
         24    2    1    2    0    0 -0.12245457313E+03 -0.10137550825E+03 -0.74486518711E+01  0.17897214671E+03  0.81874481573E+02 0.  0.
        254    2    1    2    0    0  0.12245457313E+03  0.10137550825E+03  0.26191439754E+04  0.27689788375E+04  0.88433959677E+03 0.  0.
         23    2    4    4    0    0  0.65492397274E+02  0.10710410444E+03  0.26451326600E+04  0.26497871788E+04  0.94259007979E+02 0.  0.
         23    2    4    4    0    0  0.56962175852E+02 -0.57285961896E+01 -0.25988684607E+02  0.11919165869E+03  0.10126072033E+03 0.  0.
          4    1    3    3  502    0 -0.88823376317E+01  0.53269967144E+01 -0.20114829725E+02  0.22624747306E+02  0.00000000000E+00 0. -1.
         -3    1    3    3    0  502 -0.11357223550E+03 -0.10670250496E+03  0.12666177853E+02  0.15634739941E+03  0.00000000000E+00 0.  1.
         11    1    5    5    0    0  0.20739772780E+02  0.10325376991E+03  0.21643537964E+04  0.21669145888E+04  0.00000000000E+00 0.  1.
        -11    1    5    5    0    0  0.44752624494E+02  0.38503345297E+01  0.48077886363E+03  0.48287259001E+03  0.00000000000E+00 0. -1.
          3    1    6    6  503    0  0.42217039722E+01  0.35480454796E+02 -0.36914628322E+02  0.51374850278E+02  0.00000000000E+00 0. -1.
         -3    1    6    6    0  503  0.52740471880E+02 -0.41209050986E+02  0.10925943715E+02  0.67816808413E+02  0.00000000000E+00 0.  1.
<mgrwt>
<rscale>  0 0.13672829E+04</rscale>
<asrwt>0</asrwt>
<pdfrwt beam="1">  1        2 0.42766507E+00 0.13672829E+04</pdfrwt>
<pdfrwt beam="2">  1       -1 0.25865822E-01 0.13672829E+04</pdfrwt>
<totfact> 0.35149927E+01</totfact>
</mgrwt>
</event>
<event>
12    6  0.1553355E-007  0.1792326E+04  0.7818608E-02  0.8710391E-01
         -1   -1    0    0    0  501 -0.00000000000E+00  0.00000000000E+00  0.65152234247E+03  0.65152234247E+03  0.00000000000E+00 0.  1.
          2   -1    0    0  501    0  0.00000000000E+00 -0.00000000000E+00 -0.12326636917E+04  0.12326636917E+04  0.00000000000E+00 0. -1.
         24    2    1    2    0    0  0.44862529285E+03 -0.47320875001E+03 -0.32192514447E+03  0.73151967595E+03  0.79335132153E+02 0.  0.
        254    2    1    2    0    0 -0.44862529285E+03  0.47320875001E+03 -0.25921620480E+03  0.11526663583E+04  0.91447007505E+03 0.  0.
         23    2    4    4    0    0 -0.38807029193E+03  0.41106218342E+03  0.25270694633E+03  0.62592169250E+03  0.91359150054E+02 0.  0.
         23    2    4    4    0    0 -0.60555000917E+02  0.62146566593E+02 -0.51192315113E+03  0.52674466576E+03  0.88687802854E+02 0.  0.
          4    1    3    3  502    0  0.36863313418E+03 -0.42628733087E+03 -0.28683251169E+03  0.63236395046E+03  0.00000000000E+00 0. -1.
         -3    1    3    3    0  502  0.79992158675E+02 -0.46921419135E+02 -0.35092632783E+02  0.99155725497E+02  0.00000000000E+00 0.  1.
         11    1    5    5    0    0 -0.29729836781E+03  0.26052246432E+03  0.15335885362E+03  0.42400142913E+03  0.00000000000E+00 0.  1.
        -11    1    5    5    0    0 -0.90771924124E+02  0.15053971910E+03  0.99348092706E+02  0.20192026337E+03  0.00000000000E+00 0. -1.
          2    1    6    6  503    0  0.19137001517E+02  0.30428306668E+02 -0.10833332019E+03  0.11414120614E+03  0.00000000000E+00 0. -1.
         -2    1    6    6    0  503 -0.79692002435E+02  0.31718259924E+02 -0.40358983093E+03  0.41260345963E+03  0.00000000000E+00 0.  1.
<mgrwt>
<rscale>  0 0.17923258E+04</rscale>
<asrwt>0</asrwt>
<pdfrwt beam="1">  1        2 0.18964057E+00 0.17923258E+04</pdfrwt>
<pdfrwt beam="2">  1       -1 0.10023421E+00 0.17923258E+04</pdfrwt>
<totfact> 0.18494053E+01</totfact>
</mgrwt>
</event>
<event>
12    6  0.1553355E-007  0.1364324E+04  0.7818608E-02  0.8980055E-01
         -1   -1    0    0    0  501 -0.00000000000E+00  0.00000000000E+00  0.49898383846E+03  0.49898383846E+03  0.00000000000E+00 0.  1.
          2   -1    0    0  501    0  0.00000000000E+00 -0.00000000000E+00 -0.93258509618E+03  0.93258509618E+03  0.00000000000E+00 0. -1.
         24    2    1    2    0    0 -0.30338994139E+03  0.99328783473E+01  0.11657516690E+03  0.33484377323E+03  0.79915357254E+02 0.  0.
        254    2    1    2    0    0  0.30338994139E+03 -0.99328783473E+01 -0.55017642463E+03  0.10967251614E+04  0.89887032593E+03 0.  0.
         23    2    4    4    0    0  0.44742985262E+03 -0.17771098550E+03  0.79129417825E+01  0.49038168054E+03  0.92934980360E+02 0.  0.
         23    2    4    4    0    0 -0.14403991123E+03  0.16777810715E+03 -0.55808936641E+03  0.60634348087E+03  0.85391373251E+02 0.  0.
          2    1    3    3  502    0 -0.11276268933E+02 -0.57408678617E+01  0.25489273326E+02  0.28457246169E+02  0.00000000000E+00 0. -1.
         -1    1    3    3    0  502 -0.29211367246E+03  0.15673746209E+02  0.91085893572E+02  0.30638652706E+03  0.00000000000E+00 0.  1.
         11    1    5    5    0    0  0.44821688537E+03 -0.18360500478E+03  0.80993843366E+01  0.48443242474E+03  0.00000000000E+00 0. -1.
        -11    1    5    5    0    0 -0.78703274642E+00  0.58940192764E+01 -0.18644255414E+00  0.59492558022E+01  0.00000000000E+00 0.  1.
          4    1    6    6  503    0 -0.14989199800E+03  0.13753921027E+03 -0.51174983063E+03  0.55070185634E+03  0.00000000000E+00 0. -1.
         -4    1    6    6    0  503  0.58520867629E+01  0.30238896882E+02 -0.46339535777E+02  0.55641624529E+02  0.00000000000E+00 0.  1.
<mgrwt>
<rscale>  0 0.13643238E+04</rscale>
<asrwt>0</asrwt>
<pdfrwt beam="1">  1        2 0.14347463E+00 0.13643238E+04</pdfrwt>
<pdfrwt beam="2">  1       -1 0.76766745E-01 0.13643238E+04</pdfrwt>
<totfact> 0.52870243E+01</totfact>
</mgrwt>
</event>
<event>
12    6  0.1553355E-007  0.3145870E+04  0.7818608E-02  0.8203261E-01
          2   -1    0    0  501    0  0.00000000000E+00  0.00000000000E+00  0.13977713339E+04  0.13977713339E+04  0.00000000000E+00 0. -1.
         -1   -1    0    0    0  501 -0.00000000000E+00 -0.00000000000E+00 -0.17700498064E+04  0.17700498064E+04  0.00000000000E+00 0.  1.
         24    2    1    2    0    0 -0.11839027902E+04  0.53409814033E+03 -0.80166507833E+03  0.15283902532E+04  0.80145043278E+02 0.  0.
        254    2    1    2    0    0  0.11839027902E+04 -0.53409814033E+03  0.42938660586E+03  0.16394308871E+04  0.90358958388E+03 0.  0.
         23    2    4    4    0    0  0.67653428008E+02 -0.44211075190E+03  0.13564706911E+03  0.47841488985E+03  0.10218500972E+03 0.  0.
         23    2    4    4    0    0  0.11162493622E+04 -0.91987388434E+02  0.29373953676E+03  0.11610159972E+04  0.84858188487E+02 0.  0.
          2    1    3    3  502    0 -0.22756162457E+03  0.84643686365E+02 -0.11923542301E+03  0.27049201969E+03  0.00000000000E+00 0. -1.
         -1    1    3    3    0  502 -0.95634116565E+03  0.44945445397E+03 -0.68242965533E+03  0.12578982335E+04  0.00000000000E+00 0.  1.
         11    1    5    5    0    0  0.61799267313E+01 -0.27661789585E+02  0.39371465058E+02  0.48512661834E+02  0.00000000000E+00 0.  1.
        -11    1    5    5    0    0  0.61473501276E+02 -0.41444896231E+03  0.96275604048E+02  0.42990222802E+03  0.00000000000E+00 0. -1.
          3    1    6    6  503    0  0.87239696432E+03 -0.80698193514E+02  0.19418797861E+03  0.89738377121E+03  0.00000000000E+00 0. -1.
         -3    1    6    6    0  503  0.24385239789E+03 -0.11289194920E+02  0.99551558149E+02  0.26363222604E+03  0.00000000000E+00 0.  1.
<mgrwt>
<rscale>  0 0.31458702E+04</rscale>
<asrwt>0</asrwt>
<pdfrwt beam="1">  1        2 0.21504174E+00 0.31458702E+04</pdfrwt>
<pdfrwt beam="2">  1       -1 0.27231536E+00 0.31458702E+04</pdfrwt>
<totfact> 0.69770515E-01</totfact>
</mgrwt>
</event>
<event>
12    6  0.1553355E-007  0.1257136E+04  0.7818608E-02  0.9064265E-01
         -1   -1    0    0    0  501 -0.00000000000E+00  0.00000000000E+00  0.27714669149E+03  0.27714669149E+03  0.00000000000E+00 0.  1.
          2   -1    0    0  501    0  0.00000000000E+00 -0.00000000000E+00 -0.14255902187E+04  0.14255902187E+04  0.00000000000E+00 0. -1.
         24    2    1    2    0    0 -0.68089662729E+02  0.76056701156E+02  0.97623791768E+02  0.16288202595E+03  0.81113042698E+02 0.  0.
        254    2    1    2    0    0  0.68089662729E+02 -0.76056701156E+02 -0.12460673190E+04  0.15398548843E+04  0.89891516684E+03 0.  0.
         23    2    4    4    0    0 -0.37128474624E+03 -0.39168050802E+02 -0.87737731824E+03  0.95790571161E+03  0.91683666996E+02 0.  0.
         23    2    4    4    0    0  0.43937440897E+03 -0.36888650354E+02 -0.36869000077E+03  0.58194917266E+03  0.91224333992E+02 0.  0.
          2    1    3    3  502    0 -0.38572997336E+02 -0.82823988301E+01  0.18687537989E+02  0.43654304827E+02  0.00000000000E+00 0. -1.
         -1    1    3    3    0  502 -0.29516665393E+02  0.84339099986E+02  0.78936253779E+02  0.11922772112E+03  0.00000000000E+00 0.  1.
         11    1    5    5    0    0 -0.27151574521E+02 -0.25238086395E+02 -0.55073405682E+02  0.66387114844E+02  0.00000000000E+00 0.  1.
        -11    1    5    5    0    0 -0.34413317172E+03 -0.13929964407E+02 -0.82230391255E+03  0.89151859677E+03  0.00000000000E+00 0. -1.
          3    1    6    6  503    0  0.32519593691E+03 -0.59872269372E+02 -0.24131460669E+03  0.40935293504E+03  0.00000000000E+00 0. -1.
         -3    1    6    6    0  503  0.11417847206E+03  0.22983619018E+02 -0.12737539408E+03  0.17259623762E+03  0.00000000000E+00 0.  1.
<mgrwt>
<rscale>  0 0.12571358E+04</rscale>
<asrwt>0</asrwt>
<pdfrwt beam="1">  1        2 0.21932158E+00 0.12571358E+04</pdfrwt>
<pdfrwt beam="2">  1       -1 0.42637952E-01 0.12571358E+04</pdfrwt>
<totfact> 0.84828829E+01</totfact>
</mgrwt>
</event>
<event>
12    6  0.1553355E-007  0.1746113E+04  0.7818608E-02  0.8735493E-01
         -1   -1    0    0    0  501 -0.00000000000E+00  0.00000000000E+00  0.10058768687E+04  0.10058768687E+04  0.00000000000E+00 0.  1.
          2   -1    0    0  501    0  0.00000000000E+00 -0.00000000000E+00 -0.75777414336E+03  0.75777414336E+03  0.00000000000E+00 0. -1.
         24    2    1    2    0    0 -0.23356281271E+03  0.21800068330E+02 -0.50817453083E+03  0.56515105987E+03  0.78278580903E+02 0.  0.
        254    2    1    2    0    0  0.23356281271E+03 -0.21800068330E+02  0.75627725615E+03  0.11984999522E+04  0.89967772938E+03 0.  0.
         23    2    4    4    0    0 -0.62157360396E+02 -0.39640436944E+03  0.50443433370E+03  0.65101324697E+03  0.91456487695E+02 0.  0.
         23    2    4    4    0    0  0.29572017311E+03  0.37460430111E+03  0.25184292244E+03  0.54748670521E+03  0.92401469667E+02 0.  0.
          4    1    3    3  502    0 -0.22454317169E+03  0.24551090677E+02 -0.50773236765E+03  0.55571085032E+03  0.00000000000E+00 0. -1.
         -3    1    3    3    0  502 -0.90196410184E+01 -0.27510223471E+01 -0.44216318147E+00  0.94402095492E+01  0.00000000000E+00 0.  1.
         11    1    5    5    0    0  0.24154191730E+02 -0.88734307973E+02  0.11593566146E+03  0.14798067437E+03  0.00000000000E+00 0.  1.
        -11    1    5    5    0    0 -0.86311552125E+02 -0.30767006147E+03  0.38849867225E+03  0.50303257260E+03  0.00000000000E+00 0. -1.
          2    1    6    6  503    0  0.22394762718E+03  0.27413927541E+03  0.13924893535E+03  0.38038815444E+03  0.00000000000E+00 0. -1.
         -2    1    6    6    0  503  0.71772545926E+02  0.10046502571E+03  0.11259398709E+03  0.16709855077E+03  0.00000000000E+00 0.  1.
<mgrwt>
<rscale>  0 0.17461128E+04</rscale>
<asrwt>0</asrwt>
<pdfrwt beam="1">  1        2 0.11658064E+00 0.17461128E+04</pdfrwt>
<pdfrwt beam="2">  1       -1 0.15475029E+00 0.17461128E+04</pdfrwt>
<totfact> 0.12838327E+01</totfact>
</mgrwt>
</event>
<event>
12    6  0.1553355E-007  0.1144638E+04  0.7818608E-02  0.9162745E-01
          2   -1    0    0  501    0  0.00000000000E+00  0.00000000000E+00  0.26608264362E+04  0.26608264362E+04  0.00000000000E+00 0. -1.
         -1   -1    0    0    0  501 -0.00000000000E+00 -0.00000000000E+00 -0.12310048684E+03  0.12310048684E+03  0.00000000000E+00 0.  1.
         24    2    1    2    0    0 -0.18058549356E+03 -0.46190250203E+02  0.37798967493E+03  0.42905188506E+03  0.80403146828E+02 0.  0.
        254    2    1    2    0    0  0.18058549356E+03  0.46190250203E+02  0.21597362744E+04  0.23548750380E+04  0.91990815288E+03 0.  0.
         23    2    4    4    0    0 -0.66288985160E+02  0.18337965529E+03  0.45898084276E+02  0.22058409519E+03  0.92349235957E+02 0.  0.
         23    2    4    4    0    0  0.24687447873E+03 -0.13718940509E+03  0.21138381902E+04  0.21342909428E+04  0.84368200360E+02 0.  0.
          4    1    3    3  502    0 -0.27996144988E+01  0.83072588771E+01  0.60367964592E+02  0.61001143763E+02  0.00000000000E+00 0. -1.
         -3    1    3    3    0  502 -0.17778587907E+03 -0.54497509080E+02  0.31762171034E+03  0.36805074130E+03  0.00000000000E+00 0.  1.
         11    1    5    5    0    0 -0.78938946678E+02  0.99330068773E+02  0.47757140692E+02  0.13556756379E+03  0.00000000000E+00 0. -1.
        -11    1    5    5    0    0  0.12649961518E+02  0.84049586518E+02 -0.18590564161E+01  0.85016531399E+02  0.00000000000E+00 0.  1.
          3    1    6    6  503    0  0.35712356026E+01 -0.19099259046E+02  0.27322241830E+03  0.27391244090E+03  0.00000000000E+00 0. -1.
         -3    1    6    6    0  503  0.24330324312E+03 -0.11809014604E+03  0.18406157719E+04  0.18603785019E+04  0.00000000000E+00 0.  1.
<mgrwt>
<rscale>  0 0.11446380E+04</rscale>
<asrwt>0</asrwt>
<pdfrwt beam="1">  1        2 0.40935787E+00 0.11446380E+04</pdfrwt>
<pdfrwt beam="2">  1       -1 0.18938539E-01 0.11446380E+04</pdfrwt>
<totfact> 0.71534634E+01</totfact>
</mgrwt>
</event>
<event>
12    6  0.1553355E-007  0.1741360E+04  0.7818608E-02  0.8738120E-01
         -1   -1    0    0    0  501 -0.00000000000E+00  0.00000000000E+00  0.69668973436E+03  0.69668973436E+03  0.00000000000E+00 0.  1.
          2   -1    0    0  501    0  0.00000000000E+00 -0.00000000000E+00 -0.10881229454E+04  0.10881229454E+04  0.00000000000E+00 0. -1.
         24    2    1    2    0    0  0.41881712683E+03 -0.15002994628E+03  0.32642254187E+03  0.55703865064E+03  0.76312593712E+02 0.  0.
        254    2    1    2    0    0 -0.41881712683E+03  0.15002994628E+03 -0.71785575288E+03  0.12277740291E+04  0.89117642142E+03 0.  0.
         23    2    4    4    0    0  0.26388872935E+03  0.83626600008E+02 -0.11510343122E+03  0.31025751020E+03  0.79876486218E+02 0.  0.
         23    2    4    4    0    0 -0.68270585618E+03  0.66403346276E+02 -0.60275232167E+03  0.91751651891E+03  0.89607537309E+02 0.  0.
          4    1    3    3  502    0  0.68462880636E+02 -0.55588040053E+02  0.55545711565E+02  0.10422342489E+03  0.00000000000E+00 0. -1.
         -3    1    3    3    0  502  0.35035424619E+03 -0.94441906231E+02  0.27087683030E+03  0.45281522575E+03  0.00000000000E+00 0.  1.
         11    1    5    5    0    0  0.24034918475E+03  0.98494488492E+02 -0.10935396337E+03  0.28182828846E+03  0.00000000000E+00 0. -1.
        -11    1    5    5    0    0  0.23539544598E+02 -0.14867888485E+02 -0.57494678426E+01  0.28429221733E+02  0.00000000000E+00 0.  1.
          1    1    6    6  503    0 -0.41610530382E+03  0.49274613081E+02 -0.31020412819E+03  0.52134270159E+03  0.00000000000E+00 0. -1.
         -1    1    6    6    0  503 -0.26660055236E+03  0.17128733195E+02 -0.29254819348E+03  0.39617381732E+03  0.00000000000E+00 0.  1.
<mgrwt>
<rscale>  0 0.17413605E+04</rscale>
<asrwt>0</asrwt>
<pdfrwt beam="1">  1        2 0.16740353E+00 0.17413605E+04</pdfrwt>
<pdfrwt beam="2">  1       -1 0.10718304E+00 0.17413605E+04</pdfrwt>
<totfact> 0.19451701E+01</totfact>
</mgrwt>
</event>
<event>
12    6  0.2807379E-007  0.2307203E+04  0.7818608E-02  0.8475086E-01
          2   -1    0    0  501    0  0.00000000000E+00  0.00000000000E+00  0.20589828229E+04  0.20589828229E+04  0.00000000000E+00 0. -1.
         -1   -1    0    0    0  501 -0.00000000000E+00 -0.00000000000E+00 -0.64633699842E+03  0.64633699842E+03  0.00000000000E+00 0.  1.
         24    2    1    2    0    0  0.72025538909E+03  0.61325840072E+03  0.30158650358E+03  0.99620857978E+03  0.81384419341E+02 0.  0.
        254    2    1    2    0    0 -0.72025538909E+03 -0.61325840072E+03  0.11110593209E+04  0.17091112415E+04  0.88980600683E+03 0.  0.
         23    2    4    4    0    0 -0.65071531485E+03 -0.64131350514E+02  0.88902322212E+03  0.11065940136E+04  0.81515460373E+02 0.  0.
         23    2    4    4    0    0 -0.69540074243E+02 -0.54912705021E+03  0.22203609876E+03  0.60251722796E+03  0.85735883017E+02 0.  0.
          2    1    3    3  502    0  0.18374712104E+03  0.13613968896E+03  0.40529928880E+02  0.23224920783E+03  0.00000000000E+00 0. -1.
         -1    1    3    3    0  502  0.53650826805E+03  0.47711871176E+03  0.26105657470E+03  0.76395937195E+03  0.00000000000E+00 0.  1.
         11    1    5    5    0    0 -0.63162925911E+03 -0.56908879052E+02  0.87889219983E+03  0.10838107032E+04  0.00000000000E+00 0. -1.
        -11    1    5    5    0    0 -0.19086055737E+02 -0.72224714619E+01  0.10131022289E+02  0.22783310344E+02  0.00000000000E+00 0.  1.
          3    1    6    6  503    0 -0.26242336807E+02 -0.37132528342E+03  0.11091683686E+03  0.38842460150E+03  0.00000000000E+00 0. -1.
         -3    1    6    6    0  503 -0.43297737436E+02 -0.17780176679E+03  0.11111926190E+03  0.21409262646E+03  0.00000000000E+00 0.  1.
<mgrwt>
<rscale>  0 0.23072033E+04</rscale>
<asrwt>0</asrwt>
<pdfrwt beam="1">  1        2 0.31676658E+00 0.23072033E+04</pdfrwt>
<pdfrwt beam="2">  1       -1 0.99436462E-01 0.23072033E+04</pdfrwt>
<totfact> 0.61664089E+00</totfact>
</mgrwt>
</event>
<event>
12    6  0.1553355E-007  0.2132937E+04  0.7818608E-02  0.8546872E-01
          2   -1    0    0  501    0  0.00000000000E+00  0.00000000000E+00  0.74369407528E+03  0.74369407528E+03  0.00000000000E+00 0. -1.
         -1   -1    0    0    0  501 -0.00000000000E+00 -0.00000000000E+00 -0.15293318708E+04  0.15293318708E+04  0.00000000000E+00 0.  1.
         24    2    1    2    0    0  0.67110426994E+03  0.16539137471E+03  0.24275191364E+03  0.73669696029E+03  0.77837470174E+02 0.  0.
        254    2    1    2    0    0 -0.67110426994E+03 -0.16539137471E+03 -0.10283897091E+04  0.15363289858E+04  0.90828746040E+03 0.  0.
         23    2    4    4    0    0 -0.15637589832E+03 -0.47674812084E+03 -0.31905339765E+03  0.60172614867E+03  0.92396402225E+02 0.  0.
         23    2    4    4    0    0 -0.51472837162E+03  0.31135674613E+03 -0.70933631149E+03  0.93460283711E+03  0.91848464461E+02 0.  0.
          2    1    3    3  502    0  0.13089923124E+03  0.39971626430E+02  0.80900488454E+02  0.15898814010E+03  0.00000000000E+00 0. -1.
         -1    1    3    3    0  502  0.54020503870E+03  0.12541974828E+03  0.16185142518E+03  0.57770882019E+03  0.00000000000E+00 0.  1.
         11    1    5    5    0    0 -0.50226579161E+02 -0.24982602790E+03 -0.11956474500E+03  0.28148087274E+03  0.00000000000E+00 0.  1.
        -11    1    5    5    0    0 -0.10614931916E+03 -0.22692209294E+03 -0.19948865265E+03  0.32024527593E+03  0.00000000000E+00 0. -1.
          1    1    6    6  503    0 -0.20974560743E+03  0.17604976098E+03 -0.34724797659E+03  0.44223059078E+03  0.00000000000E+00 0. -1.
         -1    1    6    6    0  503 -0.30498276419E+03  0.13530698515E+03 -0.36208833491E+03  0.49237224633E+03  0.00000000000E+00 0.  1.
<mgrwt>
<rscale>  0 0.21329370E+04</rscale>
<asrwt>0</asrwt>
<pdfrwt beam="1">  1        2 0.11441447E+00 0.21329370E+04</pdfrwt>
<pdfrwt beam="2">  1       -1 0.23528182E+00 0.21329370E+04</pdfrwt>
<totfact> 0.34629598E+00</totfact>
</mgrwt>
</event>
<event>
12    6  0.1553355E-007  0.2285733E+04  0.7818608E-02  0.8483568E-01
         -1   -1    0    0    0  501 -0.00000000000E+00  0.00000000000E+00  0.75243277237E+03  0.75243277237E+03  0.00000000000E+00 0.  1.
          2   -1    0    0  501    0  0.00000000000E+00 -0.00000000000E+00 -0.17358938662E+04  0.17358938662E+04  0.00000000000E+00 0. -1.
         24    2    1    2    0    0  0.25208482883E+03  0.49192747670E+03  0.43160023248E+03  0.70485142750E+03  0.70692085214E+02 0.  0.
        254    2    1    2    0    0 -0.25208482883E+03 -0.49192747670E+03 -0.14150613263E+04  0.17834752111E+04  0.93426220519E+03 0.  0.
         23    2    4    4    0    0 -0.49264996240E+02 -0.32868214779E+03 -0.65467281645E+00  0.34250829559E+03  0.82779887792E+02 0.  0.
         23    2    4    4    0    0 -0.20281983259E+03 -0.16324532891E+03 -0.14144066535E+04  0.14409669155E+04  0.89747134669E+02 0.  0.
          2    1    3    3  502    0  0.24565381534E+01  0.18220977693E+02  0.22601605277E+01  0.18524225582E+02  0.00000000000E+00 0. -1.
         -1    1    3    3    0  502  0.24962829068E+03  0.47370649901E+03  0.42934007195E+03  0.68632720192E+03  0.00000000000E+00 0.  1.
         11    1    5    5    0    0  0.18823353989E+02 -0.10795199208E+03  0.16780166478E+02  0.11085813113E+03  0.00000000000E+00 0. -1.
        -11    1    5    5    0    0 -0.68088350229E+02 -0.22073015570E+03 -0.17434839295E+02  0.23165016446E+03  0.00000000000E+00 0.  1.
          3    1    6    6  503    0 -0.10227009704E+02 -0.39329168762E+02 -0.12679791408E+03  0.13315061493E+03  0.00000000000E+00 0. -1.
         -3    1    6    6    0  503 -0.19259282289E+03 -0.12391616015E+03 -0.12876087394E+04  0.13078163006E+04  0.00000000000E+00 0.  1.
<mgrwt>
<rscale>  0 0.22857326E+04</rscale>
<asrwt>0</asrwt>
<pdfrwt beam="1">  1        2 0.26706060E+00 0.22857326E+04</pdfrwt>
<pdfrwt beam="2">  1       -1 0.11575889E+00 0.22857326E+04</pdfrwt>
<totfact> 0.65398359E+00</totfact>
</mgrwt>
</event>
<event>
12    6  0.1553355E-007  0.1248502E+04  0.7818608E-02  0.9071431E-01
          2   -1    0    0  501    0  0.00000000000E+00  0.00000000000E+00  0.10620754660E+04  0.10620754660E+04  0.00000000000E+00 0. -1.
         -1   -1    0    0    0  501 -0.00000000000E+00 -0.00000000000E+00 -0.36691315409E+03  0.36691315409E+03  0.00000000000E+00 0.  1.
         24    2    1    2    0    0 -0.11036466429E+03  0.26636668110E+03  0.16987601225E+03  0.34437251555E+03  0.81258858007E+02 0.  0.
        254    2    1    2    0    0  0.11036466429E+03 -0.26636668110E+03  0.52528629965E+03  0.10846161045E+04  0.90406572199E+03 0.  0.
         23    2    4    4    0    0 -0.24909540125E+03 -0.13971586824E+03  0.61360748218E+03  0.68303412089E+03  0.91937072769E+02 0.  0.
         23    2    4    4    0    0  0.35946006554E+03 -0.12665081287E+03 -0.88321182532E+02  0.40158198364E+03  0.90639346756E+02 0.  0.
          2    1    3    3  502    0 -0.32762922993E+02  0.10093923386E+03  0.19882611542E+02  0.10796970083E+03  0.00000000000E+00 0. -1.
         -1    1    3    3    0  502 -0.77601741295E+02  0.16542744724E+03  0.14999340071E+03  0.23640281472E+03  0.00000000000E+00 0.  1.
         11    1    5    5    0    0 -0.98347409720E+01  0.99528839248E+01  0.11662645751E+02  0.18215359846E+02  0.00000000000E+00 0. -1.
        -11    1    5    5    0    0 -0.23926066028E+03 -0.14966875216E+03  0.60194483643E+03  0.66481876104E+03  0.00000000000E+00 0.  1.
          4    1    6    6  503    0  0.30375928950E+03 -0.96336435946E+02 -0.10584796110E+03  0.33578893030E+03  0.00000000000E+00 0.  1.
         -4    1    6    6    0  503  0.55700776045E+02 -0.30314376920E+02  0.17526778567E+02  0.65793053334E+02  0.00000000000E+00 0. -1.
<mgrwt>
<rscale>  0 0.12485022E+04</rscale>
<asrwt>0</asrwt>
<pdfrwt beam="1">  1        2 0.16339622E+00 0.12485022E+04</pdfrwt>
<pdfrwt beam="2">  1       -1 0.56448178E-01 0.12485022E+04</pdfrwt>
<totfact> 0.81950609E+01</totfact>
</mgrwt>
</event>
<event>
12    6  0.1553355E-007  0.1796836E+04  0.7818608E-02  0.8707984E-01
         -1   -1    0    0    0  501 -0.00000000000E+00  0.00000000000E+00  0.90962887761E+03  0.90962887761E+03  0.00000000000E+00 0.  1.
          2   -1    0    0  501    0  0.00000000000E+00 -0.00000000000E+00 -0.88734576535E+03  0.88734576535E+03  0.00000000000E+00 0. -1.
         24    2    1    2    0    0 -0.25145825180E+03  0.27307719444E+03 -0.54960116313E+03  0.66770011304E+03  0.77198419173E+02 0.  0.
        254    2    1    2    0    0  0.25145825180E+03 -0.27307719444E+03  0.57188427539E+03  0.11292745299E+04  0.90022604549E+03 0.  0.
         23    2    4    4    0    0 -0.31284703117E+03  0.24978958966E+02  0.16829048751E+03  0.36888835518E+03  0.96227423817E+02 0.  0.
         23    2    4    4    0    0  0.56430528298E+03 -0.29805615340E+03  0.40359378787E+03  0.76038617474E+03  0.89561521580E+02 0.  0.
          4    1    3    3  502    0 -0.23491971962E+03  0.26261183119E+03 -0.48027720794E+03  0.59566638735E+03  0.00000000000E+00 0. -1.
         -3    1    3    3    0  502 -0.16538532186E+02  0.10465363244E+02 -0.69323955185E+02  0.72033725693E+02  0.00000000000E+00 0.  1.
         11    1    5    5    0    0 -0.22542771618E+02 -0.18956606207E+02 -0.19065763304E+01  0.29515496005E+02  0.00000000000E+00 0.  1.
        -11    1    5    5    0    0 -0.29030425956E+03  0.43935565173E+02  0.17019706385E+03  0.33937285918E+03  0.00000000000E+00 0. -1.
          4    1    6    6  503    0  0.39225429756E+03 -0.19919259985E+03  0.32497780379E+03  0.54694761975E+03  0.00000000000E+00 0. -1.
         -4    1    6    6    0  503  0.17205098542E+03 -0.98863553548E+02  0.78615984079E+02  0.21343855499E+03  0.00000000000E+00 0.  1.
<mgrwt>
<rscale>  0 0.17968365E+04</rscale>
<asrwt>0</asrwt>
<pdfrwt beam="1">  1        2 0.13651473E+00 0.17968365E+04</pdfrwt>
<pdfrwt beam="2">  1       -1 0.13994290E+00 0.17968365E+04</pdfrwt>
<totfact> 0.13525813E+01</totfact>
</mgrwt>
</event>
<event>
12    6  0.1553355E-007  0.3693797E+04  0.7818608E-02  0.8069338E-01
         -1   -1    0    0    0  501 -0.00000000000E+00  0.00000000000E+00  0.19683666198E+04  0.19683666198E+04  0.00000000000E+00 0.  1.
          2   -1    0    0  501    0  0.00000000000E+00 -0.00000000000E+00 -0.17329264199E+04  0.17329264199E+04  0.00000000000E+00 0. -1.
         24    2    1    2    0    0  0.48363273242E+03  0.45210423259E+03 -0.14977994753E+04  0.16397895634E+04  0.84898097509E+02 0.  0.
        254    2    1    2    0    0 -0.48363273242E+03 -0.45210423259E+03  0.17332396753E+04  0.20615034763E+04  0.89854212703E+03 0.  0.
         23    2    4    4    0    0 -0.33997555591E+03  0.21956291401E+03  0.77401786140E+03  0.87831476566E+03  0.92422540465E+02 0.  0.
         23    2    4    4    0    0 -0.14365717651E+03 -0.67166714660E+03  0.95922181387E+03  0.11831887107E+04  0.89749076270E+02 0.  0.
          2    1    3    3  502    0  0.41662249383E+03  0.40172350258E+03 -0.12338004701E+04  0.13627984718E+04  0.00000000000E+00 0. -1.
         -1    1    3    3    0  502  0.67010238587E+02  0.50380730017E+02 -0.26399900523E+03  0.27699109154E+03  0.00000000000E+00 0.  1.
         11    1    5    5    0    0 -0.20408112263E+03  0.13555328787E+03  0.55993862221E+03  0.61119150772E+03  0.00000000000E+00 0. -1.
        -11    1    5    5    0    0 -0.13589443328E+03  0.84009626143E+02  0.21407923919E+03  0.26712325794E+03  0.00000000000E+00 0.  1.
          3    1    6    6  503    0 -0.15626217257E+03 -0.60541205394E+03  0.86609632139E+03  0.10682061878E+04  0.00000000000E+00 0. -1.
         -3    1    6    6    0  503  0.12604996051E+02 -0.66255092661E+02  0.93125492476E+02  0.11498252292E+03  0.00000000000E+00 0.  1.
<mgrwt>
<rscale>  0 0.36937972E+04</rscale>
<asrwt>0</asrwt>
<pdfrwt beam="1">  1        2 0.26660406E+00 0.36937972E+04</pdfrwt>
<pdfrwt beam="2">  1       -1 0.30282563E+00 0.36937972E+04</pdfrwt>
<totfact> 0.27397816E-01</totfact>
</mgrwt>
</event>
<event>
12    6  0.1553355E-007  0.1697931E+04  0.7818608E-02  0.8762545E-01
         -1   -1    0    0    0  501 -0.00000000000E+00  0.00000000000E+00  0.68732308934E+03  0.68732308934E+03  0.00000000000E+00 0.  1.
          2   -1    0    0  501    0  0.00000000000E+00 -0.00000000000E+00 -0.10486229276E+04  0.10486229276E+04  0.00000000000E+00 0. -1.
         24    2    1    2    0    0  0.33322460753E+03 -0.46722274416E+03  0.63761623282E+02  0.58311105008E+03  0.81346299277E+02 0.  0.
        254    2    1    2    0    0 -0.33322460753E+03  0.46722274416E+03 -0.42506146157E+03  0.11528349669E+04  0.90499474199E+03 0.  0.
         23    2    4    4    0    0 -0.16646013834E+03 -0.25774792345E+03 -0.91528669362E+02  0.33246549261E+03  0.89514449991E+02 0.  0.
         23    2    4    4    0    0 -0.16676446919E+03  0.72497066761E+03 -0.33353279221E+03  0.82036947427E+03  0.91482751190E+02 0.  0.
          2    1    3    3  502    0  0.27057652731E+03 -0.39870633914E+03  0.24978634268E+02  0.48249594213E+03  0.00000000000E+00 0. -1.
         -1    1    3    3    0  502  0.62648080226E+02 -0.68516405011E+02  0.38782989014E+02  0.10061510795E+03  0.00000000000E+00 0.  1.
         11    1    5    5    0    0 -0.71838872965E+02 -0.83715161958E+02 -0.75602326582E+02  0.13373392911E+03  0.00000000000E+00 0. -1.
        -11    1    5    5    0    0 -0.94621265380E+02 -0.17403276150E+03 -0.15926342780E+02  0.19873156350E+03  0.00000000000E+00 0.  1.
          1    1    6    6  503    0 -0.29873411979E+01  0.31160315910E+02  0.41137332741E+01  0.31572334353E+02  0.00000000000E+00 0. -1.
         -1    1    6    6    0  503 -0.16377712799E+03  0.69381035170E+03 -0.33764652548E+03  0.78879713992E+03  0.00000000000E+00 0.  1.
<mgrwt>
<rscale>  0 0.16979314E+04</rscale>
<asrwt>0</asrwt>
<pdfrwt beam="1">  1        2 0.16132660E+00 0.16979314E+04</pdfrwt>
<pdfrwt beam="2">  1       -1 0.10574201E+00 0.16979314E+04</pdfrwt>
<totfact> 0.21329347E+01</totfact>
</mgrwt>
</event>
<event>
12    6  0.1553355E-007  0.1664570E+04  0.7818608E-02  0.8781834E-01
         -1   -1    0    0    0  501 -0.00000000000E+00  0.00000000000E+00  0.12028989090E+04  0.12028989090E+04  0.00000000000E+00 0.  1.
          2   -1    0    0  501    0  0.00000000000E+00 -0.00000000000E+00 -0.57585726533E+03  0.57585726533E+03  0.00000000000E+00 0. -1.
         24    2    1    2    0    0 -0.46225613522E+02  0.59203310946E+03  0.17740820158E+03  0.62472457959E+03  0.78531015043E+02 0.  0.
        254    2    1    2    0    0  0.46225613522E+02 -0.59203310946E+03  0.44963344213E+03  0.11540315948E+04  0.88146394108E+03 0.  0.
         23    2    4    4    0    0  0.42479693383E+03 -0.39190331078E+03  0.99889920231E+02  0.59361511770E+03  0.91434522024E+02 0.  0.
         23    2    4    4    0    0 -0.37857132030E+03 -0.20012979868E+03  0.34974352190E+03  0.56041647707E+03  0.91530955335E+02 0.  0.
          2    1    3    3  502    0 -0.37773872639E+02  0.39006748054E+03  0.78481678607E+02  0.39967346510E+03  0.00000000000E+00 0. -1.
         -1    1    3    3    0  502 -0.84517408830E+01  0.20196562892E+03  0.98926522969E+02  0.22505111449E+03  0.00000000000E+00 0.  1.
         11    1    5    5    0    0  0.83778870812E+02 -0.48028863486E+02  0.43944756878E+02  0.10609812712E+03  0.00000000000E+00 0.  1.
        -11    1    5    5    0    0  0.34101806301E+03 -0.34387444729E+03  0.55945163353E+02  0.48751699058E+03  0.00000000000E+00 0. -1.
          1    1    6    6  503    0 -0.16729751447E+03 -0.44231728796E+02  0.16723971316E+03  0.24065333124E+03  0.00000000000E+00 0. -1.
         -1    1    6    6    0  503 -0.21127380584E+03 -0.15589806988E+03  0.18250380874E+03  0.31976314583E+03  0.00000000000E+00 0.  1.
<mgrwt>
<rscale>  0 0.16645697E+04</rscale>
<asrwt>0</asrwt>
<pdfrwt beam="1">  1        2 0.88593426E-01 0.16645697E+04</pdfrwt>
<pdfrwt beam="2">  1       -1 0.18506137E+00 0.16645697E+04</pdfrwt>
<totfact> 0.10877702E+01</totfact>
</mgrwt>
</event>
<event>
12    6  0.1553355E-007  0.2649389E+04  0.7818608E-02  0.8351616E-01
          2   -1    0    0  501    0  0.00000000000E+00  0.00000000000E+00  0.22523571957E+04  0.22523571957E+04  0.00000000000E+00 0. -1.
         -1   -1    0    0    0  501 -0.00000000000E+00 -0.00000000000E+00 -0.77910167767E+03  0.77910167767E+03  0.00000000000E+00 0.  1.
         24    2    1    2    0    0  0.60587278212E+03  0.10012322564E+04  0.65138324843E+03  0.13416071859E+04  0.77857854614E+02 0.  0.
        254    2    1    2    0    0 -0.60587278212E+03 -0.10012322564E+04  0.82187226957E+03  0.16898516875E+04  0.90032040904E+03 0.  0.
         23    2    4    4    0    0 -0.26220850930E+03 -0.14239298059E+03  0.68179610111E+03  0.74991015496E+03  0.92142572994E+02 0.  0.
         23    2    4    4    0    0 -0.34366427282E+03 -0.85883927577E+03  0.14007616846E+03  0.93994153253E+03  0.90325619769E+02 0.  0.
          2    1    3    3  502    0  0.41237183489E+03  0.69202435907E+03  0.48862397108E+03  0.94217919149E+03  0.00000000000E+00 0. -1.
         -1    1    3    3    0  502  0.19350094723E+03  0.30920789728E+03  0.16275927735E+03  0.39942799437E+03  0.00000000000E+00 0.  1.
         11    1    5    5    0    0 -0.16854199112E+03 -0.13220170045E+03  0.41602365012E+03  0.46793094558E+03  0.00000000000E+00 0.  1.
        -11    1    5    5    0    0 -0.93666518177E+02 -0.10191280139E+02  0.26577245099E+03  0.28197920938E+03  0.00000000000E+00 0. -1.
          2    1    6    6  503    0 -0.61152574464E+02 -0.25233240036E+03  0.55950912749E+02  0.26559702986E+03  0.00000000000E+00 0. -1.
         -2    1    6    6    0  503 -0.28251169836E+03 -0.60650687541E+03  0.84125255710E+02  0.67434450267E+03  0.00000000000E+00 0.  1.
<mgrwt>
<rscale>  0 0.26493888E+04</rscale>
<asrwt>0</asrwt>
<pdfrwt beam="1">  1        2 0.34651649E+00 0.26493888E+04</pdfrwt>
<pdfrwt beam="2">  1       -1 0.11986180E+00 0.26493888E+04</pdfrwt>
<totfact> 0.30004962E+00</totfact>
</mgrwt>
</event>
<event>
12    6  0.1553355E-007  0.2643383E+04  0.7818608E-02  0.8353613E-01
          2   -1    0    0  501    0  0.00000000000E+00  0.00000000000E+00  0.37087666202E+04  0.37087666202E+04  0.00000000000E+00 0. -1.
         -1   -1    0    0    0  501 -0.00000000000E+00 -0.00000000000E+00 -0.47101055391E+03  0.47101055391E+03  0.00000000000E+00 0.  1.
         24    2    1    2    0    0 -0.64827580884E+03  0.14797161161E+03 -0.86124982423E+02  0.67474012834E+03  0.75495735215E+02 0.  0.
        254    2    1    2    0    0  0.64827580884E+03 -0.14797161161E+03  0.33238810487E+04  0.35050370458E+04  0.89159539256E+03 0.  0.
         23    2    4    4    0    0  0.61510247565E+03 -0.32897768743E+03  0.13640221123E+04  0.15344563594E+04  0.86154638631E+02 0.  0.
         23    2    4    4    0    0  0.33173333188E+02  0.18100607582E+03  0.19598589364E+04  0.19705806864E+04  0.90980883817E+02 0.  0.
          2    1    3    3  502    0 -0.14637110315E+03  0.38013106495E+02  0.11788419422E+02  0.15168540778E+03  0.00000000000E+00 0. -1.
         -1    1    3    3    0  502 -0.50190470569E+03  0.10995850511E+03 -0.97913401845E+02  0.52305472056E+03  0.00000000000E+00 0.  1.
         11    1    5    5    0    0  0.27515586813E+02 -0.33184810108E+02  0.59763349810E+02  0.73688514167E+02  0.00000000000E+00 0. -1.
        -11    1    5    5    0    0  0.58758688884E+03 -0.29579287732E+03  0.13042587625E+04  0.14607678453E+04  0.00000000000E+00 0.  1.
          3    1    6    6  503    0  0.38268444248E+02  0.77813462807E+02  0.53511078991E+03  0.54209128963E+03  0.00000000000E+00 0. -1.
         -3    1    6    6    0  503 -0.50951110601E+01  0.10319261301E+03  0.14247481465E+04  0.14284893967E+04  0.00000000000E+00 0.  1.
<mgrwt>
<rscale>  0 0.26433828E+04</rscale>
<asrwt>0</asrwt>
<pdfrwt beam="1">  1        2 0.57057946E+00 0.26433828E+04</pdfrwt>
<pdfrwt beam="2">  1       -1 0.72463165E-01 0.26433828E+04</pdfrwt>
<totfact> 0.11080054E+00</totfact>
</mgrwt>
</event>
<event>
12    6  0.1553355E-007  0.2600981E+04  0.7818608E-02  0.8367868E-01
         -3   -1    0    0    0  501 -0.00000000000E+00  0.00000000000E+00  0.62224466298E+03  0.62224466298E+03  0.00000000000E+00 0.  1.
          2   -1    0    0  501    0  0.00000000000E+00 -0.00000000000E+00 -0.27180229587E+04  0.27180229587E+04  0.00000000000E+00 0. -1.
         24    2    1    2    0    0  0.59632259318E+03 -0.85955849279E+03 -0.32647348524E+03  0.10989669342E+04  0.81865427784E+02 0.  0.
        254    2    1    2    0    0 -0.59632259318E+03  0.85955849279E+03 -0.17693048105E+04  0.22413006875E+04  0.89361502983E+03 0.  0.
         23    2    4    4    0    0 -0.56351545785E+03  0.23817585956E+03 -0.40570391820E+03  0.73969194349E+03  0.90945537005E+02 0.  0.
         23    2    4    4    0    0 -0.32807135321E+02  0.62138263324E+03 -0.13636008923E+04  0.15016087440E+04  0.90712411095E+02 0.  0.
          2    1    3    3  502    0  0.10149185920E+03 -0.18079450917E+03 -0.92289170938E+02  0.22694612379E+03  0.00000000000E+00 0. -1.
         -1    1    3    3    0  502  0.49483073397E+03 -0.67876398362E+03 -0.23418431430E+03  0.87202081042E+03  0.00000000000E+00 0.  1.
         11    1    5    5    0    0 -0.33064905339E+03  0.97265506029E+02 -0.19962013038E+03  0.39829332360E+03  0.00000000000E+00 0. -1.
        -11    1    5    5    0    0 -0.23286640446E+03  0.14091035353E+03 -0.20608378782E+03  0.34139861989E+03  0.00000000000E+00 0.  1.
          3    1    6    6  503    0 -0.33526545856E+02  0.23185172736E+03 -0.42295275642E+03  0.48349590166E+03  0.00000000000E+00 0. -1.
         -3    1    6    6    0  503  0.71941053560E+00  0.38953090587E+03 -0.94064813585E+03  0.10181128423E+04  0.00000000000E+00 0.  1.
<mgrwt>
<rscale>  0 0.26009808E+04</rscale>
<asrwt>0</asrwt>
<pdfrwt beam="1">  1        2 0.41815738E+00 0.26009808E+04</pdfrwt>
<pdfrwt beam="2">  1       -3 0.95729947E-01 0.26009808E+04</pdfrwt>
<totfact> 0.14178044E+00</totfact>
</mgrwt>
</event>
<event>
12    6  0.1553355E-007  0.1450432E+04  0.7818608E-02  0.8918101E-01
          2   -1    0    0  501    0  0.00000000000E+00  0.00000000000E+00  0.75745720191E+03  0.75745720191E+03  0.00000000000E+00 0. -1.
         -1   -1    0    0    0  501 -0.00000000000E+00 -0.00000000000E+00 -0.69434725191E+03  0.69434725191E+03  0.00000000000E+00 0.  1.
         24    2    1    2    0    0  0.28028385523E+02 -0.39480098766E+03 -0.23535817509E+03  0.46722376668E+03  0.79064323925E+02 0.  0.
        254    2    1    2    0    0 -0.28028385523E+02  0.39480098766E+03  0.29846812509E+03  0.98458068715E+03  0.85068354725E+03 0.  0.
         23    2    4    4    0    0  0.94587446498E+02  0.60200757137E+03  0.36553980795E+03  0.71690196196E+03  0.94705706500E+02 0.  0.
         23    2    4    4    0    0 -0.12261583202E+03 -0.20720658371E+03 -0.67071682867E+02  0.26767872519E+03  0.95833598917E+02 0.  0.
          4    1    3    3  502    0 -0.21759930000E+02 -0.42779493231E+02 -0.31297299043E+02  0.57298346591E+02  0.00000000000E+00 0. -1.
         -3    1    3    3    0  502  0.49788315523E+02 -0.35202149443E+03 -0.20406087604E+03  0.40992542009E+03  0.00000000000E+00 0.  1.
         11    1    5    5    0    0  0.66061019045E+02  0.17613728810E+03  0.87236939738E+02  0.20736124554E+03  0.00000000000E+00 0.  1.
        -11    1    5    5    0    0  0.28526427453E+02  0.42587028326E+03  0.27830286821E+03  0.50954071642E+03  0.00000000000E+00 0. -1.
          3    1    6    6  503    0 -0.12744620500E+02 -0.12860634663E+02 -0.38576633437E+02  0.42614292473E+02  0.00000000000E+00 0. -1.
         -3    1    6    6    0  503 -0.10987121152E+03 -0.19434594905E+03 -0.28495049430E+02  0.22506443272E+03  0.00000000000E+00 0.  1.
<mgrwt>
<rscale>  0 0.14504321E+04</rscale>
<asrwt>0</asrwt>
<pdfrwt beam="1">  1        2 0.11653188E+00 0.14504321E+04</pdfrwt>
<pdfrwt beam="2">  1       -1 0.10682265E+00 0.14504321E+04</pdfrwt>
<totfact> 0.33537132E+01</totfact>
</mgrwt>
</event>
<event>
12    6  0.1553355E-007  0.2448416E+04  0.7818608E-02  0.8421597E-01
         -1   -1    0    0    0  501 -0.00000000000E+00  0.00000000000E+00  0.84363165507E+03  0.84363165507E+03  0.00000000000E+00 0.  1.
          2   -1    0    0  501    0  0.00000000000E+00 -0.00000000000E+00 -0.17764681764E+04  0.17764681764E+04  0.00000000000E+00 0. -1.
         24    2    1    2    0    0 -0.95113816347E+03  0.83450067700E+02 -0.85967977918E+03  0.12873092744E+04  0.80548900746E+02 0.  0.
        254    2    1    2    0    0  0.95113816347E+03 -0.83450067700E+02 -0.73156742158E+02  0.13327905571E+04  0.92701188790E+03 0.  0.
         23    2    4    4    0    0  0.85570874957E+03  0.30763499586E+03 -0.97241399722E+02  0.91911960561E+03  0.91914116590E+02 0.  0.
         23    2    4    4    0    0  0.95429413902E+02 -0.39108506356E+03  0.24084657564E+02  0.41367095147E+03  0.92137318101E+02 0.  0.
          2    1    3    3  502    0 -0.95039402187E+03  0.86251313736E+02 -0.85273216390E+03  0.12797813209E+04  0.00000000000E+00 0. -1.
         -1    1    3    3    0  502 -0.74414160152E+00 -0.28012460362E+01 -0.69476152811E+01  0.75279535183E+01  0.00000000000E+00 0.  1.
         11    1    5    5    0    0  0.11031218072E+03  0.31459948533E+02  0.17257795146E+02  0.11600145288E+03  0.00000000000E+00 0.  1.
        -11    1    5    5    0    0  0.74539656884E+03  0.27617504733E+03 -0.11449919487E+03  0.80311815272E+03  0.00000000000E+00 0. -1.
          3    1    6    6  503    0  0.10862308432E+02 -0.22225154898E+03 -0.52404458907E+01  0.22257853230E+03  0.00000000000E+00 0. -1.
         -3    1    6    6    0  503  0.84567105469E+02 -0.16883351458E+03  0.29325103455E+02  0.19109241917E+03  0.00000000000E+00 0.  1.
<mgrwt>
<rscale>  0 0.24484156E+04</rscale>
<asrwt>0</asrwt>
<pdfrwt beam="1">  1        2 0.27330280E+00 0.24484156E+04</pdfrwt>
<pdfrwt beam="2">  1       -1 0.12978949E+00 0.24484156E+04</pdfrwt>
<totfact> 0.46170245E+00</totfact>
</mgrwt>
</event>
<event>
12    6  0.1553355E-007  0.1458200E+04  0.7818608E-02  0.8912736E-01
         -1   -1    0    0    0  501 -0.00000000000E+00  0.00000000000E+00  0.62437016143E+03  0.62437016143E+03  0.00000000000E+00 0.  1.
          2   -1    0    0  501    0  0.00000000000E+00 -0.00000000000E+00 -0.85139649839E+03  0.85139649839E+03  0.00000000000E+00 0. -1.
         24    2    1    2    0    0 -0.42594895498E+03  0.57207246489E+02  0.35804776225E+02  0.43830838502E+03  0.78275648064E+02 0.  0.
        254    2    1    2    0    0  0.42594895498E+03 -0.57207246489E+02 -0.26283111318E+03  0.10374582748E+04  0.90693676549E+03 0.  0.
         23    2    4    4    0    0  0.37993490838E+03 -0.15107181705E+03  0.26248409338E+03  0.49405277409E+03  0.89537789757E+02 0.  0.
         23    2    4    4    0    0  0.46014046599E+02  0.93864570559E+02 -0.52531520656E+03  0.54340550071E+03  0.91682178600E+02 0.  0.
          2    1    3    3  502    0 -0.24706362205E+03  0.17710892332E+02  0.56168893086E+02  0.25398632561E+03  0.00000000000E+00 0. -1.
         -1    1    3    3    0  502 -0.17888533293E+03  0.39496354157E+02 -0.20364116860E+02  0.18432205941E+03  0.00000000000E+00 0.  1.
         11    1    5    5    0    0  0.20965266671E+03 -0.87007620697E+02  0.92659973092E+02  0.24517429990E+03  0.00000000000E+00 0.  1.
        -11    1    5    5    0    0  0.17028224167E+03 -0.64064196350E+02  0.16982412029E+03  0.24887847419E+03  0.00000000000E+00 0. -1.
          2    1    6    6  503    0  0.63692632881E+02  0.36783537262E+02 -0.36450585767E+03  0.37185252503E+03  0.00000000000E+00 0. -1.
         -2    1    6    6    0  503 -0.17678586281E+02  0.57081033297E+02 -0.16080934889E+03  0.17155297568E+03  0.00000000000E+00 0.  1.
<mgrwt>
<rscale>  0 0.14581997E+04</rscale>
<asrwt>0</asrwt>
<pdfrwt beam="1">  1        2 0.13098408E+00 0.14581997E+04</pdfrwt>
<pdfrwt beam="2">  1       -1 0.96056948E-01 0.14581997E+04</pdfrwt>
<totfact> 0.36603160E+01</totfact>
</mgrwt>
</event>
<event>
12    6  0.1553355E-007  0.2097546E+04  0.7818608E-02  0.8562325E-01
         -1   -1    0    0    0  501 -0.00000000000E+00  0.00000000000E+00  0.26221297881E+04  0.26221297881E+04  0.00000000000E+00 0.  1.
          2   -1    0    0  501    0  0.00000000000E+00 -0.00000000000E+00 -0.41947751006E+03  0.41947751006E+03  0.00000000000E+00 0. -1.
         24    2    1    2    0    0 -0.24101972551E+03  0.29789348648E+03 -0.20521793428E+03  0.44192191362E+03  0.79683999735E+02 0.  0.
        254    2    1    2    0    0  0.24101972551E+03 -0.29789348648E+03  0.24078702123E+04  0.25996853846E+04  0.90204994422E+03 0.  0.
         23    2    4    4    0    0 -0.81158643812E+02  0.27032283253E+03  0.50527172794E+03  0.58606221602E+03  0.92240136256E+02 0.  0.
         23    2    4    4    0    0  0.32217836932E+03 -0.56821631901E+03  0.19025984844E+04  0.20136231686E+04  0.90158666945E+02 0.  0.
          2    1    3    3  502    0 -0.12905127730E+03  0.14907449123E+03 -0.61062964232E+02  0.20641250376E+03  0.00000000000E+00 0. -1.
         -1    1    3    3    0  502 -0.11196844821E+03  0.14881899526E+03 -0.14415497005E+03  0.23550940986E+03  0.00000000000E+00 0.  1.
         11    1    5    5    0    0  0.61532079887E+00 -0.34301497369E+01 -0.18881812751E+01  0.39635559074E+01  0.00000000000E+00 0.  1.
        -11    1    5    5    0    0 -0.81773964611E+02  0.27375298226E+03  0.50715990922E+03  0.58209866011E+03  0.00000000000E+00 0. -1.
          1    1    6    6  503    0  0.31867045978E+03 -0.57156504193E+03  0.18845808954E+04  0.19949643131E+04  0.00000000000E+00 0. -1.
         -1    1    6    6    0  503  0.35079095404E+01  0.33487229246E+01  0.18017588974E+02  0.18658855458E+02  0.00000000000E+00 0.  1.
<mgrwt>
<rscale>  0 0.20975457E+04</rscale>
<asrwt>0</asrwt>
<pdfrwt beam="1">  1        2 0.64535003E-01 0.20975457E+04</pdfrwt>
<pdfrwt beam="2">  1       -1 0.40340457E+00 0.20975457E+04</pdfrwt>
<totfact> 0.53872565E-01</totfact>
</mgrwt>
</event>
<event>
12    6  0.1553355E-007  0.2898697E+04  0.7818608E-02  0.8273265E-01
         -1   -1    0    0    0  501 -0.00000000000E+00  0.00000000000E+00  0.49062422523E+03  0.49062422523E+03  0.00000000000E+00 0.  1.
          2   -1    0    0  501    0  0.00000000000E+00 -0.00000000000E+00 -0.42815075607E+04  0.42815075607E+04  0.00000000000E+00 0. -1.
         24    2    1    2    0    0 -0.94725986855E+03  0.89965684721E+03 -0.18765784575E+04  0.22878750611E+04  0.78370190448E+02 0.  0.
        254    2    1    2    0    0  0.94725986855E+03 -0.89965684721E+03 -0.19143048779E+04  0.24842567248E+04  0.89458627740E+03 0.  0.
         23    2    4    4    0    0  0.48219393632E+03 -0.98410746550E+03 -0.13875767622E+04  0.17706915000E+04  0.94871604489E+02 0.  0.
         23    2    4    4    0    0  0.46506593223E+03  0.84450618288E+02 -0.52672811569E+03  0.71356522475E+03  0.91184394835E+02 0.  0.
          4    1    3    3  502    0 -0.75850303676E+03  0.74574040497E+03 -0.15682028572E+04  0.18949184177E+04  0.00000000000E+00 0. -1.
         -3    1    3    3    0  502 -0.18875683179E+03  0.15391644224E+03 -0.30837560035E+03  0.39295664345E+03  0.00000000000E+00 0.  1.
         11    1    5    5    0    0  0.47015848643E+03 -0.96857556983E+03 -0.13782772074E+04  0.17489527430E+04  0.00000000000E+00 0. -1.
        -11    1    5    5    0    0  0.12035449892E+02 -0.15531895668E+02 -0.92995548362E+01  0.21738757032E+02  0.00000000000E+00 0.  1.
          1    1    6    6  503    0  0.36624675987E+03  0.31550068865E+02 -0.42801714739E+03  0.56420809497E+03  0.00000000000E+00 0. -1.
         -1    1    6    6    0  503  0.98819172361E+02  0.52900549423E+02 -0.98710968295E+02  0.14935712978E+03  0.00000000000E+00 0.  1.
<mgrwt>
<rscale>  0 0.28986972E+04</rscale>
<asrwt>0</asrwt>
<pdfrwt beam="1">  1        2 0.65869349E+00 0.28986972E+04</pdfrwt>
<pdfrwt beam="2">  1       -1 0.75480648E-01 0.28986972E+04</pdfrwt>
<totfact> 0.34108834E-01</totfact>
</mgrwt>
</event>
<event>
12    6  0.1553355E-007  0.4055703E+04  0.7818608E-02  0.7993403E-01
         -1   -1    0    0    0  501 -0.00000000000E+00  0.00000000000E+00  0.17290761797E+04  0.17290761797E+04  0.00000000000E+00 0.  1.
          2   -1    0    0  501    0  0.00000000000E+00 -0.00000000000E+00 -0.23782536629E+04  0.23782536629E+04  0.00000000000E+00 0. -1.
         24    2    1    2    0    0 -0.30619984188E+03  0.14170432242E+04 -0.16329094454E+04  0.21850450734E+04  0.79113043516E+02 0.  0.
        254    2    1    2    0    0  0.30619984188E+03 -0.14170432242E+04  0.98373196220E+03  0.19222847692E+04  0.79099956893E+03 0.  0.
         23    2    4    4    0    0  0.21596693754E+03 -0.81836875606E+03  0.99589045551E+03  0.13102557908E+04  0.92753969512E+02 0.  0.
         23    2    4    4    0    0  0.90232904338E+02 -0.59867446818E+03 -0.12158493316E+02  0.61202897846E+03  0.88761171916E+02 0.  0.
          2    1    3    3  502    0 -0.24276236364E+03  0.10714278161E+04 -0.12843547068E+04  0.16901059562E+04  0.00000000000E+00 0. -1.
         -1    1    3    3    0  502 -0.63437478232E+02  0.34561540814E+03 -0.34855473853E+03  0.49493911721E+03  0.00000000000E+00 0.  1.
         11    1    5    5    0    0  0.16315400713E+03 -0.73350017642E+03  0.87360271693E+03  0.11523122172E+04  0.00000000000E+00 0. -1.
        -11    1    5    5    0    0  0.52812930408E+02 -0.84868579636E+02  0.12228773858E+03  0.15794357358E+03  0.00000000000E+00 0.  1.
          1    1    6    6  503    0  0.10038862578E+03 -0.38139688389E+03 -0.65444496881E+01  0.39444174354E+03  0.00000000000E+00 0. -1.
         -1    1    6    6    0  503 -0.10155721447E+02 -0.21727758429E+03 -0.56140436275E+01  0.21758723492E+03  0.00000000000E+00 0.  1.
<mgrwt>
<rscale>  0 0.40557030E+04</rscale>
<asrwt>0</asrwt>
<pdfrwt beam="1">  1        2 0.36588517E+00 0.40557030E+04</pdfrwt>
<pdfrwt beam="2">  1       -1 0.26601172E+00 0.40557030E+04</pdfrwt>
<totfact> 0.20034284E-01</totfact>
</mgrwt>
</event>
<event>
12    6  0.1553355E-007  0.1410523E+04  0.7818608E-02  0.8946236E-01
          2   -1    0    0  501    0  0.00000000000E+00  0.00000000000E+00  0.21148092546E+04  0.21148092546E+04  0.00000000000E+00 0. -1.
         -1   -1    0    0    0  501 -0.00000000000E+00 -0.00000000000E+00 -0.23519560006E+03  0.23519560006E+03  0.00000000000E+00 0.  1.
         24    2    1    2    0    0  0.14731805820E+03  0.17745977138E+03  0.11390644012E+04  0.11648387391E+04  0.78657469303E+02 0.  0.
        254    2    1    2    0    0 -0.14731805820E+03 -0.17745977138E+03  0.74054925339E+03  0.11851661155E+04  0.89610877910E+03 0.  0.
         23    2    4    4    0    0  0.73921830032E+02 -0.12632794139E+03  0.88530496438E+03  0.90195918048E+03  0.91336178837E+02 0.  0.
         23    2    4    4    0    0 -0.22123988823E+03 -0.51131829983E+02 -0.14475571099E+03  0.28320693505E+03  0.87694925816E+02 0.  0.
          4    1    3    3  502    0  0.11813809371E+03  0.15628185018E+03  0.79049556336E+03  0.81441013106E+03  0.00000000000E+00 0. -1.
         -3    1    3    3    0  502  0.29179964485E+02  0.21177921196E+02  0.34856883781E+03  0.35042860809E+03  0.00000000000E+00 0.  1.
         11    1    5    5    0    0 -0.11555506979E+02 -0.22994499676E+02  0.52976510073E+02  0.58896412254E+02  0.00000000000E+00 0. -1.
        -11    1    5    5    0    0  0.85477337011E+02 -0.10333344172E+03  0.83232845431E+03  0.84306276823E+03  0.00000000000E+00 0.  1.
          1    1    6    6  503    0 -0.98068163217E+01  0.11124327271E+02  0.61857372838E+01  0.16068218611E+02  0.00000000000E+00 0. -1.
         -1    1    6    6    0  503 -0.21143307191E+03 -0.62256157254E+02 -0.15094144828E+03  0.26713871644E+03  0.00000000000E+00 0.  1.
<mgrwt>
<rscale>  0 0.14105231E+04</rscale>
<asrwt>0</asrwt>
<pdfrwt beam="1">  1        2 0.32535526E+00 0.14105231E+04</pdfrwt>
<pdfrwt beam="2">  1       -1 0.36183940E-01 0.14105231E+04</pdfrwt>
<totfact> 0.46726192E+01</totfact>
</mgrwt>
</event>
<event>
12    6  0.1553355E-007  0.1490649E+04  0.7818608E-02  0.8890695E-01
          2   -1    0    0  501    0  0.00000000000E+00  0.00000000000E+00  0.37209899923E+04  0.37209899923E+04  0.00000000000E+00 0. -1.
         -1   -1    0    0    0  501 -0.00000000000E+00 -0.00000000000E+00 -0.14929054556E+03  0.14929054556E+03  0.00000000000E+00 0.  1.
         24    2    1    2    0    0 -0.13609535900E+03 -0.18426478388E+03  0.74130233860E+02  0.25365744512E+03  0.79820740244E+02 0.  0.
        254    2    1    2    0    0  0.13609535900E+03  0.18426478388E+03  0.34975692128E+04  0.36166230927E+04  0.89134546544E+03 0.  0.
         23    2    4    4    0    0 -0.13552648619E+03 -0.28386885100E+03  0.81474198246E+03  0.87817278102E+03  0.91836715499E+02 0.  0.
         23    2    4    4    0    0  0.27162184520E+03  0.46813363488E+03  0.26828272304E+04  0.27384503117E+04  0.92847372546E+02 0.  0.
          2    1    3    3  502    0 -0.32572395636E+02 -0.48310056140E+02  0.57677949224E+02  0.81985171271E+02  0.00000000000E+00 0. -1.
         -1    1    3    3    0  502 -0.10352296337E+03 -0.13595472774E+03  0.16452284636E+02  0.17167227385E+03  0.00000000000E+00 0.  1.
         11    1    5    5    0    0 -0.13096530795E+03 -0.22032279321E+03  0.56475616791E+03  0.62019639977E+03  0.00000000000E+00 0. -1.
        -11    1    5    5    0    0 -0.45611782465E+01 -0.63546057792E+02  0.24998581454E+03  0.25797638125E+03  0.00000000000E+00 0.  1.
          4    1    6    6  503    0  0.14490030452E+03  0.24070953737E+03  0.16212853738E+04  0.16454493134E+04  0.00000000000E+00 0. -1.
         -4    1    6    6    0  503  0.12672154068E+03  0.22742409751E+03  0.10615418566E+04  0.10930009983E+04  0.00000000000E+00 0.  1.
<mgrwt>
<rscale>  0 0.14906490E+04</rscale>
<asrwt>0</asrwt>
<pdfrwt beam="1">  1        2 0.57245993E+00 0.14906490E+04</pdfrwt>
<pdfrwt beam="2">  1       -1 0.22967779E-01 0.14906490E+04</pdfrwt>
<totfact> 0.10226114E+01</totfact>
</mgrwt>
</event>
<event>
12    6  0.1553355E-007  0.1227403E+04  0.7818608E-02  0.9089203E-01
         -1   -1    0    0    0  501 -0.00000000000E+00  0.00000000000E+00  0.33453140957E+03  0.33453140957E+03  0.00000000000E+00 0.  1.
          2   -1    0    0  501    0  0.00000000000E+00 -0.00000000000E+00 -0.11258425547E+04  0.11258425547E+04  0.00000000000E+00 0. -1.
         24    2    1    2    0    0 -0.13796174985E+03 -0.61370180575E+02 -0.45698247325E+03  0.48740398405E+03  0.77005969416E+02 0.  0.
        254    2    1    2    0    0  0.13796174985E+03  0.61370180575E+02 -0.33432867184E+03  0.97296998017E+03  0.90116323605E+03 0.  0.
         23    2    4    4    0    0  0.77556197040E+02  0.40285448633E+03 -0.43047928571E+03  0.60194819443E+03  0.93394392180E+02 0.  0.
         23    2    4    4    0    0  0.60405552813E+02 -0.34148430576E+03  0.96150613867E+02  0.37102178574E+03  0.90287668373E+02 0.  0.
          2    1    3    3  502    0 -0.10356493304E+03 -0.27772189087E+02 -0.39302137578E+03  0.40738531106E+03  0.00000000000E+00 0. -1.
         -1    1    3    3    0  502 -0.34396816808E+02 -0.33597991488E+02 -0.63961097468E+02  0.80018672995E+02  0.00000000000E+00 0.  1.
         11    1    5    5    0    0  0.64071451111E+02  0.39516550841E+03 -0.42832066401E+03  0.58627597691E+03  0.00000000000E+00 0.  1.
        -11    1    5    5    0    0  0.13484745929E+02  0.76889779273E+01 -0.21586217001E+01  0.15672217520E+02  0.00000000000E+00 0. -1.
          3    1    6    6  503    0 -0.11001394301E+02 -0.64958775471E+02 -0.93872655252E+01  0.66549184377E+02  0.00000000000E+00 0. -1.
         -3    1    6    6    0  503  0.71406947114E+02 -0.27652553029E+03  0.10553787939E+03  0.30447260137E+03  0.00000000000E+00 0.  1.
<mgrwt>
<rscale>  0 0.12274033E+04</rscale>
<asrwt>0</asrwt>
<pdfrwt beam="1">  1        2 0.17320655E+00 0.12274033E+04</pdfrwt>
<pdfrwt beam="2">  1       -1 0.51466371E-01 0.12274033E+04</pdfrwt>
<totfact> 0.89571311E+01</totfact>
</mgrwt>
</event>
<event>
12    6  0.1553355E-007  0.2819841E+04  0.7818608E-02  0.8297135E-01
         -1   -1    0    0    0  501 -0.00000000000E+00  0.00000000000E+00  0.79173629354E+03  0.79173629354E+03  0.00000000000E+00 0.  1.
          2   -1    0    0  501    0  0.00000000000E+00 -0.00000000000E+00 -0.25107810075E+04  0.25107810075E+04  0.00000000000E+00 0. -1.
         24    2    1    2    0    0  0.11598445794E+04  0.36827274528E+03 -0.11653303258E+04  0.16871583634E+04  0.87431753913E+02 0.  0.
        254    2    1    2    0    0 -0.11598445794E+04 -0.36827274528E+03 -0.55371438818E+03  0.16153589377E+04  0.90659837330E+03 0.  0.
         23    2    4    4    0    0 -0.35598618663E+03  0.11116284175E+03 -0.55421989698E+03  0.67517383252E+03  0.98064608588E+02 0.  0.
         23    2    4    4    0    0 -0.80385839280E+03 -0.47943558703E+03  0.50550879708E+00  0.94018510514E+03  0.88887449101E+02 0.  0.
          2    1    3    3  502    0  0.66651334622E+03  0.24224736015E+03 -0.72195242057E+03  0.10119975898E+04  0.00000000000E+00 0. -1.
         -1    1    3    3    0  502  0.49333123321E+03  0.12602538513E+03 -0.44337790522E+03  0.67516077359E+03  0.00000000000E+00 0.  1.
         11    1    5    5    0    0 -0.24653675219E+03  0.83442079624E+02 -0.45818414203E+03  0.52694938926E+03  0.00000000000E+00 0.  1.
        -11    1    5    5    0    0 -0.10944943444E+03  0.27720762126E+02 -0.96035754949E+02  0.14822444326E+03  0.00000000000E+00 0. -1.
          3    1    6    6  503    0 -0.23081968775E+03 -0.13305099480E+03 -0.39808684982E+02  0.26937896516E+03  0.00000000000E+00 0. -1.
         -3    1    6    6    0  503 -0.57303870504E+03 -0.34638459223E+03  0.40314193780E+02  0.67080613998E+03  0.00000000000E+00 0.  1.
<mgrwt>
<rscale>  0 0.28198414E+04</rscale>
<asrwt>0</asrwt>
<pdfrwt beam="1">  1        2 0.38627399E+00 0.28198414E+04</pdfrwt>
<pdfrwt beam="2">  1       -1 0.12180559E+00 0.28198414E+04</pdfrwt>
<totfact> 0.20217278E+00</totfact>
</mgrwt>
</event>
<event>
12    6  0.1553355E-007  0.1515683E+04  0.7818608E-02  0.8874090E-01
         -1   -1    0    0    0  501 -0.00000000000E+00  0.00000000000E+00  0.46178973792E+03  0.46178973792E+03  0.00000000000E+00 0.  1.
          2   -1    0    0  501    0  0.00000000000E+00 -0.00000000000E+00 -0.12436912764E+04  0.12436912764E+04  0.00000000000E+00 0. -1.
         24    2    1    2    0    0 -0.26297136384E+03  0.17064589480E+03  0.16112091217E+03  0.36142663223E+03  0.79970635444E+02 0.  0.
        254    2    1    2    0    0  0.26297136384E+03 -0.17064589480E+03 -0.94302245067E+03  0.13440543821E+04  0.90494026321E+03 0.  0.
         23    2    4    4    0    0  0.33892486624E+03 -0.29985288213E+03 -0.88337046467E+02  0.47034752451E+03  0.92959906154E+02 0.  0.
         23    2    4    4    0    0 -0.75953502403E+02  0.12920698733E+03 -0.85468540420E+03  0.87370685759E+03  0.10204485655E+03 0.  0.
          2    1    3    3  502    0 -0.96974250144E+02  0.90575782886E+02  0.10363723010E+03  0.16837058264E+03  0.00000000000E+00 0. -1.
         -1    1    3    3    0  502 -0.16599711370E+03  0.80070111916E+02  0.57483682070E+02  0.19305604959E+03  0.00000000000E+00 0.  1.
         11    1    5    5    0    0  0.88752223812E+00  0.42075463670E+01 -0.73624831467E+01  0.85262711803E+01  0.00000000000E+00 0. -1.
        -11    1    5    5    0    0  0.33803734401E+03 -0.30406042850E+03 -0.80974563321E+02  0.46182125333E+03  0.00000000000E+00 0.  1.
          4    1    6    6  503    0 -0.60842350785E+02  0.10620692704E+02 -0.29578641628E+03  0.30216583992E+03  0.00000000000E+00 0. -1.
         -4    1    6    6    0  503 -0.15111151617E+02  0.11858629463E+03 -0.55889898793E+03  0.57154101767E+03  0.00000000000E+00 0.  1.
<mgrwt>
<rscale>  0 0.15156832E+04</rscale>
<asrwt>0</asrwt>
<pdfrwt beam="1">  1        2 0.19133712E+00 0.15156832E+04</pdfrwt>
<pdfrwt beam="2">  1       -1 0.71044576E-01 0.15156832E+04</pdfrwt>
<totfact> 0.39284467E+01</totfact>
</mgrwt>
</event>
<event>
12    6  0.1553355E-007  0.1138297E+04  0.7818608E-02  0.9168648E-01
         -1   -1    0    0    0  501 -0.00000000000E+00  0.00000000000E+00  0.19385800674E+03  0.19385800674E+03  0.00000000000E+00 0.  1.
          2   -1    0    0  501    0  0.00000000000E+00 -0.00000000000E+00 -0.16709657370E+04  0.16709657370E+04  0.00000000000E+00 0. -1.
         24    2    1    2    0    0  0.85392076345E+02 -0.74066037662E+02 -0.54517709751E+03  0.56356545455E+03  0.87237430528E+02 0.  0.
        254    2    1    2    0    0 -0.85392076345E+02  0.74066037662E+02 -0.93193063273E+03  0.13012582892E+04  0.90111089565E+03 0.  0.
         23    2    4    4    0    0  0.95471905699E+02 -0.14921347122E+01 -0.10480031630E+04  0.10572014510E+04  0.10122829213E+03 0.  0.
         23    2    4    4    0    0 -0.18086398204E+03  0.75558172374E+02  0.11607253030E+03  0.24405683812E+03  0.87579053014E+02 0.  0.
          4    1    3    3  502    0  0.42415688867E+02 -0.78154058852E+02 -0.45474438746E+03  0.46335688783E+03  0.00000000000E+00 0. -1.
         -3    1    3    3    0  502  0.42976387478E+02  0.40880211908E+01 -0.90432710047E+02  0.10020856672E+03  0.00000000000E+00 0.  1.
         11    1    5    5    0    0  0.66535099898E+01 -0.26816573288E+02 -0.55082972998E+03  0.55152224727E+03  0.00000000000E+00 0.  1.
        -11    1    5    5    0    0  0.88818395709E+02  0.25324438576E+02 -0.49717343305E+03  0.50567920378E+03  0.00000000000E+00 0. -1.
          3    1    6    6  503    0 -0.17923556780E+03  0.45971794214E+02  0.10117772247E+03  0.21089268871E+03  0.00000000000E+00 0. -1.
         -3    1    6    6    0  503 -0.16284142487E+01  0.29586378160E+02  0.14894807838E+02  0.33164149410E+02  0.00000000000E+00 0.  1.
<mgrwt>
<rscale>  0 0.11382971E+04</rscale>
<asrwt>0</asrwt>
<pdfrwt beam="1">  1        2 0.25707165E+00 0.11382971E+04</pdfrwt>
<pdfrwt beam="2">  1       -1 0.29824309E-01 0.11382971E+04</pdfrwt>
<totfact> 0.11841275E+02</totfact>
</mgrwt>
</event>
<event>
12    6  0.1553355E-007  0.1489409E+04  0.7818608E-02  0.8891526E-01
         -1   -1    0    0    0  501 -0.00000000000E+00  0.00000000000E+00  0.80953129491E+03  0.80953129491E+03  0.00000000000E+00 0.  1.
          2   -1    0    0  501    0  0.00000000000E+00 -0.00000000000E+00 -0.68506936987E+03  0.68506936987E+03  0.00000000000E+00 0. -1.
         24    2    1    2    0    0 -0.47361939977E+03 -0.10048450338E+02  0.31722197137E+02  0.48144247215E+03  0.79776243353E+02 0.  0.
        254    2    1    2    0    0  0.47361939977E+03  0.10048450338E+02  0.92739727905E+02  0.10131581926E+04  0.89077076679E+03 0.  0.
         23    2    4    4    0    0  0.50872088484E+03  0.10977581762E+03  0.40798516656E+03  0.66838656225E+03  0.97164971388E+02 0.  0.
         23    2    4    4    0    0 -0.35101485067E+02 -0.99727367280E+02 -0.31524543865E+03  0.34477163038E+03  0.91159906124E+02 0.  0.
          4    1    3    3  502    0 -0.44459089536E+03 -0.15627358588E+02  0.10385682515E+02  0.44498667506E+03  0.00000000000E+00 0. -1.
         -3    1    3    3    0  502 -0.29028504406E+02  0.55789082502E+01  0.21336514621E+02  0.36455797091E+02  0.00000000000E+00 0.  1.
         11    1    5    5    0    0  0.38915718597E+03  0.86091658160E+02  0.36102012139E+03  0.53776446242E+03  0.00000000000E+00 0. -1.
        -11    1    5    5    0    0  0.11956369886E+03  0.23684159458E+02  0.46965045165E+02  0.13062209983E+03  0.00000000000E+00 0.  1.
          4    1    6    6  503    0 -0.22822018551E+02 -0.14081977075E+02 -0.19386406029E+03  0.19571004185E+03  0.00000000000E+00 0. -1.
         -4    1    6    6    0  503 -0.12279466516E+02 -0.85645390205E+02 -0.12138137836E+03  0.14906158852E+03  0.00000000000E+00 0.  1.
<mgrwt>
<rscale>  0 0.14894094E+04</rscale>
<asrwt>0</asrwt>
<pdfrwt beam="1">  1        2 0.10539529E+00 0.14894094E+04</pdfrwt>
<pdfrwt beam="2">  1       -1 0.12454328E+00 0.14894094E+04</pdfrwt>
<totfact> 0.26271416E+01</totfact>
</mgrwt>
</event>
<event>
12    6  0.1553355E-007  0.1189852E+04  0.7818608E-02  0.9121786E-01
         -1   -1    0    0    0  501 -0.00000000000E+00  0.00000000000E+00  0.17759137074E+03  0.17759137074E+03  0.00000000000E+00 0.  1.
          2   -1    0    0  501    0  0.00000000000E+00 -0.00000000000E+00 -0.19929839108E+04  0.19929839108E+04  0.00000000000E+00 0. -1.
         24    2    1    2    0    0  0.11423122208E+03  0.31951243295E+02 -0.73158175817E+03  0.74525618393E+03  0.78264019548E+02 0.  0.
        254    2    1    2    0    0 -0.11423122208E+03 -0.31951243295E+02 -0.10838107819E+04  0.14253190976E+04  0.91805177687E+03 0.  0.
         23    2    4    4    0    0 -0.33971220303E+03  0.16409106734E+03 -0.10407217668E+04  0.11105694028E+04  0.89063702376E+02 0.  0.
         23    2    4    4    0    0  0.22548098095E+03 -0.19604231064E+03 -0.43089015068E+02  0.31474969487E+03  0.89086737916E+02 0.  0.
          2    1    3    3  502    0  0.54085654682E+02  0.41714095449E+02 -0.53780716535E+03  0.54212717226E+03  0.00000000000E+00 0. -1.
         -1    1    3    3    0  502  0.60145567403E+02 -0.97628521537E+01 -0.19377459282E+03  0.20312901168E+03  0.00000000000E+00 0.  1.
         11    1    5    5    0    0 -0.34522981819E+03  0.15883211736E+03 -0.10202636026E+04  0.10887373823E+04  0.00000000000E+00 0. -1.
        -11    1    5    5    0    0  0.55176151592E+01  0.52589499818E+01 -0.20458164239E+02  0.21832020428E+02  0.00000000000E+00 0.  1.
          3    1    6    6  503    0  0.19691301412E+03 -0.18830937044E+03 -0.13342147808E+02  0.27278776922E+03  0.00000000000E+00 0. -1.
         -3    1    6    6    0  503  0.28567966827E+02 -0.77329401943E+01 -0.29746867261E+02  0.41961925653E+02  0.00000000000E+00 0.  1.
<mgrwt>
<rscale>  0 0.11898517E+04</rscale>
<asrwt>0</asrwt>
<pdfrwt beam="1">  1        2 0.30661290E+00 0.11898517E+04</pdfrwt>
<pdfrwt beam="2">  1       -1 0.27321750E-01 0.11898517E+04</pdfrwt>
<totfact> 0.91235409E+01</totfact>
</mgrwt>
</event>
<event>
12    6  0.1553355E-007  0.1613860E+04  0.7818608E-02  0.8812078E-01
          2   -1    0    0  501    0  0.00000000000E+00  0.00000000000E+00  0.24862799847E+04  0.24862799847E+04  0.00000000000E+00 0. -1.
         -1   -1    0    0    0  501 -0.00000000000E+00 -0.00000000000E+00 -0.26189165315E+03  0.26189165315E+03  0.00000000000E+00 0.  1.
         24    2    1    2    0    0 -0.26868981551E+03  0.21912430802E+03  0.31297839551E+02  0.35710301473E+03  0.79582215635E+02 0.  0.
        254    2    1    2    0    0  0.26868981551E+03 -0.21912430802E+03  0.21930904920E+04  0.23910686231E+04  0.88732946251E+03 0.  0.
         23    2    4    4    0    0 -0.30442291514E+03 -0.14596547182E+03  0.10530373842E+04  0.11096756082E+04  0.92265880926E+02 0.  0.
         23    2    4    4    0    0  0.57311273065E+03 -0.73158836203E+02  0.11400531078E+04  0.12813930149E+04  0.91850708326E+02 0.  0.
          2    1    3    3  502    0 -0.27465268503E+02 -0.31810974368E+01  0.39038440746E+01  0.27923115037E+02  0.00000000000E+00 0. -1.
         -3    1    3    3    0  502 -0.24122454701E+03  0.22230540546E+03  0.27393995476E+02  0.32917989970E+03  0.00000000000E+00 0.  1.
         11    1    5    5    0    0 -0.29588786153E+02 -0.51402779346E+02  0.18406641552E+03  0.19338610941E+03  0.00000000000E+00 0.  1.
        -11    1    5    5    0    0 -0.27483412899E+03 -0.94562692473E+02  0.86897096863E+03  0.91628949879E+03  0.00000000000E+00 0. -1.
          1    1    6    6  503    0  0.38890967924E+03 -0.17459866320E+02  0.82454231595E+03  0.91182543084E+03  0.00000000000E+00 0. -1.
         -1    1    6    6    0  503  0.18420305141E+03 -0.55698969883E+02  0.31551079186E+03  0.36956758405E+03  0.00000000000E+00 0.  1.
<mgrwt>
<rscale>  0 0.16138599E+04</rscale>
<asrwt>0</asrwt>
<pdfrwt beam="1">  1        2 0.38250460E+00 0.16138599E+04</pdfrwt>
<pdfrwt beam="2">  1       -1 0.40291025E-01 0.16138599E+04</pdfrwt>
<totfact> 0.23292599E+01</totfact>
</mgrwt>
</event>
<event>
12    6  0.1692084E-007  0.1733781E+04  0.7818608E-02  0.8742329E-01
         -1   -1    0    0    0  501 -0.00000000000E+00  0.00000000000E+00  0.61918415317E+03  0.61918415317E+03  0.00000000000E+00 0.  1.
          2   -1    0    0  501    0  0.00000000000E+00 -0.00000000000E+00 -0.12136931401E+04  0.12136931401E+04  0.00000000000E+00 0. -1.
         24    2    1    2    0    0 -0.11543139163E+02 -0.44609755757E+02  0.44596984085E+03  0.45554825872E+03  0.80695989422E+02 0.  0.
        254    2    1    2    0    0  0.11543139163E+02  0.44609755757E+02 -0.10404788277E+04  0.13773290345E+04  0.90128563950E+03 0.  0.
         23    2    4    4    0    0  0.31342222341E+03 -0.23675735208E+03 -0.22969603729E+03  0.46317345798E+03  0.86497680526E+02 0.  0.
         23    2    4    4    0    0 -0.30187908425E+03  0.28136710783E+03 -0.81078279044E+03  0.91415557653E+03  0.89516780278E+02 0.  0.
          4    1    3    3  502    0  0.26719665540E+02 -0.20184525480E+02  0.79318100667E+02  0.86097135195E+02  0.00000000000E+00 0. -1.
         -3    1    3    3    0  502 -0.38262804703E+02 -0.24425230276E+02  0.36665174018E+03  0.36945112353E+03  0.00000000000E+00 0.  1.
         11    1    5    5    0    0  0.44030240303E+02 -0.47133809793E+02 -0.56028973698E+01  0.64742957499E+02  0.00000000000E+00 0. -1.
        -11    1    5    5    0    0  0.26939198311E+03 -0.18962354228E+03 -0.22409313992E+03  0.39843050048E+03  0.00000000000E+00 0.  1.
          3    1    6    6  503    0 -0.12714416674E+01 -0.51678861128E+01 -0.23040896688E+02  0.23647548097E+02  0.00000000000E+00 0. -1.
         -3    1    6    6    0  503 -0.30060764258E+03  0.28653499395E+03 -0.78774189375E+03  0.89050802843E+03  0.00000000000E+00 0.  1.
<mgrwt>
<rscale>  0 0.17337815E+04</rscale>
<asrwt>0</asrwt>
<pdfrwt beam="1">  1        2 0.18672202E+00 0.17337815E+04</pdfrwt>
<pdfrwt beam="2">  1       -1 0.95259101E-01 0.17337815E+04</pdfrwt>
<totfact> 0.21407732E+01</totfact>
</mgrwt>
</event>
<event>
12    6  0.1716594E-007  0.2520997E+04  0.7818608E-02  0.8395543E-01
         -1   -1    0    0    0  501 -0.00000000000E+00  0.00000000000E+00  0.16050374174E+04  0.16050374174E+04  0.00000000000E+00 0.  1.
          2   -1    0    0  501    0  0.00000000000E+00 -0.00000000000E+00 -0.98991897232E+03  0.98991897232E+03  0.00000000000E+00 0. -1.
         24    2    1    2    0    0  0.25868622203E+03 -0.46989078888E+03  0.12528755000E+04  0.13652279795E+04  0.80215350140E+02 0.  0.
        254    2    1    2    0    0 -0.25868622203E+03  0.46989078888E+03 -0.63775705494E+03  0.12297284103E+04  0.90431299170E+03 0.  0.
         23    2    4    4    0    0 -0.11867930325E+03 -0.26033996491E+03 -0.14756511747E+03  0.33447157599E+03  0.90741924735E+02 0.  0.
         23    2    4    4    0    0 -0.14000691878E+03  0.73023075379E+03 -0.49019193747E+03  0.89525683428E+03  0.91420854699E+02 0.  0.
          2    1    3    3  502    0  0.24836404352E+02 -0.36173154247E+02  0.16902981770E+03  0.17463225172E+03  0.00000000000E+00 0. -1.
         -1    1    3    3    0  502  0.23384981768E+03 -0.43371763463E+03  0.10838456823E+04  0.11905957278E+04  0.00000000000E+00 0.  1.
         11    1    5    5    0    0 -0.39379410760E+02 -0.16471073656E+02 -0.11674065553E+02  0.44252887654E+02  0.00000000000E+00 0. -1.
        -11    1    5    5    0    0 -0.79299892487E+02 -0.24386889125E+03 -0.13589105192E+03  0.29021868834E+03  0.00000000000E+00 0.  1.
          3    1    6    6  503    0 -0.30412631322E+02  0.43942667380E+02 -0.25362267777E+02  0.59153451186E+02  0.00000000000E+00 0. -1.
         -3    1    6    6    0  503 -0.10959428746E+03  0.68628808641E+03 -0.46482966969E+03  0.83610338309E+03  0.00000000000E+00 0.  1.
<mgrwt>
<rscale>  0 0.25209974E+04</rscale>
<asrwt>0</asrwt>
<pdfrwt beam="1">  1        2 0.15229523E+00 0.25209974E+04</pdfrwt>
<pdfrwt beam="2">  1       -1 0.24692883E+00 0.25209974E+04</pdfrwt>
<totfact> 0.18951038E+00</totfact>
</mgrwt>
</event>
<event>
12    6  0.1553355E-007  0.1073666E+04  0.7818608E-02  0.9231246E-01
          2   -1    0    0  501    0  0.00000000000E+00  0.00000000000E+00  0.13882444636E+04  0.13882444636E+04  0.00000000000E+00 0. -1.
         -1   -1    0    0    0  501 -0.00000000000E+00 -0.00000000000E+00 -0.20759278318E+03  0.20759278318E+03  0.00000000000E+00 0.  1.
         24    2    1    2    0    0  0.17202226584E+03  0.57354875266E+02  0.18048080045E+03  0.26814139791E+03  0.80282303670E+02 0.  0.
        254    2    1    2    0    0 -0.17202226584E+03 -0.57354875266E+02  0.10001708800E+04  0.13276958489E+04  0.85413888583E+03 0.  0.
         23    2    4    4    0    0  0.20224966634E+03  0.93546738291E+02 -0.46958585944E+01  0.24099736196E+03  0.91661101911E+02 0.  0.
         23    2    4    4    0    0 -0.37427193218E+03 -0.15090161356E+03  0.10048667386E+04  0.10866984869E+04  0.91135410100E+02 0.  0.
          4    1    3    3  502    0  0.10524661179E+03  0.42835405763E+02  0.16104186958E+03  0.19709440641E+03  0.00000000000E+00 0. -1.
         -3    1    3    3    0  502  0.66775654048E+02  0.14519469503E+02  0.19438930870E+02  0.71046991503E+02  0.00000000000E+00 0.  1.
         11    1    5    5    0    0  0.87254846288E+02 -0.66750035206E+01 -0.11750197352E+02  0.88295135827E+02  0.00000000000E+00 0. -1.
        -11    1    5    5    0    0  0.11499482005E+03  0.10022174181E+03  0.70543387576E+01  0.15270222613E+03  0.00000000000E+00 0.  1.
          1    1    6    6  503    0 -0.10656260800E+03 -0.22254067035E+02  0.37197344239E+03  0.38757589549E+03  0.00000000000E+00 0. -1.
         -1    1    6    6    0  503 -0.26770932418E+03 -0.12864754652E+03  0.63289329619E+03  0.69912259142E+03  0.00000000000E+00 0.  1.
<mgrwt>
<rscale>  0 0.10736657E+04</rscale>
<asrwt>0</asrwt>
<pdfrwt beam="1">  1        2 0.21357607E+00 0.10736657E+04</pdfrwt>
<pdfrwt beam="2">  1       -1 0.31937352E-01 0.10736657E+04</pdfrwt>
<totfact> 0.15200680E+02</totfact>
</mgrwt>
</event>
<event>
12    6  0.2311637E-007  0.2359586E+04  0.7818608E-02  0.8454791E-01
          2   -1    0    0  501    0  0.00000000000E+00  0.00000000000E+00  0.19186343130E+04  0.19186343130E+04  0.00000000000E+00 0. -1.
         -1   -1    0    0    0  501 -0.00000000000E+00 -0.00000000000E+00 -0.72546986680E+03  0.72546986680E+03  0.00000000000E+00 0.  1.
         24    2    1    2    0    0  0.45612696667E+03 -0.59370099877E+03 -0.24133062933E+03  0.79206462511E+03  0.92699579490E+02 0.  0.
        254    2    1    2    0    0 -0.45612696667E+03  0.59370099877E+03  0.14344950756E+04  0.18520395547E+04  0.90096709419E+03 0.  0.
         23    2    4    4    0    0 -0.71072733803E+02  0.48270914839E+03  0.17344055919E+03  0.52579871174E+03  0.91231585928E+02 0.  0.
         23    2    4    4    0    0 -0.38505423287E+03  0.11099185038E+03  0.12610545164E+04  0.13262408430E+04  0.89835000119E+02 0.  0.
          4    1    3    3  502    0  0.13511956260E+03 -0.11929153024E+03 -0.37751761084E+02  0.18415471987E+03  0.00000000000E+00 0. -1.
         -3    1    3    3    0  502  0.32100740407E+03 -0.47440946853E+03 -0.20357886824E+03  0.60790990524E+03  0.00000000000E+00 0.  1.
         11    1    5    5    0    0  0.10791461203E+02  0.10588041418E+02  0.14532007328E+02  0.20970014138E+02  0.00000000000E+00 0. -1.
        -11    1    5    5    0    0 -0.81864195006E+02  0.47212110697E+03  0.15890855186E+03  0.50482869760E+03  0.00000000000E+00 0.  1.
          3    1    6    6  503    0 -0.61875644371E+01  0.77669764598E+01  0.70122504614E+01  0.12156625088E+02  0.00000000000E+00 0. -1.
         -3    1    6    6    0  503 -0.37886666843E+03  0.10322487392E+03  0.12540422659E+04  0.13140842179E+04  0.00000000000E+00 0.  1.
<mgrwt>
<rscale>  0 0.23595859E+04</rscale>
<asrwt>0</asrwt>
<pdfrwt beam="1">  1        2 0.29517451E+00 0.23595859E+04</pdfrwt>
<pdfrwt beam="2">  1       -1 0.11161075E+00 0.23595859E+04</pdfrwt>
<totfact> 0.56134366E+00</totfact>
</mgrwt>
</event>
<event>
12    6  0.1553355E-007  0.1095812E+04  0.7818608E-02  0.9209283E-01
          2   -1    0    0  501    0  0.00000000000E+00  0.00000000000E+00  0.17048372232E+03  0.17048372232E+03  0.00000000000E+00 0. -1.
         -1   -1    0    0    0  501 -0.00000000000E+00 -0.00000000000E+00 -0.17608777539E+04  0.17608777539E+04  0.00000000000E+00 0.  1.
         24    2    1    2    0    0  0.10339823888E+03  0.11056989271E+03 -0.38533328926E+03  0.42167789003E+03  0.80084968354E+02 0.  0.
        254    2    1    2    0    0 -0.10339823888E+03 -0.11056989271E+03 -0.12050607423E+04  0.15096835862E+04  0.89669183153E+03 0.  0.
         23    2    4    4    0    0  0.86013307375E+02  0.36261671465E+03 -0.41411358128E+03  0.56442250564E+03  0.90518152234E+02 0.  0.
         23    2    4    4    0    0 -0.18941154626E+03 -0.47318660736E+03 -0.79094716102E+03  0.94526108053E+03  0.90215295814E+02 0.  0.
          4    1    3    3  502    0  0.81128518606E+02  0.69845520168E+02 -0.16627715142E+03  0.19775824712E+03  0.00000000000E+00 0. -1.
         -3    1    3    3    0  502  0.22269720278E+02  0.40724372545E+02 -0.21905613784E+03  0.22391964292E+03  0.00000000000E+00 0.  1.
         11    1    5    5    0    0  0.33350394480E+02  0.61410868645E+02 -0.37500891652E+02  0.79308640603E+02  0.00000000000E+00 0.  1.
        -11    1    5    5    0    0  0.52662912895E+02  0.30120584600E+03 -0.37661268963E+03  0.48511386503E+03  0.00000000000E+00 0. -1.
          2    1    6    6  503    0 -0.73673641811E+02 -0.23115313173E+03 -0.30030363106E+03  0.38605938226E+03  0.00000000000E+00 0. -1.
         -2    1    6    6    0  503 -0.11573790445E+03 -0.24203347563E+03 -0.49064352997E+03  0.55920169827E+03  0.00000000000E+00 0.  1.
<mgrwt>
<rscale>  0 0.10958120E+04</rscale>
<asrwt>0</asrwt>
<pdfrwt beam="1">  1        2 0.26228267E-01 0.10958120E+04</pdfrwt>
<pdfrwt beam="2">  1       -1 0.27090425E+00 0.10958120E+04</pdfrwt>
<totfact> 0.12140896E+01</totfact>
</mgrwt>
</event>
<event>
12    6  0.1553355E-007  0.1086148E+04  0.7818608E-02  0.9218799E-01
          2   -1    0    0  501    0  0.00000000000E+00  0.00000000000E+00  0.10700173863E+04  0.10700173863E+04  0.00000000000E+00 0. -1.
         -1   -1    0    0    0  501 -0.00000000000E+00 -0.00000000000E+00 -0.27563026140E+03  0.27563026140E+03  0.00000000000E+00 0.  1.
         24    2    1    2    0    0  0.39465709379E+02  0.14253494076E+03  0.52491857055E+02  0.17679778397E+03  0.81414432411E+02 0.  0.
        254    2    1    2    0    0 -0.39465709379E+02 -0.14253494076E+03  0.74189526789E+03  0.11688498638E+04  0.89102618590E+03 0.  0.
         23    2    4    4    0    0 -0.93786018579E+02  0.16520076553E+03 -0.12398027262E+03  0.24409450705E+03  0.90132736350E+02 0.  0.
         23    2    4    4    0    0  0.54320309200E+02 -0.30773570629E+03  0.86587554051E+03  0.92475535673E+03  0.88204632638E+02 0.  0.
          4    1    3    3  502    0  0.21357782627E+02 -0.34936714763E+01  0.55036102576E+01  0.22330480178E+02  0.00000000000E+00 0. -1.
         -3    1    3    3    0  502  0.18107926752E+02  0.14602861224E+03  0.46988246798E+02  0.15446730379E+03  0.00000000000E+00 0.  1.
         11    1    5    5    0    0 -0.10922430455E+03  0.16031672680E+03 -0.11254998223E+03  0.22427416280E+03  0.00000000000E+00 0. -1.
        -11    1    5    5    0    0  0.15438285972E+02  0.48840387241E+01 -0.11430290386E+02  0.19820344254E+02  0.00000000000E+00 0.  1.
          2    1    6    6  503    0  0.58258446174E+02 -0.29916115406E+03  0.76558229045E+03  0.82401922678E+03  0.00000000000E+00 0. -1.
         -2    1    6    6    0  503 -0.39381369745E+01 -0.85745522289E+01  0.10029325006E+03  0.10073612995E+03  0.00000000000E+00 0.  1.
<mgrwt>
<rscale>  0 0.10861476E+04</rscale>
<asrwt>0</asrwt>
<pdfrwt beam="1">  1        2 0.16461806E+00 0.10861476E+04</pdfrwt>
<pdfrwt beam="2">  1       -1 0.42404656E-01 0.10861476E+04</pdfrwt>
<totfact> 0.14083011E+02</totfact>
</mgrwt>
</event>
<event>
12    6  0.1553355E-007  0.1308343E+04  0.7818608E-02  0.9022975E-01
         -1   -1    0    0    0  501 -0.00000000000E+00  0.00000000000E+00  0.86319824623E+03  0.86319824623E+03  0.00000000000E+00 0.  1.
          2   -1    0    0  501    0  0.00000000000E+00 -0.00000000000E+00 -0.49576150338E+03  0.49576150338E+03  0.00000000000E+00 0. -1.
         24    2    1    2    0    0  0.66421307465E+02  0.22423457477E+03 -0.14471005680E+03  0.28644655033E+03  0.80110492763E+02 0.  0.
        254    2    1    2    0    0 -0.66421307465E+02 -0.22423457477E+03  0.51214679965E+03  0.10725131993E+04  0.91285118372E+03 0.  0.
         23    2    4    4    0    0 -0.29351065792E+02  0.34916723199E+03  0.19978812628E+03  0.41231162372E+03  0.85477123822E+02 0.  0.
         23    2    4    4    0    0 -0.37070241673E+02 -0.57340180676E+03  0.31235867336E+03  0.66020157555E+03  0.90190602191E+02 0.  0.
          2    1    3    3  502    0  0.16222547951E+02  0.13318975240E+03 -0.11901351262E+03  0.17935132392E+03  0.00000000000E+00 0. -1.
         -1    1    3    3    0  502  0.50198759515E+02  0.91044822377E+02 -0.25696544180E+02  0.10709522642E+03  0.00000000000E+00 0.  1.
         11    1    5    5    0    0 -0.16930289101E+02  0.31866689003E+03  0.20453623839E+03  0.37903864487E+03  0.00000000000E+00 0. -1.
        -11    1    5    5    0    0 -0.12420776691E+02  0.30500341953E+02 -0.47481121086E+01  0.33272978849E+02  0.00000000000E+00 0.  1.
          4    1    6    6  503    0 -0.66198056747E+02 -0.41514229236E+03  0.21587252067E+03  0.47257406912E+03  0.00000000000E+00 0. -1.
         -4    1    6    6    0  503  0.29127815074E+02 -0.15825951440E+03  0.96486152692E+02  0.18762750643E+03  0.00000000000E+00 0.  1.
<mgrwt>
<rscale>  0 0.13083432E+04</rscale>
<asrwt>0</asrwt>
<pdfrwt beam="1">  1        2 0.76271001E-01 0.13083432E+04</pdfrwt>
<pdfrwt beam="2">  1       -1 0.13279973E+00 0.13083432E+04</pdfrwt>
<totfact> 0.33480473E+01</totfact>
</mgrwt>
</event>
<event>
12    6  0.1553355E-007  0.1374621E+04  0.7818608E-02  0.8972397E-01
         -1   -1    0    0    0  501 -0.00000000000E+00  0.00000000000E+00  0.42410576545E+03  0.42410576545E+03  0.00000000000E+00 0.  1.
          2   -1    0    0  501    0  0.00000000000E+00 -0.00000000000E+00 -0.11138629522E+04  0.11138629522E+04  0.00000000000E+00 0. -1.
         24    2    1    2    0    0  0.29266015462E+03 -0.19107962231E+03 -0.38438340397E+03  0.52612983454E+03  0.83069930669E+02 0.  0.
        254    2    1    2    0    0 -0.29266015462E+03  0.19107962231E+03 -0.30537378280E+03  0.10118388831E+04  0.89911255692E+03 0.  0.
         23    2    4    4    0    0  0.26600264595E+03  0.20857622696E+03  0.33398660203E+02  0.35188114111E+03  0.91888067002E+02 0.  0.
         23    2    4    4    0    0 -0.55866280057E+03 -0.17496604652E+02 -0.33877244301E+03  0.65995774202E+03  0.91472384869E+02 0.  0.
          4    1    3    3  502    0  0.11080022380E+03 -0.10966234229E+03 -0.20863025609E+03  0.26044020939E+03  0.00000000000E+00 0. -1.
         -3    1    3    3    0  502  0.18185993082E+03 -0.81417280021E+02 -0.17575314788E+03  0.26568962515E+03  0.00000000000E+00 0.  1.
         11    1    5    5    0    0  0.15958015036E+03  0.78552479304E+02 -0.10634322935E+02  0.17818362781E+03  0.00000000000E+00 0. -1.
        -11    1    5    5    0    0  0.10642249559E+03  0.13002374766E+03  0.44032983138E+02  0.17369751330E+03  0.00000000000E+00 0.  1.
          2    1    6    6  503    0 -0.37219852074E+03  0.18967699543E+02 -0.18804884954E+03  0.41743727946E+03  0.00000000000E+00 0. -1.
         -2    1    6    6    0  503 -0.18646427982E+03 -0.36464304195E+02 -0.15072359347E+03  0.24252046256E+03  0.00000000000E+00 0.  1.
<mgrwt>
<rscale>  0 0.13746210E+04</rscale>
<asrwt>0</asrwt>
<pdfrwt beam="1">  1        2 0.17136353E+00 0.13746210E+04</pdfrwt>
<pdfrwt beam="2">  1       -1 0.65247042E-01 0.13746210E+04</pdfrwt>
<totfact> 0.56572927E+01</totfact>
</mgrwt>
</event>
<event>
12    6  0.1553355E-007  0.1394604E+04  0.7818608E-02  0.8957734E-01
          2   -1    0    0  501    0  0.00000000000E+00  0.00000000000E+00  0.96220373962E+03  0.96220373962E+03  0.00000000000E+00 0. -1.
         -3   -1    0    0    0  501 -0.00000000000E+00 -0.00000000000E+00 -0.50532980220E+03  0.50532980220E+03  0.00000000000E+00 0.  1.
         24    2    1    2    0    0  0.12180978466E+03  0.10143357776E+03  0.52463070567E+03  0.55393401398E+03  0.80492982174E+02 0.  0.
        254    2    1    2    0    0 -0.12180978466E+03 -0.10143357776E+03 -0.67756768249E+02  0.91359952784E+03  0.89718823180E+03 0.  0.
         23    2    4    4    0    0  0.31234464175E+03  0.14863863393E+03  0.10976545453E+03  0.37432552147E+03  0.91752505626E+02 0.  0.
         23    2    4    4    0    0 -0.43415442641E+03 -0.25007221169E+03 -0.17752222278E+03  0.53927400637E+03  0.90973278127E+02 0.  0.
          2    1    3    3  502    0  0.76454583025E+01  0.33366266129E+02  0.20388930923E+03  0.20674286243E+03  0.00000000000E+00 0. -1.
         -1    1    3    3    0  502  0.11416432636E+03  0.68067311628E+02  0.32074139644E+03  0.34719115155E+03  0.00000000000E+00 0.  1.
         11    1    5    5    0    0  0.61516138682E+02  0.49503574462E+02  0.62059923154E+02  0.10043043993E+03  0.00000000000E+00 0. -1.
        -11    1    5    5    0    0  0.25082850307E+03  0.99135059471E+02  0.47705531375E+02  0.27389508154E+03  0.00000000000E+00 0.  1.
          3    1    6    6  503    0 -0.72556566325E+02 -0.80734624577E+02 -0.54538549014E+02  0.12147834478E+03  0.00000000000E+00 0. -1.
         -3    1    6    6    0  503 -0.36159786008E+03 -0.16933758711E+03 -0.12298367376E+03  0.41779566158E+03  0.00000000000E+00 0.  1.
<mgrwt>
<rscale>  0 0.13946042E+04</rscale>
<asrwt>0</asrwt>
<pdfrwt beam="1">  1        2 0.14803134E+00 0.13946042E+04</pdfrwt>
<pdfrwt beam="2">  1       -3 0.77743047E-01 0.13946042E+04</pdfrwt>
<totfact> 0.25539958E+01</totfact>
</mgrwt>
</event>
<event>
12    6  0.1553355E-007  0.1215081E+04  0.7818608E-02  0.9099757E-01
          2   -1    0    0  501    0  0.00000000000E+00  0.00000000000E+00  0.26517079654E+04  0.26517079654E+04  0.00000000000E+00 0. -1.
         -1   -1    0    0    0  501 -0.00000000000E+00 -0.00000000000E+00 -0.13919546145E+03  0.13919546145E+03  0.00000000000E+00 0.  1.
         24    2    1    2    0    0  0.25521168825E+03  0.76136716059E+01  0.80554689641E+03  0.84886614505E+03  0.80479538241E+02 0.  0.
        254    2    1    2    0    0 -0.25521168825E+03 -0.76136716059E+01  0.17069656076E+04  0.19420372818E+04  0.89027312931E+03 0.  0.
         23    2    4    4    0    0 -0.49882265127E+03  0.22128457814E+03  0.12644500662E+04  0.13801461941E+04  0.90435862941E+02 0.  0.
         23    2    4    4    0    0  0.24361096302E+03 -0.22889824974E+03  0.44251554138E+03  0.56189108771E+03  0.90337589340E+02 0.  0.
          4    1    3    3  502    0  0.11865568494E+03  0.39786865722E+02  0.32516987880E+03  0.34842160715E+03  0.00000000000E+00 0. -1.
         -3    1    3    3    0  502  0.13655600332E+03 -0.32173194116E+02  0.48037701761E+03  0.50044453789E+03  0.00000000000E+00 0.  1.
         11    1    5    5    0    0 -0.42420089374E+03  0.15035060379E+03  0.10171519503E+04  0.11122723553E+04  0.00000000000E+00 0. -1.
        -11    1    5    5    0    0 -0.74621757536E+02  0.70933974344E+02  0.24729811591E+03  0.26787383887E+03  0.00000000000E+00 0.  1.
          1    1    6    6  503    0  0.15766367893E+03 -0.95359135921E+02  0.19935103705E+03  0.27146277172E+03  0.00000000000E+00 0. -1.
         -1    1    6    6    0  503  0.85947284087E+02 -0.13353911382E+03  0.24316450432E+03  0.29042831598E+03  0.00000000000E+00 0.  1.
<mgrwt>
<rscale>  0 0.12150814E+04</rscale>
<asrwt>0</asrwt>
<pdfrwt beam="1">  1        2 0.40795503E+00 0.12150814E+04</pdfrwt>
<pdfrwt beam="2">  1       -1 0.21414688E-01 0.12150814E+04</pdfrwt>
<totfact> 0.58552549E+01</totfact>
</mgrwt>
</event>
<event>
12    6  0.1553355E-007  0.1725012E+04  0.7818608E-02  0.8747227E-01
          2   -1    0    0  501    0  0.00000000000E+00  0.00000000000E+00  0.20454430027E+04  0.20454430027E+04  0.00000000000E+00 0. -1.
         -1   -1    0    0    0  501 -0.00000000000E+00 -0.00000000000E+00 -0.36369441934E+03  0.36369441934E+03  0.00000000000E+00 0.  1.
         24    2    1    2    0    0  0.18057238207E+03 -0.62117152389E+03  0.57147172358E+03  0.86678674413E+03  0.79239394827E+02 0.  0.
        254    2    1    2    0    0 -0.18057238207E+03  0.62117152389E+03  0.11102768598E+04  0.15423506779E+04  0.85303602562E+03 0.  0.
         23    2    4    4    0    0  0.55790929002E+02 -0.18114658564E+03  0.12055581540E+03  0.24324388806E+03  0.93312224301E+02 0.  0.
         23    2    4    4    0    0 -0.23636331107E+03  0.80231810953E+03  0.98972104437E+03  0.12991067898E+04  0.92459407451E+02 0.  0.
          4    1    3    3  502    0  0.16158181559E+02 -0.10752652398E+02  0.20172896180E+02  0.27993786903E+02  0.00000000000E+00 0. -1.
         -3    1    3    3    0  502  0.16441420051E+03 -0.61041887149E+03  0.55129882740E+03  0.83879295723E+03  0.00000000000E+00 0.  1.
         11    1    5    5    0    0  0.79303868614E+02 -0.15786180514E+03  0.90284859413E+02  0.19839558699E+03  0.00000000000E+00 0. -1.
        -11    1    5    5    0    0 -0.23512939612E+02 -0.23284780499E+02  0.30270955989E+02  0.44848301067E+02  0.00000000000E+00 0.  1.
          3    1    6    6  503    0 -0.23656892780E+03  0.79849437885E+03  0.99153096841E+03  0.12948713419E+04  0.00000000000E+00 0. -1.
         -3    1    6    6    0  503  0.20561672563E+00  0.38237306803E+01 -0.18099240368E+01  0.42354479777E+01  0.00000000000E+00 0.  1.
<mgrwt>
<rscale>  0 0.17250115E+04</rscale>
<asrwt>0</asrwt>
<pdfrwt beam="1">  1        2 0.31468353E+00 0.17250115E+04</pdfrwt>
<pdfrwt beam="2">  1       -1 0.55952989E-01 0.17250115E+04</pdfrwt>
<totfact> 0.22030689E+01</totfact>
</mgrwt>
</event>
<event>
12    6  0.1553355E-007  0.1505665E+04  0.7818608E-02  0.8880694E-01
         -1   -1    0    0    0  501 -0.00000000000E+00  0.00000000000E+00  0.11775899055E+04  0.11775899055E+04  0.00000000000E+00 0.  1.
          2   -1    0    0  501    0  0.00000000000E+00 -0.00000000000E+00 -0.48128554108E+03  0.48128554108E+03  0.00000000000E+00 0. -1.
         24    2    1    2    0    0 -0.41078295225E+02 -0.16410488044E+03  0.71597269753E+03  0.73985366963E+03  0.78413715256E+02 0.  0.
        254    2    1    2    0    0  0.41078295225E+02  0.16410488044E+03 -0.19668333129E+02  0.91902177692E+03  0.90310372882E+03 0.  0.
         23    2    4    4    0    0 -0.26052692645E+03  0.42201343207E+03 -0.69789902880E+02  0.50910333256E+03  0.91356206282E+02 0.  0.
         23    2    4    4    0    0  0.30160522167E+03 -0.25790855163E+03  0.50121569751E+02  0.40991844437E+03  0.89657283789E+02 0.  0.
          4    1    3    3  502    0 -0.39548078194E+02 -0.24737477557E+02  0.20226786562E+03  0.20757717299E+03  0.00000000000E+00 0. -1.
         -3    1    3    3    0  502 -0.15302170303E+01 -0.13936740288E+03  0.51370483191E+03  0.53227649664E+03  0.00000000000E+00 0.  1.
         11    1    5    5    0    0 -0.24422948103E+03  0.33006906075E+03 -0.49805511685E+02  0.41361118609E+03  0.00000000000E+00 0. -1.
        -11    1    5    5    0    0 -0.16297445415E+02  0.91944371319E+02 -0.19984391195E+02  0.95492146461E+02  0.00000000000E+00 0.  1.
          3    1    6    6  503    0  0.29680419754E+03 -0.23474534389E+03  0.61979286043E+02  0.38345735102E+03  0.00000000000E+00 0. -1.
         -3    1    6    6    0  503  0.48010241325E+01 -0.23163207734E+02 -0.11857716292E+02  0.26461093343E+02  0.00000000000E+00 0.  1.
<mgrwt>
<rscale>  0 0.15056653E+04</rscale>
<asrwt>0</asrwt>
<pdfrwt beam="1">  1        2 0.74043930E-01 0.15056653E+04</pdfrwt>
<pdfrwt beam="2">  1       -1 0.18116768E+00 0.15056653E+04</pdfrwt>
<totfact> 0.14507773E+01</totfact>
</mgrwt>
</event>
<event>
12    6  0.1553355E-007  0.1892167E+04  0.7818608E-02  0.8658765E-01
         -1   -1    0    0    0  501 -0.00000000000E+00  0.00000000000E+00  0.13407566995E+04  0.13407566995E+04  0.00000000000E+00 0.  1.
          2   -1    0    0  501    0  0.00000000000E+00 -0.00000000000E+00 -0.66758833514E+03  0.66758833514E+03  0.00000000000E+00 0. -1.
         24    2    1    2    0    0 -0.44864655477E+03 -0.11666817517E+03 -0.33656449164E+03  0.57825368764E+03  0.78781190843E+02 0.  0.
        254    2    1    2    0    0  0.44864655477E+03  0.11666817517E+03  0.10097328560E+04  0.14300913471E+04  0.90039192918E+03 0.  0.
         23    2    4    4    0    0  0.39817651112E+02  0.44241837368E+03  0.30125657134E+03  0.54437015649E+03  0.90905900739E+02 0.  0.
         23    2    4    4    0    0  0.40882890366E+03 -0.32575019852E+03  0.70847628470E+03  0.88572119056E+03  0.96483766101E+02 0.  0.
          4    1    3    3  502    0 -0.38920567950E+03 -0.72289693096E+02 -0.27765576403E+03  0.48352826596E+03  0.00000000000E+00 0. -1.
         -3    1    3    3    0  502 -0.59440875275E+02 -0.44378482070E+02 -0.58908727609E+02  0.94725421682E+02  0.00000000000E+00 0.  1.
         11    1    5    5    0    0  0.57308585319E+02  0.42030586246E+03  0.29079191312E+03  0.51429682938E+03  0.00000000000E+00 0.  1.
        -11    1    5    5    0    0 -0.17490934207E+02  0.22112511221E+02  0.10464658216E+02  0.30073327111E+02  0.00000000000E+00 0. -1.
          3    1    6    6  503    0  0.20787857295E+02 -0.31501960779E+02  0.20866068727E+02  0.43126573802E+02  0.00000000000E+00 0. -1.
         -3    1    6    6    0  503  0.38804104636E+03 -0.29424823774E+03  0.68761021598E+03  0.84259461676E+03  0.00000000000E+00 0.  1.
<mgrwt>
<rscale>  0 0.18921665E+04</rscale>
<asrwt>0</asrwt>
<pdfrwt beam="1">  1        2 0.10270590E+00 0.18921665E+04</pdfrwt>
<pdfrwt beam="2">  1       -1 0.20627026E+00 0.18921665E+04</pdfrwt>
<totfact> 0.63425760E+00</totfact>
</mgrwt>
</event>
<event>
12    6  0.1553355E-007  0.2149520E+04  0.7818608E-02  0.8539738E-01
         -1   -1    0    0    0  501 -0.00000000000E+00  0.00000000000E+00  0.17539947484E+04  0.17539947484E+04  0.00000000000E+00 0.  1.
          2   -1    0    0  501    0  0.00000000000E+00 -0.00000000000E+00 -0.65855914734E+03  0.65855914734E+03  0.00000000000E+00 0. -1.
         24    2    1    2    0    0  0.21371417924E+03  0.70994771766E+03  0.97497934467E+03  0.12274734303E+04  0.80042409999E+02 0.  0.
        254    2    1    2    0    0 -0.21371417924E+03 -0.70994771766E+03  0.12045625639E+03  0.11850804654E+04  0.91662778027E+03 0.  0.
         23    2    4    4    0    0 -0.21991524318E+03 -0.88934473083E+03 -0.44112457496E+02  0.92187450521E+03  0.92789708499E+02 0.  0.
         23    2    4    4    0    0  0.62010639382E+01  0.17939701317E+03  0.16456871388E+03  0.26320596020E+03  0.99863779054E+02 0.  0.
          2    1    3    3  502    0  0.75329714637E+02  0.21719388893E+03  0.24525034217E+03  0.33614800554E+03  0.00000000000E+00 0. -1.
         -1    1    3    3    0  502  0.13838446460E+03  0.49275382873E+03  0.72972900250E+03  0.89132542478E+03  0.00000000000E+00 0.  1.
         11    1    5    5    0    0 -0.21134249498E+03 -0.69837028102E+03 -0.33940400785E+02  0.73043730080E+03  0.00000000000E+00 0. -1.
        -11    1    5    5    0    0 -0.85727481943E+01 -0.19097444981E+03 -0.10172056710E+02  0.19143720440E+03  0.00000000000E+00 0.  1.
          4    1    6    6  503    0  0.45900097253E+02  0.49130565081E+02  0.37694348832E+02  0.77081095522E+02  0.00000000000E+00 0. -1.
         -4    1    6    6    0  503 -0.39699033315E+02  0.13026644809E+03  0.12687436505E+03  0.18612486467E+03  0.00000000000E+00 0.  1.
<mgrwt>
<rscale>  0 0.21495202E+04</rscale>
<asrwt>0</asrwt>
<pdfrwt beam="1">  1        2 0.10131679E+00 0.21495202E+04</pdfrwt>
<pdfrwt beam="2">  1       -1 0.26984534E+00 0.21495202E+04</pdfrwt>
<totfact> 0.24004823E+00</totfact>
</mgrwt>
</event>
<event>
12    6  0.1553355E-007  0.2615767E+04  0.7818608E-02  0.8362865E-01
          2   -1    0    0  501    0  0.00000000000E+00  0.00000000000E+00  0.28880629613E+04  0.28880629613E+04  0.00000000000E+00 0. -1.
         -1   -1    0    0    0  501 -0.00000000000E+00 -0.00000000000E+00 -0.59228601950E+03  0.59228601950E+03  0.00000000000E+00 0.  1.
         24    2    1    2    0    0 -0.84941561870E+03  0.52890279136E+03  0.18629630029E+04  0.21161720539E+04  0.79422637416E+02 0.  0.
        254    2    1    2    0    0  0.84941561870E+03 -0.52890279136E+03  0.43281393888E+03  0.13641769269E+04  0.82000349160E+03 0.  0.
         23    2    4    4    0    0  0.40175607116E+03 -0.61963728874E+03  0.24174682776E+02  0.74506575212E+03  0.95813617987E+02 0.  0.
         23    2    4    4    0    0  0.44765954755E+03  0.90734497377E+02  0.40863925610E+03  0.61911117479E+03  0.87640091313E+02 0.  0.
          4    1    3    3  502    0 -0.78013317797E+03  0.50967890205E+03  0.17297474891E+04  0.19647917790E+04  0.00000000000E+00 0. -1.
         -3    1    3    3    0  502 -0.69282440737E+02  0.19223889305E+02  0.13321551381E+03  0.15138027492E+03  0.00000000000E+00 0.  1.
         11    1    5    5    0    0  0.97298570023E+02 -0.16807756776E+03  0.47580898963E+02  0.19995255052E+03  0.00000000000E+00 0.  1.
        -11    1    5    5    0    0  0.30445750114E+03 -0.45155972098E+03 -0.23406216187E+02  0.54511320161E+03  0.00000000000E+00 0. -1.
          3    1    6    6  503    0  0.28341372460E+03  0.69118519929E+02  0.31281597989E+03  0.42773186270E+03  0.00000000000E+00 0. -1.
         -3    1    6    6    0  503  0.16424582294E+03  0.21615977449E+02  0.95823276206E+02  0.19137931210E+03  0.00000000000E+00 0.  1.
<mgrwt>
<rscale>  0 0.26157671E+04</rscale>
<asrwt>0</asrwt>
<pdfrwt beam="1">  1        2 0.44431737E+00 0.26157671E+04</pdfrwt>
<pdfrwt beam="2">  1       -1 0.91120928E-01 0.26157671E+04</pdfrwt>
<totfact> 0.24116566E+00</totfact>
</mgrwt>
</event>
<event>
12    6  0.1553355E-007  0.2237866E+04  0.7818608E-02  0.8502831E-01
         -1   -1    0    0    0  501 -0.00000000000E+00  0.00000000000E+00  0.59284461985E+03  0.59284461985E+03  0.00000000000E+00 0.  1.
          2   -1    0    0  501    0  0.00000000000E+00 -0.00000000000E+00 -0.21118698587E+04  0.21118698587E+04  0.00000000000E+00 0. -1.
         24    2    1    2    0    0  0.89311347449E+02  0.62996538346E+03 -0.14691211736E+04  0.16041407577E+04  0.10058651271E+03 0.  0.
        254    2    1    2    0    0 -0.89311347449E+02 -0.62996538346E+03 -0.49904065221E+02  0.11005737209E+04  0.89662656562E+03 0.  0.
         23    2    4    4    0    0 -0.44187727837E+03 -0.46828011635E+03  0.12909969992E+03  0.66281632786E+03  0.90094147759E+02 0.  0.
         23    2    4    4    0    0  0.35256593092E+03 -0.16168526712E+03 -0.17900376514E+03  0.43775739300E+03  0.95625968984E+02 0.  0.
          2    1    3    3  502    0  0.53860288385E+02  0.38175295709E+03 -0.10088623038E+04  0.10800182401E+04  0.00000000000E+00 0. -1.
         -1    1    3    3    0  502  0.35451059065E+02  0.24821242637E+03 -0.46025886983E+03  0.52412251760E+03  0.00000000000E+00 0.  1.
         11    1    5    5    0    0  0.27210952891E+01 -0.14102996693E+02  0.52690004490E+01  0.15299060136E+02  0.00000000000E+00 0. -1.
        -11    1    5    5    0    0 -0.44459837366E+03 -0.45417711965E+03  0.12383069947E+03  0.64751726773E+03  0.00000000000E+00 0.  1.
          1    1    6    6  503    0  0.48176302021E+02  0.77579090609E+01 -0.38341637308E+02  0.62058217674E+02  0.00000000000E+00 0. -1.
         -1    1    6    6    0  503  0.30438962890E+03 -0.16944317618E+03 -0.14066212783E+03  0.37569917532E+03  0.00000000000E+00 0.  1.
<mgrwt>
<rscale>  0 0.22378657E+04</rscale>
<asrwt>0</asrwt>
<pdfrwt beam="1">  1        2 0.32490305E+00 0.22378657E+04</pdfrwt>
<pdfrwt beam="2">  1       -1 0.91206865E-01 0.22378657E+04</pdfrwt>
<totfact> 0.70374233E+00</totfact>
</mgrwt>
</event>
<event>
12    6  0.1553355E-007  0.2673904E+04  0.7818608E-02  0.8343522E-01
          2   -1    0    0  501    0  0.00000000000E+00  0.00000000000E+00  0.77826158435E+03  0.77826158435E+03  0.00000000000E+00 0. -1.
         -1   -1    0    0    0  501 -0.00000000000E+00 -0.00000000000E+00 -0.22967100080E+04  0.22967100080E+04  0.00000000000E+00 0.  1.
         24    2    1    2    0    0  0.41505061546E+03 -0.96302548839E+03 -0.12912414332E+04  0.16653320971E+04  0.79633222379E+02 0.  0.
        254    2    1    2    0    0 -0.41505061546E+03  0.96302548839E+03 -0.22720699043E+03  0.14096394953E+04  0.91420751769E+03 0.  0.
         23    2    4    4    0    0 -0.81221583740E+02  0.58156111391E+03  0.30630044357E+03  0.66818131581E+03  0.88521377033E+02 0.  0.
         23    2    4    4    0    0 -0.33382903172E+03  0.38146437448E+03 -0.53350743400E+03  0.74145817944E+03  0.90405521467E+02 0.  0.
          4    1    3    3  502    0  0.11251468607E+03 -0.35117337310E+03 -0.43230495410E+03  0.56821639003E+03  0.00000000000E+00 0. -1.
         -3    1    3    3    0  502  0.30253592939E+03 -0.61185211528E+03 -0.85893647914E+03  0.10971157071E+04  0.00000000000E+00 0.  1.
         11    1    5    5    0    0 -0.94880682107E+02  0.56103731912E+03  0.29680890832E+03  0.64176377690E+03  0.00000000000E+00 0.  1.
        -11    1    5    5    0    0  0.13659098367E+02  0.20523794786E+02  0.94915352495E+01  0.26417538909E+02  0.00000000000E+00 0. -1.
          1    1    6    6  503    0 -0.56945974618E+02  0.28839285464E+02 -0.43229948784E+02  0.77093299859E+02  0.00000000000E+00 0. -1.
         -1    1    6    6    0  503 -0.27688305710E+03  0.35262508901E+03 -0.49027748521E+03  0.66436487958E+03  0.00000000000E+00 0.  1.
<mgrwt>
<rscale>  0 0.26739044E+04</rscale>
<asrwt>0</asrwt>
<pdfrwt beam="1">  1        2 0.11973255E+00 0.26739044E+04</pdfrwt>
<pdfrwt beam="2">  1       -1 0.35334000E+00 0.26739044E+04</pdfrwt>
<totfact> 0.52885996E-01</totfact>
</mgrwt>
</event>
<event>
12    6  0.1553355E-007  0.1308505E+04  0.7818608E-02  0.9022847E-01
         -1   -1    0    0    0  501 -0.00000000000E+00  0.00000000000E+00  0.12309683460E+04  0.12309683460E+04  0.00000000000E+00 0.  1.
          2   -1    0    0  501    0  0.00000000000E+00 -0.00000000000E+00 -0.34773160624E+03  0.34773160624E+03  0.00000000000E+00 0. -1.
         24    2    1    2    0    0 -0.11329024963E+03 -0.19692165637E+03  0.53714870767E+03  0.58871220827E+03  0.80252791847E+02 0.  0.
        254    2    1    2    0    0  0.11329024963E+03  0.19692165637E+03  0.34608803204E+03  0.98998774393E+03  0.89926969692E+03 0.  0.
         23    2    4    4    0    0 -0.93292572098E+02  0.14804238990E+03 -0.26879130337E+03  0.33261512409E+03  0.88113578924E+02 0.  0.
         23    2    4    4    0    0  0.20658282172E+03  0.48879266465E+02  0.61487933541E+03  0.65737261984E+03  0.94849983018E+02 0.  0.
          4    1    3    3  502    0 -0.13101243079E+01 -0.76279511181E+02  0.17568011280E+03  0.19153010804E+03  0.00000000000E+00 0. -1.
         -3    1    3    3    0  502 -0.11198012532E+03 -0.12064214519E+03  0.36146859487E+03  0.39718210022E+03  0.00000000000E+00 0.  1.
         11    1    5    5    0    0 -0.62011338984E+02  0.96813349592E+02 -0.96282425069E+02  0.14996178246E+03  0.00000000000E+00 0. -1.
        -11    1    5    5    0    0 -0.31281233114E+02  0.51229040309E+02 -0.17250887830E+03  0.18265334163E+03  0.00000000000E+00 0.  1.
          3    1    6    6  503    0  0.89899931705E+02 -0.25539786618E+02  0.22389683413E+03  0.24261918876E+03  0.00000000000E+00 0. -1.
         -3    1    6    6    0  503  0.11668289002E+03  0.74419053083E+02  0.39098250128E+03  0.41475343108E+03  0.00000000000E+00 0.  1.
<mgrwt>
<rscale>  0 0.13085054E+04</rscale>
<asrwt>0</asrwt>
<pdfrwt beam="1">  1        2 0.53497171E-01 0.13085054E+04</pdfrwt>
<pdfrwt beam="2">  1       -1 0.18937974E+00 0.13085054E+04</pdfrwt>
<totfact> 0.18633576E+01</totfact>
</mgrwt>
</event>
<event>
12    6  0.1553355E-007  0.1443076E+04  0.7818608E-02  0.8923215E-01
         -1   -1    0    0    0  501 -0.00000000000E+00  0.00000000000E+00  0.12422220805E+04  0.12422220805E+04  0.00000000000E+00 0.  1.
          4   -1    0    0  501    0  0.00000000000E+00 -0.00000000000E+00 -0.41910129279E+03  0.41910129279E+03  0.00000000000E+00 0. -1.
         24    2    1    2    0    0 -0.11053558116E+02 -0.32716613812E+03 -0.71767768995E+02  0.34431413529E+03  0.79004734156E+02 0.  0.
        254    2    1    2    0    0  0.11053558116E+02  0.32716613812E+03  0.89488855675E+03  0.13170092380E+04  0.90913582098E+03 0.  0.
         23    2    4    4    0    0  0.25754288907E+03  0.10882325491E+03 -0.61971178331E+02  0.30077633161E+03  0.91951803643E+02 0.  0.
         23    2    4    4    0    0 -0.24648933095E+03  0.21834288321E+03  0.95685973508E+03  0.10162329064E+04  0.93371101374E+02 0.  0.
          2    1    3    3  502    0 -0.16349298418E+02 -0.26676449691E+03 -0.88288865931E+02  0.28147028301E+03  0.00000000000E+00 0. -1.
         -1    1    3    3    0  502  0.52957403025E+01 -0.60401641206E+02  0.16521096936E+02  0.62843852283E+02  0.00000000000E+00 0.  1.
         11    1    5    5    0    0  0.18841158601E+03  0.44886982445E+02 -0.11712039118E+02  0.19403849823E+03  0.00000000000E+00 0. -1.
        -11    1    5    5    0    0  0.69131303054E+02  0.63936272464E+02 -0.50259139213E+02  0.10673783337E+03  0.00000000000E+00 0.  1.
          1    1    6    6  503    0 -0.20872807696E+03  0.15914174302E+03  0.83839132823E+03  0.87851779933E+03  0.00000000000E+00 0. -1.
         -1    1    6    6    0  503 -0.37761253988E+02  0.59201140188E+02  0.11846840685E+03  0.13771510710E+03  0.00000000000E+00 0.  1.
<mgrwt>
<rscale>  0 0.14430757E+04</rscale>
<asrwt>0</asrwt>
<pdfrwt beam="1">  1        4 0.64477122E-01 0.14430757E+04</pdfrwt>
<pdfrwt beam="2">  1       -1 0.19111109E+00 0.14430757E+04</pdfrwt>
<totfact> 0.15829684E+00</totfact>
</mgrwt>
</event>
<event>
12    6  0.1553355E-007  0.1101645E+04  0.7818608E-02  0.9203590E-01
         -1   -1    0    0    0  501 -0.00000000000E+00  0.00000000000E+00  0.20052997402E+03  0.20052997402E+03  0.00000000000E+00 0.  1.
          2   -1    0    0  501    0  0.00000000000E+00 -0.00000000000E+00 -0.15130165610E+04  0.15130165610E+04  0.00000000000E+00 0. -1.
         24    2    1    2    0    0  0.15765853705E+03  0.56022715668E+02 -0.21218064620E+03  0.28326112268E+03  0.84979279996E+02 0.  0.
        254    2    1    2    0    0 -0.15765853705E+03 -0.56022715668E+02 -0.11003059407E+04  0.14302854123E+04  0.89835874705E+03 0.  0.
         23    2    4    4    0    0  0.28147268160E+03 -0.15018224248E+03 -0.84034122458E+03  0.90321746420E+03  0.88582376660E+02 0.  0.
         23    2    4    4    0    0 -0.43913121865E+03  0.94159526812E+02 -0.25996471616E+03  0.52706794809E+03  0.92286101725E+02 0.  0.
          2    1    3    3  502    0  0.24496186154E+02 -0.11133677224E+02 -0.78485589172E+02  0.82969931977E+02  0.00000000000E+00 0. -1.
         -1    1    3    3    0  502  0.13316235089E+03  0.67156392892E+02 -0.13369505703E+03  0.20029119071E+03  0.00000000000E+00 0.  1.
         11    1    5    5    0    0  0.17025318800E+03 -0.13809452217E+03 -0.55305872738E+03  0.59492033165E+03  0.00000000000E+00 0. -1.
        -11    1    5    5    0    0  0.11121949361E+03 -0.12087720313E+02 -0.28728249720E+03  0.30829713255E+03  0.00000000000E+00 0.  1.
          3    1    6    6  503    0 -0.31128135812E+03  0.10477565602E+03 -0.16572395962E+03  0.36788374903E+03  0.00000000000E+00 0. -1.
         -3    1    6    6    0  503 -0.12784986053E+03 -0.10616129209E+02 -0.94240756540E+02  0.15918419906E+03  0.00000000000E+00 0.  1.
<mgrwt>
<rscale>  0 0.11016445E+04</rscale>
<asrwt>0</asrwt>
<pdfrwt beam="1">  1        2 0.23277178E+00 0.11016445E+04</pdfrwt>
<pdfrwt beam="2">  1       -1 0.30850766E-01 0.11016445E+04</pdfrwt>
<totfact> 0.13703645E+02</totfact>
</mgrwt>
</event>
<event>
12    6  0.1553355E-007  0.1370171E+04  0.7818608E-02  0.8975698E-01
         -1   -1    0    0    0  501 -0.00000000000E+00  0.00000000000E+00  0.54243010497E+03  0.54243010497E+03  0.00000000000E+00 0.  1.
          2   -1    0    0  501    0  0.00000000000E+00 -0.00000000000E+00 -0.86525880413E+03  0.86525880413E+03  0.00000000000E+00 0. -1.
         24    2    1    2    0    0  0.10777701447E+03  0.25059284646E+03 -0.36210394874E+03  0.45979671957E+03  0.76688291716E+02 0.  0.
        254    2    1    2    0    0 -0.10777701447E+03 -0.25059284646E+03  0.39275249578E+02  0.94789218953E+03  0.90694233455E+03 0.  0.
         23    2    4    4    0    0 -0.35975511964E+03  0.18470583742E+03 -0.82673217380E+02  0.42240141983E+03  0.89711237391E+02 0.  0.
         23    2    4    4    0    0  0.25197810517E+03 -0.43529868388E+03  0.12194846696E+03  0.52549076970E+03  0.91056085859E+02 0.  0.
          2    1    3    3  502    0  0.63540709129E+02  0.13625753885E+03 -0.13664996628E+03  0.20316680806E+03  0.00000000000E+00 0. -1.
         -1    1    3    3    0  502  0.44236305344E+02  0.11433530761E+03 -0.22545398246E+03  0.25662991151E+03  0.00000000000E+00 0.  1.
         11    1    5    5    0    0 -0.79696912104E+02  0.33707264285E+02 -0.56091301267E+02  0.10312134378E+03  0.00000000000E+00 0. -1.
        -11    1    5    5    0    0 -0.28005820754E+03  0.15099857314E+03 -0.26581916112E+02  0.31928007605E+03  0.00000000000E+00 0.  1.
          3    1    6    6  503    0  0.70550671006E+02 -0.12473851048E+03  0.77956618246E+02  0.16313898217E+03  0.00000000000E+00 0. -1.
         -3    1    6    6    0  503  0.18142743416E+03 -0.31056017340E+03  0.43991848712E+02  0.36235178753E+03  0.00000000000E+00 0.  1.
<mgrwt>
<rscale>  0 0.13701714E+04</rscale>
<asrwt>0</asrwt>
<pdfrwt beam="1">  1        2 0.13311674E+00 0.13701714E+04</pdfrwt>
<pdfrwt beam="2">  1       -1 0.83450787E-01 0.13701714E+04</pdfrwt>
<totfact> 0.49146375E+01</totfact>
</mgrwt>
</event>
<event>
12    6  0.1553355E-007  0.6457879E+04  0.7818608E-02  0.7636085E-01
          2   -1    0    0  501    0  0.00000000000E+00  0.00000000000E+00  0.34391019647E+04  0.34391019647E+04  0.00000000000E+00 0. -1.
         -1   -1    0    0    0  501 -0.00000000000E+00 -0.00000000000E+00 -0.30316196584E+04  0.30316196584E+04  0.00000000000E+00 0.  1.
         24    2    1    2    0    0  0.19425417983E+04  0.14371958694E+04  0.22477510548E+04  0.33015994330E+04  0.95777901972E+02 0.  0.
        254    2    1    2    0    0 -0.19425417983E+04 -0.14371958694E+04 -0.18402687486E+04  0.31691221901E+04  0.90429297433E+03 0.  0.
         23    2    4    4    0    0 -0.13833669207E+04 -0.10449351283E+04 -0.77651340300E+03  0.19017256603E+04  0.89408961792E+02 0.  0.
         23    2    4    4    0    0 -0.55917487765E+03 -0.39226074104E+03 -0.10637553456E+04  0.12673965298E+04  0.90407386794E+02 0.  0.
          4    1    3    3  502    0  0.19346527715E+04  0.14230035686E+04  0.22373974887E+04  0.32823418507E+04  0.00000000000E+00 0. -1.
         -3    1    3    3    0  502  0.78890268236E+01  0.14192300738E+02  0.10353566156E+02  0.19257582315E+02  0.00000000000E+00 0.  1.
         11    1    5    5    0    0 -0.11809716225E+04 -0.91908642717E+03 -0.69350855498E+03  0.16493537976E+04  0.00000000000E+00 0. -1.
        -11    1    5    5    0    0 -0.20239529823E+03 -0.12584870118E+03 -0.83004848014E+02  0.25237186278E+03  0.00000000000E+00 0.  1.
          2    1    6    6  503    0 -0.36065978965E+03 -0.21534388974E+03 -0.70822099209E+03  0.82342300694E+03  0.00000000000E+00 0. -1.
         -2    1    6    6    0  503 -0.19851508799E+03 -0.17691685129E+03 -0.35553435351E+03  0.44397352281E+03  0.00000000000E+00 0.  1.
<mgrwt>
<rscale>  0 0.64578786E+04</rscale>
<asrwt>0</asrwt>
<pdfrwt beam="1">  1        2 0.52909260E+00 0.64578786E+04</pdfrwt>
<pdfrwt beam="2">  1       -1 0.46640303E+00 0.64578786E+04</pdfrwt>
<totfact> 0.16632948E-03</totfact>
</mgrwt>
</event>
<event>
12    6  0.1553355E-007  0.2504403E+04  0.7818608E-02  0.8401419E-01
         -1   -1    0    0    0  501 -0.00000000000E+00  0.00000000000E+00  0.78627947658E+03  0.78627947658E+03  0.00000000000E+00 0.  1.
          2   -1    0    0  501    0  0.00000000000E+00 -0.00000000000E+00 -0.19942133448E+04  0.19942133448E+04  0.00000000000E+00 0. -1.
         24    2    1    2    0    0 -0.95188596639E+03 -0.37368469922E+03 -0.95137249936E+03  0.13990424146E+04  0.80516444083E+02 0.  0.
        254    2    1    2    0    0  0.95188596639E+03  0.37368469922E+03 -0.25656136886E+03  0.13814504068E+04  0.89266698329E+03 0.  0.
         23    2    4    4    0    0  0.31994290967E+03  0.49708304053E+03  0.14693722579E+03  0.61615780541E+03  0.92762482757E+02 0.  0.
         23    2    4    4    0    0  0.63194305672E+03 -0.12339834131E+03 -0.40349859465E+03  0.76529260141E+03  0.91008089244E+02 0.  0.
          2    1    3    3  502    0 -0.85687708817E+03 -0.33265189621E+03 -0.88575759246E+03  0.12765038742E+04  0.00000000000E+00 0. -1.
         -1    1    3    3    0  502 -0.95008878219E+02 -0.41032803010E+02 -0.65614906900E+02  0.12253854035E+03  0.00000000000E+00 0.  1.
         11    1    5    5    0    0  0.25486981667E+02  0.10378845164E+03  0.32381456035E+02  0.11166999428E+03  0.00000000000E+00 0.  1.
        -11    1    5    5    0    0  0.29445592800E+03  0.39329458890E+03  0.11455576975E+03  0.50448781113E+03  0.00000000000E+00 0. -1.
          2    1    6    6  503    0  0.56246567076E+02 -0.57351455880E+01 -0.68824036189E+02  0.89069165035E+02  0.00000000000E+00 0. -1.
         -2    1    6    6    0  503  0.57569648965E+03 -0.11766319572E+03 -0.33467455846E+03  0.67622343637E+03  0.00000000000E+00 0.  1.
<mgrwt>
<rscale>  0 0.25044033E+04</rscale>
<asrwt>0</asrwt>
<pdfrwt beam="1">  1        2 0.30680205E+00 0.25044033E+04</pdfrwt>
<pdfrwt beam="2">  1       -1 0.12096608E+00 0.25044033E+04</pdfrwt>
<totfact> 0.41446966E+00</totfact>
</mgrwt>
</event>
<event>
12    6  0.1553355E-007  0.3581790E+04  0.7818608E-02  0.8094676E-01
          2   -1    0    0  501    0  0.00000000000E+00  0.00000000000E+00  0.21524771906E+04  0.21524771906E+04  0.00000000000E+00 0. -1.
         -1   -1    0    0    0  501 -0.00000000000E+00 -0.00000000000E+00 -0.14900526430E+04  0.14900526430E+04  0.00000000000E+00 0.  1.
         24    2    1    2    0    0  0.12528873872E+04 -0.72647319760E+03  0.11644345690E+04  0.18602347076E+04  0.84114150718E+02 0.  0.
        254    2    1    2    0    0 -0.12528873872E+04  0.72647319760E+03 -0.50201002142E+03  0.17822951260E+04  0.90943484798E+03 0.  0.
         23    2    4    4    0    0 -0.12477591210E+04  0.31761587427E+03 -0.39405963816E+03  0.13495504616E+04  0.90668529914E+02 0.  0.
         23    2    4    4    0    0 -0.51282661369E+01  0.40885732333E+03 -0.10795038326E+03  0.43274466436E+03  0.91782620011E+02 0.  0.
          2    1    3    3  502    0  0.11051239261E+04 -0.65994390944E+03  0.10598641224E+04  0.16673742272E+04  0.00000000000E+00 0. -1.
         -1    1    3    3    0  502  0.14776346111E+03 -0.66529288163E+02  0.10457044652E+03  0.19286048043E+03  0.00000000000E+00 0.  1.
         11    1    5    5    0    0 -0.58974971920E+01  0.92942256542E+01 -0.54130447845E+01  0.12266383227E+02  0.00000000000E+00 0.  1.
        -11    1    5    5    0    0 -0.12418616238E+04  0.30832164862E+03 -0.38864659337E+03  0.13372840784E+04  0.00000000000E+00 0. -1.
          2    1    6    6  503    0  0.24547273230E+02  0.34689231625E+03 -0.10764735242E+03  0.36403955854E+03  0.00000000000E+00 0. -1.
         -2    1    6    6    0  503 -0.29675539367E+02  0.61965007070E+02 -0.30303084002E+00  0.68705105819E+02  0.00000000000E+00 0.  1.
<mgrwt>
<rscale>  0 0.35817897E+04</rscale>
<asrwt>0</asrwt>
<pdfrwt beam="1">  1        2 0.33115034E+00 0.35817897E+04</pdfrwt>
<pdfrwt beam="2">  1       -1 0.22923887E+00 0.35817897E+04</pdfrwt>
<totfact> 0.48676662E-01</totfact>
</mgrwt>
</event>
<event>
12    6  0.1553355E-007  0.1987489E+04  0.7818608E-02  0.8612492E-01
          2   -1    0    0  501    0  0.00000000000E+00  0.00000000000E+00  0.18509963041E+04  0.18509963041E+04  0.00000000000E+00 0. -1.
         -1   -1    0    0    0  501 -0.00000000000E+00 -0.00000000000E+00 -0.53351164598E+03  0.53351164598E+03  0.00000000000E+00 0.  1.
         24    2    1    2    0    0 -0.31884788525E+03 -0.37546910333E+03 -0.21536938144E+03  0.54358239789E+03  0.80354410915E+02 0.  0.
        254    2    1    2    0    0  0.31884788525E+03  0.37546910333E+03  0.15328540396E+04  0.18409255522E+04  0.89259417466E+03 0.  0.
         23    2    4    4    0    0 -0.16219323064E+03 -0.18401674140E+03  0.26983616542E+03  0.37530924684E+03  0.88750602287E+02 0.  0.
         23    2    4    4    0    0  0.48104111589E+03  0.55948584474E+03  0.12630178742E+04  0.14656163054E+04  0.91608070044E+02 0.  0.
          2    1    3    3  502    0 -0.67439177493E+02 -0.40163444744E+02 -0.49885032716E+02  0.93003556081E+02  0.00000000000E+00 0. -1.
         -1    1    3    3    0  502 -0.25140870775E+03 -0.33530565859E+03 -0.16548434872E+03  0.45057884181E+03  0.00000000000E+00 0.  1.
         11    1    5    5    0    0 -0.10725830489E+03 -0.17163061811E+03  0.18991748556E+03  0.27754290545E+03  0.00000000000E+00 0. -1.
        -11    1    5    5    0    0 -0.54934925750E+02 -0.12386123290E+02  0.79918679861E+02  0.97766341386E+02  0.00000000000E+00 0.  1.
          2    1    6    6  503    0  0.23644806879E+03  0.22610749846E+03  0.49450178906E+03  0.59292858716E+03  0.00000000000E+00 0.  1.
         -2    1    6    6    0  503  0.24459304709E+03  0.33337834628E+03  0.76851608511E+03  0.87268771822E+03  0.00000000000E+00 0. -1.
<mgrwt>
<rscale>  0 0.19874890E+04</rscale>
<asrwt>0</asrwt>
<pdfrwt beam="1">  1        2 0.28476866E+00 0.19874890E+04</pdfrwt>
<pdfrwt beam="2">  1       -1 0.82078716E-01 0.19874890E+04</pdfrwt>
<totfact> 0.12640569E+01</totfact>
</mgrwt>
</event>
<event>
12    6  0.1553355E-007  0.1823294E+04  0.7818608E-02  0.8694009E-01
          2   -1    0    0  501    0  0.00000000000E+00  0.00000000000E+00  0.89432706695E+03  0.89432706695E+03  0.00000000000E+00 0. -1.
         -1   -1    0    0    0  501 -0.00000000000E+00 -0.00000000000E+00 -0.92930271720E+03  0.92930271720E+03  0.00000000000E+00 0.  1.
         24    2    1    2    0    0  0.38532673814E+03 -0.17964812277E+03  0.52290496215E+03  0.67871170128E+03  0.80435258887E+02 0.  0.
        254    2    1    2    0    0 -0.38532673814E+03  0.17964812277E+03 -0.55788061240E+03  0.11449180829E+04  0.90490689890E+03 0.  0.
         23    2    4    4    0    0  0.31717918871E+02  0.34691091453E+03 -0.58279233001E+03  0.68531573351E+03  0.93045933144E+02 0.  0.
         23    2    4    4    0    0 -0.41704465701E+03 -0.16726279176E+03  0.24911717610E+02  0.45960234937E+03  0.93330801054E+02 0.  0.
          4    1    3    3  502    0  0.35289140096E+03 -0.13597755286E+03  0.46208383217E+03  0.59711280652E+03  0.00000000000E+00 0. -1.
         -3    1    3    3    0  502  0.32435337174E+02 -0.43670569910E+02  0.60821129976E+02  0.81598894756E+02  0.00000000000E+00 0.  1.
         11    1    5    5    0    0  0.36112969636E+02  0.75399301092E+02 -0.19230976549E+03  0.20969560578E+03  0.00000000000E+00 0.  1.
        -11    1    5    5    0    0 -0.43950507647E+01  0.27151161344E+03 -0.39048256452E+03  0.47562012773E+03  0.00000000000E+00 0. -1.
          1    1    6    6  503    0 -0.30779821791E+03 -0.16209001066E+03  0.20777713820E+01  0.34787531047E+03  0.00000000000E+00 0. -1.
         -1    1    6    6    0  503 -0.10924643910E+03 -0.51727811022E+01  0.22833946228E+02  0.11172703890E+03  0.00000000000E+00 0.  1.
<mgrwt>
<rscale>  0 0.18232944E+04</rscale>
<asrwt>0</asrwt>
<pdfrwt beam="1">  1        2 0.13758878E+00 0.18232944E+04</pdfrwt>
<pdfrwt beam="2">  1       -1 0.14296965E+00 0.18232944E+04</pdfrwt>
<totfact> 0.12618714E+01</totfact>
</mgrwt>
</event>
<event>
12    6  0.1553355E-007  0.1352061E+04  0.7818608E-02  0.8989270E-01
          2   -1    0    0  501    0  0.00000000000E+00  0.00000000000E+00  0.29931269935E+03  0.29931269935E+03  0.00000000000E+00 0. -1.
         -1   -1    0    0    0  501 -0.00000000000E+00 -0.00000000000E+00 -0.15268883013E+04  0.15268883013E+04  0.00000000000E+00 0.  1.
         24    2    1    2    0    0  0.23943199568E+03 -0.27072542077E+03 -0.23304021609E+03  0.43729653824E+03  0.79376230883E+02 0.  0.
        254    2    1    2    0    0 -0.23943199568E+03  0.27072542077E+03 -0.99453538586E+03  0.13889044624E+04  0.89963050080E+03 0.  0.
         23    2    4    4    0    0 -0.32126357383E+03 -0.20218780712E+03 -0.74331035542E+03  0.83978063979E+03  0.92903419110E+02 0.  0.
         23    2    4    4    0    0  0.81831578147E+02  0.47291322790E+03 -0.25122503044E+03  0.54912382262E+03  0.89886752902E+02 0.  0.
          4    1    3    3  502    0  0.21681660048E+03 -0.21912219625E+03 -0.16735705805E+03  0.35075968984E+03  0.00000000000E+00 0. -1.
         -3    1    3    3    0  502  0.22615395198E+02 -0.51603224527E+02 -0.65683158035E+02  0.86536848400E+02  0.00000000000E+00 0.  1.
         11    1    5    5    0    0 -0.62458212616E+02 -0.58817467671E+02 -0.25266763200E+03  0.26683600785E+03  0.00000000000E+00 0. -1.
        -11    1    5    5    0    0 -0.25880536121E+03 -0.14337033945E+03 -0.49064272342E+03  0.57294463194E+03  0.00000000000E+00 0.  1.
          3    1    6    6  503    0  0.15745801751E+02  0.16412937644E+02  0.21659216717E+01  0.22847450877E+02  0.00000000000E+00 0. -1.
         -3    1    6    6    0  503  0.66085776396E+02  0.45650029025E+03 -0.25339095212E+03  0.52627637174E+03  0.00000000000E+00 0.  1.
<mgrwt>
<rscale>  0 0.13520607E+04</rscale>
<asrwt>0</asrwt>
<pdfrwt beam="1">  1        2 0.46048109E-01 0.13520607E+04</pdfrwt>
<pdfrwt beam="2">  1       -1 0.23490588E+00 0.13520607E+04</pdfrwt>
<totfact> 0.10793203E+01</totfact>
</mgrwt>
</event>
<event>
12    6  0.1553355E-007  0.1569801E+04  0.7818608E-02  0.8839318E-01
         -1   -1    0    0    0  501 -0.00000000000E+00  0.00000000000E+00  0.20392159888E+03  0.20392159888E+03  0.00000000000E+00 0.  1.
          2   -1    0    0  501    0  0.00000000000E+00 -0.00000000000E+00 -0.30211076993E+04  0.30211076993E+04  0.00000000000E+00 0. -1.
         24    2    1    2    0    0  0.30213258753E+03 -0.79332444878E+02 -0.18028909388E+04  0.18315018130E+04  0.80033846570E+02 0.  0.
        254    2    1    2    0    0 -0.30213258753E+03  0.79332444878E+02 -0.10142951616E+04  0.13935274852E+04  0.90307609855E+03 0.  0.
         23    2    4    4    0    0  0.59782204442E+02  0.36017807175E+03 -0.79124838866E+03  0.87612228022E+03  0.90631572878E+02 0.  0.
         23    2    4    4    0    0 -0.36191479197E+03 -0.28084562688E+03 -0.22304677296E+03  0.51740520494E+03  0.90009446138E+02 0.  0.
          4    1    3    3  502    0  0.56752862927E+02 -0.21612603522E+01 -0.51886492675E+03  0.52196395538E+03  0.00000000000E+00 0. -1.
         -3    1    3    3    0  502  0.24537972460E+03 -0.77171184526E+02 -0.12840260121E+04  0.13095378576E+04  0.00000000000E+00 0.  1.
         11    1    5    5    0    0  0.28339523592E+02  0.11461899329E+03 -0.16652960228E+03  0.20413904736E+03  0.00000000000E+00 0.  1.
        -11    1    5    5    0    0  0.31442680850E+02  0.24555907846E+03 -0.62471878637E+03  0.67198323286E+03  0.00000000000E+00 0. -1.
          2    1    6    6  503    0 -0.15666128080E+03 -0.13926387229E+03 -0.14941068524E+03  0.25741160792E+03  0.00000000000E+00 0. -1.
         -2    1    6    6    0  503 -0.20525351117E+03 -0.14158175458E+03 -0.73636087713E+02  0.25999359702E+03  0.00000000000E+00 0.  1.
<mgrwt>
<rscale>  0 0.15698014E+04</rscale>
<asrwt>0</asrwt>
<pdfrwt beam="1">  1        2 0.46478581E+00 0.15698014E+04</pdfrwt>
<pdfrwt beam="2">  1       -1 0.31372553E-01 0.15698014E+04</pdfrwt>
<totfact> 0.17543764E+01</totfact>
</mgrwt>
</event>
<event>
12    6  0.1553355E-007  0.1359587E+04  0.7818608E-02  0.8983602E-01
         -1   -1    0    0    0  501 -0.00000000000E+00  0.00000000000E+00  0.42358315877E+03  0.42358315877E+03  0.00000000000E+00 0.  1.
          2   -1    0    0  501    0  0.00000000000E+00 -0.00000000000E+00 -0.10909766110E+04  0.10909766110E+04  0.00000000000E+00 0. -1.
         24    2    1    2    0    0 -0.25257314790E+03  0.25896612574E+03 -0.33395761665E+03  0.49895135387E+03  0.81043904655E+02 0.  0.
        254    2    1    2    0    0  0.25257314790E+03 -0.25896612574E+03 -0.33343583557E+03  0.10156084159E+04  0.88849555354E+03 0.  0.
         23    2    4    4    0    0  0.51932856939E+03 -0.36090646660E+03 -0.32365502793E+03  0.71589026104E+03  0.88264648262E+02 0.  0.
         23    2    4    4    0    0 -0.26675542148E+03  0.10194034085E+03 -0.97808076334E+01  0.29971815484E+03  0.90471101245E+02 0.  0.
          2    1    3    3  502    0 -0.87026292959E+02  0.95053511414E+02 -0.17327223075E+03  0.21594446427E+03  0.00000000000E+00 0. -1.
         -1    1    3    3    0  502 -0.16554685495E+03  0.16391261433E+03 -0.16068538590E+03  0.28300688960E+03  0.00000000000E+00 0.  1.
         11    1    5    5    0    0  0.39369842048E+03 -0.22494163513E+03 -0.22900997816E+03  0.50797908973E+03  0.00000000000E+00 0. -1.
        -11    1    5    5    0    0  0.12563014891E+03 -0.13596483147E+03 -0.94645049772E+02  0.20791117131E+03  0.00000000000E+00 0.  1.
          1    1    6    6  503    0 -0.30171906814E+02 -0.16855191573E+02 -0.51597854293E+01  0.34943738058E+02  0.00000000000E+00 0. -1.
         -1    1    6    6    0  503 -0.23658351467E+03  0.11879553243E+03 -0.46210222041E+01  0.26477441679E+03  0.00000000000E+00 0.  1.
<mgrwt>
<rscale>  0 0.13595872E+04</rscale>
<asrwt>0</asrwt>
<pdfrwt beam="1">  1        2 0.16784256E+00 0.13595872E+04</pdfrwt>
<pdfrwt beam="2">  1       -1 0.65166640E-01 0.13595872E+04</pdfrwt>
<totfact> 0.58656273E+01</totfact>
</mgrwt>
</event>
<event>
12    6  0.1553355E-007  0.1630199E+04  0.7818608E-02  0.8802207E-01
          2   -1    0    0  501    0  0.00000000000E+00  0.00000000000E+00  0.11322443805E+04  0.11322443805E+04  0.00000000000E+00 0. -1.
         -1   -1    0    0    0  501 -0.00000000000E+00 -0.00000000000E+00 -0.58678811162E+03  0.58678811162E+03  0.00000000000E+00 0.  1.
         24    2    1    2    0    0 -0.39655750322E+03 -0.38616099968E+03  0.33833671527E+03  0.65350480460E+03  0.78858263375E+02 0.  0.
        254    2    1    2    0    0  0.39655750322E+03  0.38616099968E+03  0.20711955360E+03  0.10655276875E+04  0.88660733830E+03 0.  0.
         23    2    4    4    0    0  0.29058959777E+03  0.43880690702E+03  0.50325988059E+03  0.73399546547E+03  0.92114167952E+02 0.  0.
         23    2    4    4    0    0  0.10596790545E+03 -0.52645907346E+02 -0.29614032699E+03  0.33153222203E+03  0.90629644304E+02 0.  0.
          4    1    3    3  502    0 -0.20714828337E+03 -0.19563942348E+03  0.21982970127E+03  0.35987538522E+03  0.00000000000E+00 0. -1.
         -3    1    3    3    0  502 -0.18940921985E+03 -0.19052157619E+03  0.11850701400E+03  0.29362941938E+03  0.00000000000E+00 0.  1.
         11    1    5    5    0    0  0.29080789443E+03  0.44296421477E+03  0.50109620906E+03  0.72930373491E+03  0.00000000000E+00 0.  1.
        -11    1    5    5    0    0 -0.21829665377E+00 -0.41573077476E+01  0.21636715373E+01  0.46917305612E+01  0.00000000000E+00 0. -1.
          1    1    6    6  503    0  0.88733881926E+02  0.48296138042E+01 -0.18461930479E+03  0.20489342272E+03  0.00000000000E+00 0. -1.
         -1    1    6    6    0  503  0.17234023523E+02 -0.57475521150E+02 -0.11152102220E+03  0.12663879931E+03  0.00000000000E+00 0.  1.
<mgrwt>
<rscale>  0 0.16301994E+04</rscale>
<asrwt>0</asrwt>
<pdfrwt beam="1">  1        2 0.17419144E+00 0.16301994E+04</pdfrwt>
<pdfrwt beam="2">  1       -1 0.90275094E-01 0.16301994E+04</pdfrwt>
<totfact> 0.27253498E+01</totfact>
</mgrwt>
</event>
<event>
12    6  0.1553355E-007  0.2828325E+04  0.7818608E-02  0.8294528E-01
          2   -1    0    0  501    0  0.00000000000E+00  0.00000000000E+00  0.33251321188E+04  0.33251321188E+04  0.00000000000E+00 0. -1.
         -1   -1    0    0    0  501 -0.00000000000E+00 -0.00000000000E+00 -0.60143657837E+03  0.60143657837E+03  0.00000000000E+00 0.  1.
         24    2    1    2    0    0 -0.35227823820E+03 -0.11423022849E+04  0.64017713456E+03  0.13581151277E+04  0.75468332129E+02 0.  0.
        254    2    1    2    0    0  0.35227823820E+03  0.11423022849E+04  0.20835184059E+04  0.25684535695E+04  0.90936809029E+03 0.  0.
         23    2    4    4    0    0  0.10570233769E+03  0.74254191419E+03  0.19198604937E+04  0.20629978463E+04  0.86915592643E+02 0.  0.
         23    2    4    4    0    0  0.24657590052E+03  0.39976037075E+03  0.16365791219E+03  0.50545572314E+03  0.89964143387E+02 0.  0.
          4    1    3    3  502    0 -0.17885530503E+03 -0.47709392815E+03  0.24790112013E+03  0.56662403918E+03  0.00000000000E+00 0. -1.
         -3    1    3    3    0  502 -0.17342293318E+03 -0.66520835679E+03  0.39227601442E+03  0.79149108851E+03  0.00000000000E+00 0.  1.
         11    1    5    5    0    0  0.89878359102E+02  0.34368111624E+03  0.86195576559E+03  0.93228888813E+03  0.00000000000E+00 0. -1.
        -11    1    5    5    0    0  0.15823978587E+02  0.39886079795E+03  0.10579047281E+04  0.11307089582E+04  0.00000000000E+00 0.  1.
          4    1    6    6  503    0  0.95924783438E+02  0.17883215562E+03  0.25682717330E+02  0.20455343050E+03  0.00000000000E+00 0. -1.
         -4    1    6    6    0  503  0.15065111708E+03  0.22092821513E+03  0.13797519486E+03  0.30090229264E+03  0.00000000000E+00 0.  1.
<mgrwt>
<rscale>  0 0.28283254E+04</rscale>
<asrwt>0</asrwt>
<pdfrwt beam="1">  1        2 0.51155878E+00 0.28283254E+04</pdfrwt>
<pdfrwt beam="2">  1       -1 0.92528706E-01 0.28283254E+04</pdfrwt>
<totfact> 0.12003231E+00</totfact>
</mgrwt>
</event>
<event>
12    6  0.1553355E-007  0.1506389E+04  0.7818608E-02  0.8880215E-01
          2   -1    0    0  501    0  0.00000000000E+00  0.00000000000E+00  0.17543143908E+04  0.17543143908E+04  0.00000000000E+00 0. -1.
         -1   -1    0    0    0  501 -0.00000000000E+00 -0.00000000000E+00 -0.32337530232E+03  0.32337530232E+03  0.00000000000E+00 0.  1.
         24    2    1    2    0    0  0.29084231122E+03 -0.19145880288E+03  0.56775067710E+00  0.35731983619E+03  0.80196133286E+02 0.  0.
        254    2    1    2    0    0 -0.29084231122E+03  0.19145880288E+03  0.14303713378E+04  0.17203698569E+04  0.89020478397E+03 0.  0.
         23    2    4    4    0    0  0.71625006040E+02  0.33290836597E+02 -0.87143530975E+02  0.14955563555E+03  0.92382205230E+02 0.  0.
         23    2    4    4    0    0 -0.36246731726E+03  0.15816796628E+03  0.15175148687E+04  0.15708142213E+04  0.90588517284E+02 0.  0.
          4    1    3    3  502    0  0.78008158027E+02 -0.19406613545E+02  0.20365234161E+02  0.82925461292E+02  0.00000000000E+00 0. -1.
         -3    1    3    3    0  502  0.21283415319E+03 -0.17205218934E+03 -0.19797483483E+02  0.27439437489E+03  0.00000000000E+00 0.  1.
         11    1    5    5    0    0  0.10139262689E+02 -0.14393180056E+02  0.13611119536E+02  0.22253782937E+02  0.00000000000E+00 0.  1.
        -11    1    5    5    0    0  0.61485743352E+02  0.47684016653E+02 -0.10075465051E+03  0.12730185262E+03  0.00000000000E+00 0. -1.
          3    1    6    6  503    0 -0.29121880207E+03  0.14647302375E+03  0.13421016236E+04  0.13811225527E+04  0.00000000000E+00 0. -1.
         -3    1    6    6    0  503 -0.71248515194E+02  0.11694942535E+02  0.17541324509E+03  0.18969166864E+03  0.00000000000E+00 0.  1.
<mgrwt>
<rscale>  0 0.15063890E+04</rscale>
<asrwt>0</asrwt>
<pdfrwt beam="1">  1        2 0.26989452E+00 0.15063890E+04</pdfrwt>
<pdfrwt beam="2">  1       -1 0.49750048E-01 0.15063890E+04</pdfrwt>
<totfact> 0.40784003E+01</totfact>
</mgrwt>
</event>
<event>
12    6  0.1978225E-007  0.2124655E+04  0.7818608E-02  0.8550460E-01
          2   -1    0    0  501    0  0.00000000000E+00  0.00000000000E+00  0.15925150725E+04  0.15925150725E+04  0.00000000000E+00 0. -1.
         -1   -1    0    0    0  501 -0.00000000000E+00 -0.00000000000E+00 -0.70865230355E+03  0.70865230355E+03  0.00000000000E+00 0.  1.
         24    2    1    2    0    0 -0.47045665116E+03 -0.19533387232E+03  0.11293411139E+04  0.12415129767E+04  0.80363781390E+02 0.  0.
        254    2    1    2    0    0  0.47045665116E+03  0.19533387232E+03 -0.24547834494E+03  0.10596543994E+04  0.89617132630E+03 0.  0.
         23    2    4    4    0    0 -0.14912754923E+02  0.45470602927E+03 -0.39137462247E+02  0.46484746703E+03  0.87014155990E+02 0.  0.
         23    2    4    4    0    0  0.48536940608E+03 -0.25937215695E+03 -0.20634088269E+03  0.59480693239E+03  0.91440422090E+02 0.  0.
          4    1    3    3  502    0 -0.46430522363E+03 -0.20023161346E+03  0.11223471436E+04  0.12309895005E+04  0.00000000000E+00 0. -1.
         -3    1    3    3    0  502 -0.61514275284E+01  0.48977411428E+01  0.69939703423E+01  0.10523476141E+02  0.00000000000E+00 0.  1.
         11    1    5    5    0    0 -0.46587745394E+02  0.20127793627E+03 -0.90063573474E+00  0.20660115391E+03  0.00000000000E+00 0.  1.
        -11    1    5    5    0    0  0.31674990471E+02  0.25342809299E+03 -0.38236826512E+02  0.25824631312E+03  0.00000000000E+00 0. -1.
          3    1    6    6  503    0  0.39999083828E+03 -0.24960906419E+03 -0.18305290762E+03  0.50577240199E+03  0.00000000000E+00 0.  1.
         -3    1    6    6    0  503  0.85378567800E+02 -0.97630927615E+01 -0.23287975072E+02  0.89034530395E+02  0.00000000000E+00 0. -1.
<mgrwt>
<rscale>  0 0.21246548E+04</rscale>
<asrwt>0</asrwt>
<pdfrwt beam="1">  1        2 0.24500232E+00 0.21246548E+04</pdfrwt>
<pdfrwt beam="2">  1       -1 0.10902343E+00 0.21246548E+04</pdfrwt>
<totfact> 0.91943475E+00</totfact>
</mgrwt>
</event>
<event>
12    6  0.1553355E-007  0.1477924E+04  0.7818608E-02  0.8899267E-01
          2   -1    0    0  501    0  0.00000000000E+00  0.00000000000E+00  0.11038837412E+04  0.11038837412E+04  0.00000000000E+00 0. -1.
         -1   -1    0    0    0  501 -0.00000000000E+00 -0.00000000000E+00 -0.49467615960E+03  0.49467615960E+03  0.00000000000E+00 0.  1.
         24    2    1    2    0    0  0.10520170006E+03  0.20151389032E+03 -0.24306475387E+03  0.34243382499E+03  0.80654846329E+02 0.  0.
        254    2    1    2    0    0 -0.10520170006E+03 -0.20151389032E+03  0.85227233546E+03  0.12561260758E+04  0.89432060182E+03 0.  0.
         23    2    4    4    0    0 -0.39357458316E+03  0.96419841742E+01  0.78274013925E+03  0.88097268186E+03  0.91852165014E+02 0.  0.
         23    2    4    4    0    0  0.28837288310E+03 -0.21115587450E+03  0.69532196218E+02  0.37515339395E+03  0.90330612973E+02 0.  0.
          2    1    3    3  502    0  0.54762025232E+02  0.49906665667E+02 -0.11884718265E+03  0.14005073191E+03  0.00000000000E+00 0. -1.
         -1    1    3    3    0  502  0.50439674830E+02  0.15160722465E+03 -0.12421757122E+03  0.20238309308E+03  0.00000000000E+00 0.  1.
         11    1    5    5    0    0 -0.36107525640E+03 -0.17971820152E+02  0.70592762451E+03  0.79311546332E+03  0.00000000000E+00 0. -1.
        -11    1    5    5    0    0 -0.32499326760E+02  0.27613804327E+02  0.76812514737E+02  0.87857218539E+02  0.00000000000E+00 0.  1.
          3    1    6    6  503    0  0.23621089322E+03 -0.17689747697E+03  0.20553256653E+02  0.29582214217E+03  0.00000000000E+00 0. -1.
         -3    1    6    6    0  503  0.52161989876E+02 -0.34258397522E+02  0.48978939565E+02  0.79331251783E+02  0.00000000000E+00 0.  1.
<mgrwt>
<rscale>  0 0.14779242E+04</rscale>
<asrwt>0</asrwt>
<pdfrwt beam="1">  1        2 0.16982827E+00 0.14779242E+04</pdfrwt>
<pdfrwt beam="2">  1       -1 0.76104025E-01 0.14779242E+04</pdfrwt>
<totfact> 0.41472813E+01</totfact>
</mgrwt>
</event>
<event>
12    6  0.1553355E-007  0.1987211E+04  0.7818608E-02  0.8612623E-01
          2   -1    0    0  501    0  0.00000000000E+00  0.00000000000E+00  0.23305389301E+04  0.23305389301E+04  0.00000000000E+00 0. -1.
         -1   -1    0    0    0  501 -0.00000000000E+00 -0.00000000000E+00 -0.42361546028E+03  0.42361546028E+03  0.00000000000E+00 0.  1.
         24    2    1    2    0    0 -0.23534014807E+02  0.20568402369E+03 -0.29228290039E+03  0.36662111517E+03  0.78243087683E+02 0.  0.
        254    2    1    2    0    0  0.23534014807E+02 -0.20568402369E+03  0.21992063702E+04  0.23875332752E+04  0.90606109839E+03 0.  0.
         23    2    4    4    0    0 -0.17472797082E+03  0.12655447435E+03  0.10648835758E+03  0.25718393097E+03  0.90873017373E+02 0.  0.
         23    2    4    4    0    0  0.19826198563E+03 -0.33223849803E+03  0.20927180126E+04  0.21303493442E+04  0.96069837014E+02 0.  0.
          2    1    3    3  502    0 -0.35115263866E+02  0.10825569913E+03 -0.10335403945E+03  0.15373495251E+03  0.00000000000E+00 0. -1.
         -1    1    3    3    0  502  0.11581249059E+02  0.97428324555E+02 -0.18892886094E+03  0.21288616266E+03  0.00000000000E+00 0.  1.
         11    1    5    5    0    0 -0.43137386591E+02  0.73757824095E+02  0.70818600114E+02  0.11097893881E+03  0.00000000000E+00 0. -1.
        -11    1    5    5    0    0 -0.13159058423E+03  0.52796650251E+02  0.35669757461E+02  0.14620499216E+03  0.00000000000E+00 0.  1.
          4    1    6    6  503    0  0.54690576970E+02 -0.18473018203E+03  0.98274263307E+03  0.10014486418E+04  0.00000000000E+00 0. -1.
         -4    1    6    6    0  503  0.14357140866E+03 -0.14750831600E+03  0.11099753795E+04  0.11289007024E+04  0.00000000000E+00 0.  1.
<mgrwt>
<rscale>  0 0.19872114E+04</rscale>
<asrwt>0</asrwt>
<pdfrwt beam="1">  1        2 0.35854445E+00 0.19872114E+04</pdfrwt>
<pdfrwt beam="2">  1       -1 0.65171610E-01 0.19872114E+04</pdfrwt>
<totfact> 0.11010589E+01</totfact>
</mgrwt>
</event>
<event>
12    6  0.1553355E-007  0.1421515E+04  0.7818608E-02  0.8938390E-01
          2   -1    0    0  501    0  0.00000000000E+00  0.00000000000E+00  0.76514565679E+03  0.76514565679E+03  0.00000000000E+00 0. -1.
         -1   -1    0    0    0  501 -0.00000000000E+00 -0.00000000000E+00 -0.66023553617E+03  0.66023553617E+03  0.00000000000E+00 0.  1.
         24    2    1    2    0    0  0.33002539808E+03  0.59966993500E+02  0.36178204401E+03  0.50007221480E+03  0.81689466623E+02 0.  0.
        254    2    1    2    0    0 -0.33002539808E+03 -0.59966993500E+02 -0.25687192338E+03  0.92530897816E+03  0.82322579913E+03 0.  0.
         23    2    4    4    0    0 -0.45534780939E+02  0.35744983995E+03 -0.66372466410E+02  0.37783143113E+03  0.92236010854E+02 0.  0.
         23    2    4    4    0    0 -0.28449061715E+03 -0.41741683345E+03 -0.19049945697E+03  0.54747754703E+03  0.90938975709E+02 0.  0.
          4    1    3    3  502    0  0.32961731195E+03  0.57294447971E+02  0.33603367684E+03  0.47418230469E+03  0.00000000000E+00 0. -1.
         -3    1    3    3    0  502  0.40808613362E+00  0.26725455287E+01  0.25748367167E+02  0.25889910113E+02  0.00000000000E+00 0.  1.
         11    1    5    5    0    0 -0.11001972903E+01  0.80074521689E+02 -0.54115804411E+02  0.96652261975E+02  0.00000000000E+00 0. -1.
        -11    1    5    5    0    0 -0.44434583648E+02  0.27737531826E+03 -0.12256661999E+02  0.28117916916E+03  0.00000000000E+00 0.  1.
          1    1    6    6  503    0 -0.39279659237E+02 -0.10975314838E+03 -0.70166775475E+02  0.13605889016E+03  0.00000000000E+00 0. -1.
         -1    1    6    6    0  503 -0.24521095791E+03 -0.30766368506E+03 -0.12033268150E+03  0.41141865687E+03  0.00000000000E+00 0.  1.
<mgrwt>
<rscale>  0 0.14215152E+04</rscale>
<asrwt>0</asrwt>
<pdfrwt beam="1">  1        2 0.11771472E+00 0.14215152E+04</pdfrwt>
<pdfrwt beam="2">  1       -1 0.10157470E+00 0.14215152E+04</pdfrwt>
<totfact> 0.37291855E+01</totfact>
</mgrwt>
</event>
<event>
12    6  0.1553355E-007  0.1372445E+04  0.7818608E-02  0.8974009E-01
         -1   -1    0    0    0  501 -0.00000000000E+00  0.00000000000E+00  0.51540461599E+03  0.51540461599E+03  0.00000000000E+00 0.  1.
          2   -1    0    0  501    0  0.00000000000E+00 -0.00000000000E+00 -0.91365380230E+03  0.91365380230E+03  0.00000000000E+00 0. -1.
         24    2    1    2    0    0  0.34412625062E+02  0.12545971315E+03 -0.49350744502E+03  0.51615769022E+03  0.77102493477E+02 0.  0.
        254    2    1    2    0    0 -0.34412625062E+02 -0.12545971315E+03  0.95258258703E+02  0.91290072806E+03  0.89854840441E+03 0.  0.
         23    2    4    4    0    0 -0.21078377081E+03 -0.36938850265E+03  0.30745944822E+03  0.53246991281E+03  0.90084581467E+02 0.  0.
         23    2    4    4    0    0  0.17637114575E+03  0.24392878950E+03 -0.21220118952E+03  0.38043081525E+03  0.95342671239E+02 0.  0.
          4    1    3    3  502    0  0.42823883640E+02  0.11833904542E+03 -0.34491537994E+03  0.36715750571E+03  0.00000000000E+00 0. -1.
         -3    1    3    3    0  502 -0.84112585782E+01  0.71206677253E+01 -0.14859206508E+03  0.14900018451E+03  0.00000000000E+00 0.  1.
         11    1    5    5    0    0 -0.21926395017E+03 -0.36162369185E+03  0.30245378674E+03  0.51992948317E+03  0.00000000000E+00 0. -1.
        -11    1    5    5    0    0  0.84801793604E+01 -0.77648108034E+01  0.50056614797E+01  0.12540429644E+02  0.00000000000E+00 0.  1.
          4    1    6    6  503    0  0.16909557157E+03  0.16815310069E+03 -0.14651634558E+03  0.27988536425E+03  0.00000000000E+00 0. -1.
         -4    1    6    6    0  503  0.72755741760E+01  0.75775688809E+02 -0.65684843946E+02  0.10054545101E+03  0.00000000000E+00 0.  1.
<mgrwt>
<rscale>  0 0.13724451E+04</rscale>
<asrwt>0</asrwt>
<pdfrwt beam="1">  1        2 0.14056212E+00 0.13724451E+04</pdfrwt>
<pdfrwt beam="2">  1       -1 0.79293018E-01 0.13724451E+04</pdfrwt>
<totfact> 0.50802621E+01</totfact>
</mgrwt>
</event>
<event>
12    6  0.1553355E-007  0.1301023E+04  0.7818608E-02  0.9028754E-01
          2   -1    0    0  501    0  0.00000000000E+00  0.00000000000E+00  0.14591193155E+04  0.14591193155E+04  0.00000000000E+00 0. -1.
         -1   -1    0    0    0  501 -0.00000000000E+00 -0.00000000000E+00 -0.29001403038E+03  0.29001403038E+03  0.00000000000E+00 0.  1.
         24    2    1    2    0    0 -0.18149888303E+03 -0.26842426194E+03  0.32065663051E+03  0.46292607612E+03  0.80538489683E+02 0.  0.
        254    2    1    2    0    0  0.18149888303E+03  0.26842426194E+03  0.84844865465E+03  0.12862072698E+04  0.91075276138E+03 0.  0.
         23    2    4    4    0    0  0.31436397883E+03  0.14574024184E+03 -0.53227985654E+02  0.36205903176E+03  0.90490854494E+02 0.  0.
         23    2    4    4    0    0 -0.13286509580E+03  0.12268402009E+03  0.90167664030E+03  0.92414823803E+03  0.91239792462E+02 0.  0.
          4    1    3    3  502    0 -0.18354141149E+03 -0.24428614774E+03  0.27426408161E+03  0.41058976871E+03  0.00000000000E+00 0. -1.
         -3    1    3    3    0  502  0.20425284562E+01 -0.24138114199E+02  0.46392548899E+02  0.52336307406E+02  0.00000000000E+00 0.  1.
         11    1    5    5    0    0  0.26432599930E+03  0.11508591253E+03 -0.77543068796E+02  0.29853966016E+03  0.00000000000E+00 0. -1.
        -11    1    5    5    0    0  0.50037979531E+02  0.30654329314E+02  0.24315083142E+02  0.63519371608E+02  0.00000000000E+00 0.  1.
          3    1    6    6  503    0 -0.81341979839E+02  0.10532380557E+03  0.77431132023E+03  0.78566382273E+03  0.00000000000E+00 0. -1.
         -3    1    6    6    0  503 -0.51523115958E+02  0.17360214524E+02  0.12736532007E+03  0.13848441531E+03  0.00000000000E+00 0.  1.
<mgrwt>
<rscale>  0 0.13010228E+04</rscale>
<asrwt>0</asrwt>
<pdfrwt beam="1">  1        2 0.22447989E+00 0.13010228E+04</pdfrwt>
<pdfrwt beam="2">  1       -1 0.44617544E-01 0.13010228E+04</pdfrwt>
<totfact> 0.74391840E+01</totfact>
</mgrwt>
</event>
<event>
12    6  0.1734433E-007  0.2201143E+04  0.7818608E-02  0.8517953E-01
          4   -1    0    0  501    0  0.00000000000E+00  0.00000000000E+00  0.17107904195E+04  0.17107904195E+04  0.00000000000E+00 0. -1.
         -3   -1    0    0    0  501 -0.00000000000E+00 -0.00000000000E+00 -0.70801047815E+03  0.70801047815E+03  0.00000000000E+00 0.  1.
         24    2    1    2    0    0 -0.56138263015E+03 -0.54121856357E+03  0.94505875274E+03  0.12279666561E+04  0.81841745292E+02 0.  0.
        254    2    1    2    0    0  0.56138263015E+03  0.54121856357E+03  0.57721188636E+02  0.11908342416E+04  0.89815726038E+03 0.  0.
         23    2    4    4    0    0  0.34609166017E+03  0.73752847106E+03 -0.13128320130E+03  0.83134009128E+03  0.10081361791E+03 0.  0.
         23    2    4    4    0    0  0.21529096998E+03 -0.19630990749E+03  0.18900438994E+03  0.35949415033E+03  0.92874125398E+02 0.  0.
          2    1    3    3  502    0 -0.49075276785E+03 -0.46037221742E+03  0.76972672487E+03  0.10223796206E+04  0.00000000000E+00 0. -1.
         -1    1    3    3    0  502 -0.70629862300E+02 -0.80846346151E+02  0.17533202786E+03  0.20558703541E+03  0.00000000000E+00 0.  1.
         11    1    5    5    0    0  0.21886476935E+03  0.41819177097E+03 -0.29877984351E+02  0.47294697220E+03  0.00000000000E+00 0. -1.
        -11    1    5    5    0    0  0.12722689082E+03  0.31933670010E+03 -0.10140521695E+03  0.35839311908E+03  0.00000000000E+00 0.  1.
          3    1    6    6  503    0  0.28151426122E+02 -0.26290117409E+02 -0.75380418970E+01  0.39249141923E+02  0.00000000000E+00 0. -1.
         -3    1    6    6    0  503  0.18713954386E+03 -0.17001979008E+03  0.19654243184E+03  0.32024500840E+03  0.00000000000E+00 0.  1.
<mgrwt>
<rscale>  0 0.22011429E+04</rscale>
<asrwt>0</asrwt>
<pdfrwt beam="1">  1        4 0.26319853E+00 0.22011429E+04</pdfrwt>
<pdfrwt beam="2">  1       -3 0.10892469E+00 0.22011429E+04</pdfrwt>
<totfact> 0.77759612E-02</totfact>
</mgrwt>
</event>
<event>
12    6  0.1553355E-007  0.1260113E+04  0.7818608E-02  0.9061808E-01
         -1   -1    0    0    0  501 -0.00000000000E+00  0.00000000000E+00  0.81769749587E+03  0.81769749587E+03  0.00000000000E+00 0.  1.
          2   -1    0    0  501    0  0.00000000000E+00 -0.00000000000E+00 -0.48547459550E+03  0.48547459550E+03  0.00000000000E+00 0. -1.
         24    2    1    2    0    0 -0.11976058458E+03 -0.36024123644E+02 -0.20705026364E+03  0.25382868954E+03  0.76934107268E+02 0.  0.
        254    2    1    2    0    0  0.11976058458E+03  0.36024123644E+02  0.53927316400E+03  0.10493434018E+04  0.89144023604E+03 0.  0.
         23    2    4    4    0    0 -0.32640982485E+03 -0.21468683441E+02 -0.13982920793E+01  0.34022957849E+03  0.93541075096E+02 0.  0.
         23    2    4    4    0    0  0.44617040943E+03  0.57492807085E+02  0.54067145608E+03  0.70911382333E+03  0.90240422762E+02 0.  0.
          4    1    3    3  502    0 -0.43115215781E+02 -0.14665339339E+02 -0.14771117598E+03  0.15457226633E+03  0.00000000000E+00 0. -1.
         -3    1    3    3    0  502 -0.76645368795E+02 -0.21358784305E+02 -0.59339087657E+02  0.99256423211E+02  0.00000000000E+00 0.  1.
         11    1    5    5    0    0 -0.72464145604E+01 -0.17138884617E+02  0.94141281356E+01  0.20853721454E+02  0.00000000000E+00 0.  1.
        -11    1    5    5    0    0 -0.31916341029E+03 -0.43297988232E+01 -0.10812420215E+02  0.31937585704E+03  0.00000000000E+00 0. -1.
          1    1    6    6  503    0  0.41791154487E+03  0.49986781067E+02  0.53250421775E+03  0.67875583205E+03  0.00000000000E+00 0. -1.
         -1    1    6    6    0  503  0.28258864557E+02  0.75060260180E+01  0.81672383297E+01  0.30357991280E+02  0.00000000000E+00 0.  1.
<mgrwt>
<rscale>  0 0.12601133E+04</rscale>
<asrwt>0</asrwt>
<pdfrwt beam="1">  1        2 0.74688399E-01 0.12601133E+04</pdfrwt>
<pdfrwt beam="2">  1       -1 0.12579961E+00 0.12601133E+04</pdfrwt>
<totfact> 0.39467091E+01</totfact>
</mgrwt>
</event>
<event>
12    6  0.1553355E-007  0.1350143E+04  0.7818608E-02  0.8990720E-01
         -1   -1    0    0    0  501 -0.00000000000E+00  0.00000000000E+00  0.16085618819E+03  0.16085618819E+03  0.00000000000E+00 0.  1.
          2   -1    0    0  501    0  0.00000000000E+00 -0.00000000000E+00 -0.28330992442E+04  0.28330992442E+04  0.00000000000E+00 0. -1.
         24    2    1    2    0    0 -0.15383541878E+03  0.53276221945E+02 -0.14518445189E+02  0.18170478812E+03  0.79386100049E+02 0.  0.
        254    2    1    2    0    0  0.15383541878E+03 -0.53276221945E+02 -0.26577246108E+04  0.28122506443E+04  0.90484799126E+03 0.  0.
         23    2    4    4    0    0 -0.26779939722E+03 -0.32102845961E+02 -0.20327616934E+04  0.20525646144E+04  0.90301076323E+02 0.  0.
         23    2    4    4    0    0  0.42163481600E+03 -0.21173375984E+02 -0.62496291743E+03  0.75968602984E+03  0.91213956470E+02 0.  0.
          4    1    3    3  502    0 -0.42653419354E+02  0.35621357414E+02 -0.37192441534E+02  0.66869073524E+02  0.00000000000E+00 0. -1.
         -3    1    3    3    0  502 -0.11118199942E+03  0.17654864531E+02  0.22673996345E+02  0.11483571460E+03  0.00000000000E+00 0.  1.
         11    1    5    5    0    0 -0.44453144679E+02  0.19759381351E+02 -0.21716502896E+03  0.22254699510E+03  0.00000000000E+00 0.  1.
        -11    1    5    5    0    0 -0.22334625255E+03 -0.51862227312E+02 -0.18155966644E+04  0.18300176193E+04  0.00000000000E+00 0. -1.
          3    1    6    6  503    0  0.32825113789E+03 -0.51075980361E+02 -0.45334581292E+03  0.56203201989E+03  0.00000000000E+00 0. -1.
         -3    1    6    6    0  503  0.93383678110E+02  0.29902604377E+02 -0.17161710451E+03  0.19765400995E+03  0.00000000000E+00 0.  1.
<mgrwt>
<rscale>  0 0.13501430E+04</rscale>
<asrwt>0</asrwt>
<pdfrwt beam="1">  1        2 0.43586140E+00 0.13501430E+04</pdfrwt>
<pdfrwt beam="2">  1       -1 0.24747107E-01 0.13501430E+04</pdfrwt>
<totfact> 0.35286288E+01</totfact>
</mgrwt>
</event>
<event>
12    6  0.1553355E-007  0.2775927E+04  0.7818608E-02  0.8310781E-01
         -1   -1    0    0    0  501 -0.00000000000E+00  0.00000000000E+00  0.80292784473E+03  0.80292784473E+03  0.00000000000E+00 0.  1.
          2   -1    0    0  501    0  0.00000000000E+00 -0.00000000000E+00 -0.23992724235E+04  0.23992724235E+04  0.00000000000E+00 0. -1.
         24    2    1    2    0    0 -0.79582130543E+03  0.59632366973E+03  0.14046953915E+03  0.10096074772E+04  0.10316054136E+03 0.  0.
        254    2    1    2    0    0  0.79582130543E+03 -0.59632366973E+03 -0.17368141179E+04  0.21925927911E+04  0.89554809920E+03 0.  0.
         23    2    4    4    0    0 -0.18471962527E+03 -0.10903809332E+03 -0.39253225881E+03  0.45664806505E+03  0.91843537383E+02 0.  0.
         23    2    4    4    0    0  0.98054093069E+03 -0.48728557640E+03 -0.13442818591E+04  0.17359447260E+04  0.86617696214E+02 0.  0.
          4    1    3    3  502    0 -0.84511504756E+02  0.53132635362E+02  0.45110473362E+02  0.10954554388E+03  0.00000000000E+00 0. -1.
         -3    1    3    3    0  502 -0.71130980067E+03  0.54319103436E+03  0.95359065790E+02  0.90006193330E+03  0.00000000000E+00 0.  1.
         11    1    5    5    0    0 -0.16536938641E+03 -0.91761032883E+02 -0.38608632642E+03  0.42991833244E+03  0.00000000000E+00 0. -1.
        -11    1    5    5    0    0 -0.19350238859E+02 -0.17277060438E+02 -0.64459323833E+01  0.26729732613E+02  0.00000000000E+00 0.  1.
          3    1    6    6  503    0  0.86100021596E+03 -0.40653195284E+03 -0.12007274966E+04  0.15324281783E+04  0.00000000000E+00 0. -1.
         -3    1    6    6    0  503  0.11954071473E+03 -0.80753623563E+02 -0.14355436257E+03  0.20351654775E+03  0.00000000000E+00 0.  1.
<mgrwt>
<rscale>  0 0.27759270E+04</rscale>
<asrwt>0</asrwt>
<pdfrwt beam="1">  1        2 0.36911883E+00 0.27759270E+04</pdfrwt>
<pdfrwt beam="2">  1       -1 0.12352736E+00 0.27759270E+04</pdfrwt>
<totfact> 0.22731803E+00</totfact>
</mgrwt>
</event>
<event>
12    6  0.1553355E-007  0.1610371E+04  0.7818608E-02  0.8814202E-01
         -3   -1    0    0    0  501 -0.00000000000E+00  0.00000000000E+00  0.77304796295E+03  0.77304796295E+03  0.00000000000E+00 0.  1.
          4   -1    0    0  501    0  0.00000000000E+00 -0.00000000000E+00 -0.83865913564E+03  0.83865913564E+03  0.00000000000E+00 0. -1.
         24    2    1    2    0    0 -0.54908984367E+03 -0.17264032709E+02 -0.27549132988E+02  0.55642163643E+03  0.83954627721E+02 0.  0.
        254    2    1    2    0    0  0.54908984367E+03  0.17264032709E+02 -0.38062039708E+02  0.10552854622E+04  0.90021163319E+03 0.  0.
         23    2    4    4    0    0  0.20030214042E+03  0.14118703864E+03  0.39772625466E+03  0.47609617979E+03  0.91796903169E+02 0.  0.
         23    2    4    4    0    0  0.34878770325E+03 -0.12392300593E+03 -0.43578829436E+03  0.57918928237E+03  0.92406785307E+02 0.  0.
          2    1    3    3  502    0 -0.52732393434E+03 -0.30163757830E+02 -0.36838171441E+02  0.52946901221E+03  0.00000000000E+00 0. -1.
         -1    1    3    3    0  502 -0.21765909326E+02  0.12899725121E+02  0.92890384531E+01  0.26952624220E+02  0.00000000000E+00 0.  1.
         11    1    5    5    0    0  0.73351345772E+01  0.37127400074E+02  0.31390095070E+02  0.49168954677E+02  0.00000000000E+00 0.  1.
        -11    1    5    5    0    0  0.19296700584E+03  0.10405963856E+03  0.36633615959E+03  0.42692722511E+03  0.00000000000E+00 0. -1.
          4    1    6    6  503    0  0.30477812639E+03 -0.92832434974E+02 -0.41059319371E+03  0.51970601115E+03  0.00000000000E+00 0. -1.
         -4    1    6    6    0  503  0.44009576861E+02 -0.31090570954E+02 -0.25195100657E+02  0.59483271218E+02  0.00000000000E+00 0.  1.
<mgrwt>
<rscale>  0 0.16103711E+04</rscale>
<asrwt>0</asrwt>
<pdfrwt beam="1">  1        4 0.12902448E+00 0.16103711E+04</pdfrwt>
<pdfrwt beam="2">  1       -3 0.11893046E+00 0.16103711E+04</pdfrwt>
<totfact> 0.55848905E-01</totfact>
</mgrwt>
</event>
<event>
12    6  0.1822056E-007  0.2613763E+04  0.7818608E-02  0.8363541E-01
         -1   -1    0    0    0  501 -0.00000000000E+00  0.00000000000E+00  0.11297343720E+04  0.11297343720E+04  0.00000000000E+00 0.  1.
          2   -1    0    0  501    0  0.00000000000E+00 -0.00000000000E+00 -0.15118059822E+04  0.15118059822E+04  0.00000000000E+00 0. -1.
         24    2    1    2    0    0 -0.22412375369E+03  0.30732765876E+03  0.92941380940E+03  0.10071540401E+04  0.76599508361E+02 0.  0.
        254    2    1    2    0    0  0.22412375369E+03 -0.30732765876E+03 -0.13114854196E+04  0.16343863141E+04  0.89807731906E+03 0.  0.
         23    2    4    4    0    0  0.98403817895E+02  0.31031250214E+03 -0.44896144115E+03  0.56212053651E+03  0.91847490849E+02 0.  0.
         23    2    4    4    0    0  0.12571993580E+03 -0.61764016090E+03 -0.86252397848E+03  0.10722657776E+04  0.92311503710E+02 0.  0.
          2    1    3    3  502    0 -0.10306525914E+02  0.12491874464E+02  0.12197867251E+02  0.20274599121E+02  0.00000000000E+00 0. -1.
         -1    1    3    3    0  502 -0.21381722778E+03  0.29483578430E+03  0.91721594215E+03  0.98687944103E+03  0.00000000000E+00 0.  1.
         11    1    5    5    0    0  0.10504496606E+03  0.31187606748E+03 -0.42686228240E+03  0.53899214697E+03  0.00000000000E+00 0. -1.
        -11    1    5    5    0    0 -0.66411481607E+01 -0.15635653447E+01 -0.22099158749E+02  0.23128389544E+02  0.00000000000E+00 0.  1.
          3    1    6    6  503    0  0.13800618152E+03 -0.59907567916E+03 -0.83198873000E+03  0.10344769801E+04  0.00000000000E+00 0. -1.
         -3    1    6    6    0  503 -0.12286245720E+02 -0.18564481739E+02 -0.30535248487E+02  0.37788797497E+02  0.00000000000E+00 0.  1.
<mgrwt>
<rscale>  0 0.26137629E+04</rscale>
<asrwt>0</asrwt>
<pdfrwt beam="1">  1        2 0.23258554E+00 0.26137629E+04</pdfrwt>
<pdfrwt beam="2">  1       -1 0.17380529E+00 0.26137629E+04</pdfrwt>
<totfact> 0.29029238E+00</totfact>
</mgrwt>
</event>
<event>
12    6  0.1553355E-007  0.2201726E+04  0.7818608E-02  0.8517710E-01
          2   -1    0    0  501    0  0.00000000000E+00  0.00000000000E+00  0.30193463272E+04  0.30193463272E+04  0.00000000000E+00 0. -1.
         -3   -1    0    0    0  501 -0.00000000000E+00 -0.00000000000E+00 -0.40137812262E+03  0.40137812262E+03  0.00000000000E+00 0.  1.
         24    2    1    2    0    0  0.75871361199E+03  0.41832070400E+03  0.63265135261E+03  0.10757807696E+04  0.80112258479E+02 0.  0.
        254    2    1    2    0    0 -0.75871361199E+03 -0.41832070400E+03  0.19853168520E+04  0.23449436802E+04  0.89813100607E+03 0.  0.
         23    2    4    4    0    0 -0.28879667252E+03 -0.64909527991E+03  0.10916095573E+04  0.13055740751E+04  0.90465680828E+02 0.  0.
         23    2    4    4    0    0 -0.46991693948E+03  0.23077457591E+03  0.89370729466E+03  0.10393696051E+04  0.86588755729E+02 0.  0.
          4    1    3    3  502    0  0.88662157408E+02  0.25609902581E+02  0.50779674063E+02  0.10533480225E+03  0.00000000000E+00 0. -1.
         -3    1    3    3    0  502  0.67005145458E+03  0.39271080142E+03  0.58187167854E+03  0.97044596740E+03  0.00000000000E+00 0.  1.
         11    1    5    5    0    0 -0.22811054056E+03 -0.40808288983E+03  0.70067176685E+03  0.84232237804E+03  0.00000000000E+00 0. -1.
        -11    1    5    5    0    0 -0.60686131954E+02 -0.24101239008E+03  0.39093779050E+03  0.46325169705E+03  0.00000000000E+00 0.  1.
          2    1    6    6  503    0 -0.38482859649E+03  0.15730969841E+03  0.65988521145E+03  0.77992812629E+03  0.00000000000E+00 0.  1.
         -2    1    6    6    0  503 -0.85088342985E+02  0.73464877501E+02  0.23382208320E+03  0.25944147882E+03  0.00000000000E+00 0. -1.
<mgrwt>
<rscale>  0 0.22017262E+04</rscale>
<asrwt>0</asrwt>
<pdfrwt beam="1">  1        2 0.46451481E+00 0.22017262E+04</pdfrwt>
<pdfrwt beam="2">  1       -3 0.61750482E-01 0.22017262E+04</pdfrwt>
<totfact> 0.25481158E+00</totfact>
</mgrwt>
</event>
<event>
12    6  0.1553355E-007  0.1723691E+04  0.7818608E-02  0.8747967E-01
          2   -1    0    0  501    0  0.00000000000E+00  0.00000000000E+00  0.10519178274E+04  0.10519178274E+04  0.00000000000E+00 0. -1.
         -3   -1    0    0    0  501 -0.00000000000E+00 -0.00000000000E+00 -0.70611775097E+03  0.70611775097E+03  0.00000000000E+00 0.  1.
         24    2    1    2    0    0  0.31209183295E+03  0.18981491262E+03  0.66123418540E+03  0.75976943055E+03  0.81166042196E+02 0.  0.
        254    2    1    2    0    0 -0.31209183295E+03 -0.18981491262E+03 -0.31543410893E+03  0.99826614786E+03  0.87384530189E+03 0.  0.
         23    2    4    4    0    0 -0.25635584497E+03 -0.30991286317E+03  0.19977274279E+03  0.45827142502E+03  0.91319484336E+02 0.  0.
         23    2    4    4    0    0 -0.55735987979E+02  0.12009795055E+03 -0.51520685171E+03  0.53999472284E+03  0.92877244561E+02 0.  0.
          4    1    3    3  502    0  0.30393782862E+03  0.19534896083E+03  0.62204699455E+03  0.71936213662E+03  0.00000000000E+00 0. -1.
         -3    1    3    3    0  502  0.81540043278E+01 -0.55340482158E+01  0.39187190846E+02  0.40407293929E+02  0.00000000000E+00 0.  1.
         11    1    5    5    0    0 -0.55475173964E+01 -0.62928908618E+01 -0.91969985694E+01  0.12448301384E+02  0.00000000000E+00 0.  1.
        -11    1    5    5    0    0 -0.25080832758E+03 -0.30361997231E+03  0.20896974136E+03  0.44582312363E+03  0.00000000000E+00 0. -1.
          4    1    6    6  503    0  0.19209127830E+02 -0.10109214950E+01 -0.66648948931E+02  0.69369265153E+02  0.00000000000E+00 0.  1.
         -4    1    6    6    0  503 -0.74945115809E+02  0.12110887205E+03 -0.44855790278E+03  0.47062545768E+03  0.00000000000E+00 0. -1.
<mgrwt>
<rscale>  0 0.17236912E+04</rscale>
<asrwt>0</asrwt>
<pdfrwt beam="1">  1        2 0.16183351E+00 0.17236912E+04</pdfrwt>
<pdfrwt beam="2">  1       -3 0.10863350E+00 0.17236912E+04</pdfrwt>
<totfact> 0.10094183E+01</totfact>
</mgrwt>
</event>
<event>
12    6  0.1553355E-007  0.1840326E+04  0.7818608E-02  0.8685144E-01
          2   -1    0    0  501    0  0.00000000000E+00  0.00000000000E+00  0.25760825192E+04  0.25760825192E+04  0.00000000000E+00 0. -1.
         -1   -1    0    0    0  501 -0.00000000000E+00 -0.00000000000E+00 -0.32867726881E+03  0.32867726881E+03  0.00000000000E+00 0.  1.
         24    2    1    2    0    0 -0.98605219959E+02  0.62890337942E+03  0.13074886477E+04  0.14576489332E+04  0.99856890311E+02 0.  0.
        254    2    1    2    0    0  0.98605219959E+02 -0.62890337942E+03  0.93991660261E+03  0.14471108547E+04  0.89746540656E+03 0.  0.
         23    2    4    4    0    0  0.22318176820E+03 -0.77423567940E+03  0.92880239939E+03  0.12331038659E+04  0.92845345362E+02 0.  0.
         23    2    4    4    0    0 -0.12457654824E+03  0.14533229998E+03  0.11114203225E+02  0.21400698880E+03  0.95050891384E+02 0.  0.
          2    1    3    3  502    0 -0.93964379577E+02  0.63012920462E+03  0.13050699601E+04  0.14522739824E+04  0.00000000000E+00 0. -1.
         -1    1    3    3    0  502 -0.46408403825E+01 -0.12258251967E+01  0.24186876541E+01  0.53749508684E+01  0.00000000000E+00 0.  1.
         11    1    5    5    0    0  0.22068073009E+03 -0.77669212749E+03  0.92302934377E+03  0.12263497931E+04  0.00000000000E+00 0.  1.
        -11    1    5    5    0    0  0.25010381145E+01  0.24564480904E+01  0.57730556184E+01  0.67540728486E+01  0.00000000000E+00 0. -1.
          3    1    6    6  503    0 -0.38618569022E+02  0.10656863313E+03 -0.19189393730E+02  0.11496303872E+03  0.00000000000E+00 0. -1.
         -3    1    6    6    0  503 -0.85957979220E+02  0.38763666855E+02  0.30303596955E+02  0.99043950083E+02  0.00000000000E+00 0.  1.
<mgrwt>
<rscale>  0 0.18403258E+04</rscale>
<asrwt>0</asrwt>
<pdfrwt beam="1">  1        2 0.39632037E+00 0.18403258E+04</pdfrwt>
<pdfrwt beam="2">  1       -1 0.50565735E-01 0.18403258E+04</pdfrwt>
<totfact> 0.13246903E+01</totfact>
</mgrwt>
</event>
<event>
12    6  0.1553355E-007  0.1169376E+04  0.7818608E-02  0.9140092E-01
         -1   -1    0    0    0  501 -0.00000000000E+00  0.00000000000E+00  0.16745331913E+03  0.16745331913E+03  0.00000000000E+00 0.  1.
          2   -1    0    0  501    0  0.00000000000E+00 -0.00000000000E+00 -0.20415248971E+04  0.20415248971E+04  0.00000000000E+00 0. -1.
         24    2    1    2    0    0 -0.71932734838E+02  0.91229709593E+02 -0.78219125577E+03  0.79476613518E+03  0.79579336369E+02 0.  0.
        254    2    1    2    0    0  0.71932734838E+02 -0.91229709593E+02 -0.10918803222E+04  0.14142120811E+04  0.89123285055E+03 0.  0.
         23    2    4    4    0    0  0.20480009682E+03 -0.44766163050E+03 -0.52436575741E+03  0.72501489433E+03  0.91340759677E+02 0.  0.
         23    2    4    4    0    0 -0.13286736198E+03  0.35643192091E+03 -0.56751456480E+03  0.68919718672E+03  0.90678171577E+02 0.  0.
          4    1    3    3  502    0 -0.55704828171E+02  0.10236073408E+03 -0.57814536281E+03  0.58977352289E+03  0.00000000000E+00 0. -1.
         -1    1    3    3    0  502 -0.16227906666E+02 -0.11131024488E+02 -0.20404589296E+03  0.20499261229E+03  0.00000000000E+00 0.  1.
         11    1    5    5    0    0  0.17230277576E+03 -0.32969003372E+03 -0.44102796075E+03  0.57696570698E+03  0.00000000000E+00 0. -1.
        -11    1    5    5    0    0  0.32497321063E+02 -0.11797159678E+03 -0.83337796661E+02  0.14804918735E+03  0.00000000000E+00 0.  1.
          3    1    6    6  503    0 -0.28347310578E+02  0.57361177041E+02 -0.45293977773E+02  0.78392723330E+02  0.00000000000E+00 0. -1.
         -3    1    6    6    0  503 -0.10452005140E+03  0.29907074387E+03 -0.52222058703E+03  0.61080446339E+03  0.00000000000E+00 0.  1.
<mgrwt>
<rscale>  0 0.11693761E+04</rscale>
<asrwt>0</asrwt>
<pdfrwt beam="1">  1        2 0.31408076E+00 0.11693761E+04</pdfrwt>
<pdfrwt beam="2">  1       -1 0.25762049E-01 0.11693761E+04</pdfrwt>
<totfact> 0.95078382E+01</totfact>
</mgrwt>
</event>
<event>
12    6  0.1553355E-007  0.1662941E+04  0.7818608E-02  0.8782788E-01
         -1   -1    0    0    0  501 -0.00000000000E+00  0.00000000000E+00  0.26417335138E+03  0.26417335138E+03  0.00000000000E+00 0.  1.
          2   -1    0    0  501    0  0.00000000000E+00 -0.00000000000E+00 -0.26170043784E+04  0.26170043784E+04  0.00000000000E+00 0. -1.
         24    2    1    2    0    0 -0.56635844262E+03  0.12274911813E+03 -0.94739743236E+03  0.11134731598E+04  0.80195705564E+02 0.  0.
        254    2    1    2    0    0  0.56635844262E+03 -0.12274911813E+03 -0.14054335947E+04  0.17677045700E+04  0.90205688637E+03 0.  0.
         23    2    4    4    0    0  0.50258352409E+03  0.28968525089E+03 -0.10847014616E+04  0.12335091176E+04  0.91976840183E+02 0.  0.
         23    2    4    4    0    0  0.63774918532E+02 -0.41243436902E+03 -0.32073213315E+03  0.53419545247E+03  0.91248732721E+02 0.  0.
          4    1    3    3  502    0 -0.55676969392E+03  0.11683857956E+03 -0.94313484598E+03  0.11014295635E+04  0.00000000000E+00 0. -1.
         -3    1    3    3    0  502 -0.95887487061E+01  0.59105385700E+01 -0.42625863822E+01  0.12043596249E+02  0.00000000000E+00 0.  1.
         11    1    5    5    0    0  0.99979549106E+01  0.12071356222E+02 -0.71645505751E+02  0.73339997530E+02  0.00000000000E+00 0.  1.
        -11    1    5    5    0    0  0.49258556918E+03  0.27761389467E+03 -0.10130559558E+04  0.11601691200E+04  0.00000000000E+00 0. -1.
          3    1    6    6  503    0  0.51158669455E+02 -0.40989472289E+03 -0.31730536520E+03  0.52087770935E+03  0.00000000000E+00 0. -1.
         -3    1    6    6    0  503  0.12616249077E+02 -0.25396461308E+01 -0.34267679467E+01  0.13317743119E+02  0.00000000000E+00 0.  1.
<mgrwt>
<rscale>  0 0.16629405E+04</rscale>
<asrwt>0</asrwt>
<pdfrwt beam="1">  1        2 0.40261605E+00 0.16629405E+04</pdfrwt>
<pdfrwt beam="2">  1       -1 0.40642055E-01 0.16629405E+04</pdfrwt>
<totfact> 0.19163794E+01</totfact>
</mgrwt>
</event>
<event>
12    6  0.1553355E-007  0.3809053E+04  0.7818608E-02  0.8044215E-01
         -1   -1    0    0    0  501 -0.00000000000E+00  0.00000000000E+00  0.12246622624E+04  0.12246622624E+04  0.00000000000E+00 0.  1.
          2   -1    0    0  501    0  0.00000000000E+00 -0.00000000000E+00 -0.29618139760E+04  0.29618139760E+04  0.00000000000E+00 0. -1.
         24    2    1    2    0    0 -0.11044831689E+04 -0.17065990314E+03  0.72582153997E+03  0.13344536469E+04  0.70297616512E+02 0.  0.
        254    2    1    2    0    0  0.11044831689E+04  0.17065990314E+03 -0.24629732536E+04  0.28520225915E+04  0.90486890841E+03 0.  0.
         23    2    4    4    0    0  0.69249446332E+03  0.52196561472E+03 -0.12878479840E+04  0.15551259091E+04  0.88698807299E+02 0.  0.
         23    2    4    4    0    0  0.41198870560E+03 -0.35130571158E+03 -0.11751252696E+04  0.12968966824E+04  0.88719835021E+02 0.  0.
          2    1    3    3  502    0 -0.28587932373E+03 -0.73963606599E+02  0.20292772979E+03  0.35829773423E+03  0.00000000000E+00 0. -1.
         -1    1    3    3    0  502 -0.81860384519E+03 -0.96696296540E+02  0.52289381019E+03  0.97615591268E+03  0.00000000000E+00 0.  1.
         11    1    5    5    0    0  0.50871150599E+03  0.42837135096E+03 -0.10029762001E+04  0.12034328684E+04  0.00000000000E+00 0. -1.
        -11    1    5    5    0    0  0.18378295733E+03  0.93594263762E+02 -0.28487178386E+03  0.35169304067E+03  0.00000000000E+00 0.  1.
          2    1    6    6  503    0  0.19433000605E+03 -0.20412063863E+03 -0.68663256191E+03  0.74222211059E+03  0.00000000000E+00 0.  1.
         -2    1    6    6    0  503  0.21765869955E+03 -0.14718507296E+03 -0.48849270765E+03  0.55467457182E+03  0.00000000000E+00 0. -1.
<mgrwt>
<rscale>  0 0.38090533E+04</rscale>
<asrwt>0</asrwt>
<pdfrwt beam="1">  1        2 0.45566369E+00 0.38090533E+04</pdfrwt>
<pdfrwt beam="2">  1       -1 0.18840958E+00 0.38090533E+04</pdfrwt>
<totfact> 0.30330333E-01</totfact>
</mgrwt>
</event>
<event>
12    6  0.1553355E-007  0.2428485E+04  0.7818608E-02  0.8428916E-01
          2   -1    0    0  501    0  0.00000000000E+00  0.00000000000E+00  0.15427903535E+04  0.15427903535E+04  0.00000000000E+00 0. -1.
         -1   -1    0    0    0  501 -0.00000000000E+00 -0.00000000000E+00 -0.95566090602E+03  0.95566090602E+03  0.00000000000E+00 0.  1.
         24    2    1    2    0    0 -0.41306422370E+03  0.59536673654E+03 -0.52220304636E+03  0.89674309914E+03  0.79803260249E+02 0.  0.
        254    2    1    2    0    0  0.41306422370E+03 -0.59536673654E+03  0.11093324939E+04  0.16017081604E+04  0.89987046027E+03 0.  0.
         23    2    4    4    0    0  0.65546285741E+03 -0.35942271804E+03  0.51490848740E+03  0.91223560996E+03  0.90701764058E+02 0.  0.
         23    2    4    4    0    0 -0.24239863371E+03 -0.23594401850E+03  0.59442400645E+03  0.68947255043E+03  0.87211357354E+02 0.  0.
          4    1    3    3  502    0 -0.40387707207E+03  0.57666591305E+03 -0.52105490156E+03  0.87587583313E+03  0.00000000000E+00 0. -1.
         -3    1    3    3    0  502 -0.91871516293E+01  0.18700823491E+02 -0.11481447998E+01  0.20867266011E+02  0.00000000000E+00 0.  1.
         11    1    5    5    0    0  0.14243890280E+02 -0.27517714033E+02  0.22134136865E+02  0.38079298978E+02  0.00000000000E+00 0.  1.
        -11    1    5    5    0    0  0.64121896713E+03 -0.33190500400E+03  0.49277435053E+03  0.87415631099E+03  0.00000000000E+00 0. -1.
          1    1    6    6  503    0 -0.19125692726E+03 -0.18033514363E+03  0.37944196963E+03  0.46160175971E+03  0.00000000000E+00 0. -1.
         -1    1    6    6    0  503 -0.51141706448E+02 -0.55608874870E+02  0.21498203682E+03  0.22787079071E+03  0.00000000000E+00 0.  1.
<mgrwt>
<rscale>  0 0.24284847E+04</rscale>
<asrwt>0</asrwt>
<pdfrwt beam="1">  1        2 0.23735236E+00 0.24284847E+04</pdfrwt>
<pdfrwt beam="2">  1       -1 0.14702475E+00 0.24284847E+04</pdfrwt>
<totfact> 0.45177835E+00</totfact>
</mgrwt>
</event>
<event>
12    6  0.1553355E-007  0.2286806E+04  0.7818608E-02  0.8483142E-01
          2   -1    0    0  501    0  0.00000000000E+00  0.00000000000E+00  0.23686407896E+04  0.23686407896E+04  0.00000000000E+00 0. -1.
         -1   -1    0    0    0  501 -0.00000000000E+00 -0.00000000000E+00 -0.55194956557E+03  0.55194956557E+03  0.00000000000E+00 0.  1.
         24    2    1    2    0    0  0.14807005367E+03  0.39889811247E+03  0.18556757502E+04  0.19055358580E+04  0.80560358749E+02 0.  0.
        254    2    1    2    0    0 -0.14807005367E+03 -0.39889811247E+03 -0.38984526128E+02  0.10150544972E+04  0.92074502119E+03 0.  0.
         23    2    4    4    0    0 -0.48461614958E+03 -0.31588897088E+03  0.15891912683E+03  0.60574855147E+03  0.83889000352E+02 0.  0.
         23    2    4    4    0    0  0.33654609591E+03 -0.83009141587E+02 -0.19790365296E+03  0.40930594572E+03  0.90618480928E+02 0.  0.
          2    1    3    3  502    0  0.10342042381E+03  0.18781344904E+03  0.10348878108E+04  0.10568644457E+04  0.00000000000E+00 0. -1.
         -1    1    3    3    0  502  0.44649629858E+02  0.21108466343E+03  0.82078793945E+03  0.84867141234E+03  0.00000000000E+00 0.  1.
         11    1    5    5    0    0 -0.17846613282E+03 -0.16562763155E+03  0.68202423914E+02  0.25285221677E+03  0.00000000000E+00 0. -1.
        -11    1    5    5    0    0 -0.30615001676E+03 -0.15026133933E+03  0.90716702918E+02  0.35289633470E+03  0.00000000000E+00 0.  1.
          2    1    6    6  503    0  0.20630484898E+03 -0.73620140101E+01 -0.97586859232E+02  0.22833984553E+03  0.00000000000E+00 0. -1.
         -2    1    6    6    0  503  0.13024124693E+03 -0.75647127576E+02 -0.10031679373E+03  0.18096610018E+03  0.00000000000E+00 0.  1.
<mgrwt>
<rscale>  0 0.22868059E+04</rscale>
<asrwt>0</asrwt>
<pdfrwt beam="1">  1        2 0.36440627E+00 0.22868059E+04</pdfrwt>
<pdfrwt beam="2">  1       -1 0.84915319E-01 0.22868059E+04</pdfrwt>
<totfact> 0.58701565E+00</totfact>
</mgrwt>
</event>
<event>
12    6  0.1553355E-007  0.2220793E+04  0.7818608E-02  0.8509823E-01
          2   -1    0    0  501    0  0.00000000000E+00  0.00000000000E+00  0.16767819109E+04  0.16767819109E+04  0.00000000000E+00 0. -1.
         -1   -1    0    0    0  501 -0.00000000000E+00 -0.00000000000E+00 -0.73532518790E+03  0.73532518790E+03  0.00000000000E+00 0.  1.
         24    2    1    2    0    0 -0.92371610588E+03 -0.49141710132E+02  0.33638105731E+03  0.98808280714E+03  0.86539390492E+02 0.  0.
        254    2    1    2    0    0  0.92371610588E+03  0.49141710132E+02  0.60507566573E+03  0.14240242917E+04  0.89780970712E+03 0.  0.
         23    2    4    4    0    0 -0.46785034415E+02 -0.28082016044E+02 -0.15269788650E+03  0.18697460462E+03  0.93088233195E+02 0.  0.
         23    2    4    4    0    0  0.97050114029E+03  0.77223726176E+02  0.75777355223E+03  0.12370496871E+04  0.90748028596E+02 0.  0.
          2    1    3    3  502    0 -0.65674771330E+02 -0.34746046476E+01  0.49104028936E+02  0.82075904652E+02  0.00000000000E+00 0. -1.
         -1    1    3    3    0  502 -0.85804133455E+03 -0.45667105484E+02  0.28727702838E+03  0.90600690249E+03  0.00000000000E+00 0.  1.
         11    1    5    5    0    0  0.20114342822E+02 -0.33590320504E+02 -0.72460099560E+02  0.82361170748E+02  0.00000000000E+00 0. -1.
        -11    1    5    5    0    0 -0.66899377236E+02  0.55083044595E+01 -0.80237786941E+02  0.10461343387E+03  0.00000000000E+00 0.  1.
          1    1    6    6  503    0  0.37780710296E+03  0.72226581782E+02  0.28048530094E+03  0.47605345309E+03  0.00000000000E+00 0. -1.
         -1    1    6    6    0  503  0.59269403734E+03  0.49971443942E+01  0.47728825129E+03  0.76099623400E+03  0.00000000000E+00 0.  1.
<mgrwt>
<rscale>  0 0.22207926E+04</rscale>
<asrwt>0</asrwt>
<pdfrwt beam="1">  1        2 0.25796645E+00 0.22207926E+04</pdfrwt>
<pdfrwt beam="2">  1       -1 0.11312695E+00 0.22207926E+04</pdfrwt>
<totfact> 0.74954292E+00</totfact>
</mgrwt>
</event>
<event>
12    6  0.1553355E-007  0.1813197E+04  0.7818608E-02  0.8699313E-01
         -1   -1    0    0    0  501 -0.00000000000E+00  0.00000000000E+00  0.27202497575E+03  0.27202497575E+03  0.00000000000E+00 0.  1.
          2   -1    0    0  501    0  0.00000000000E+00 -0.00000000000E+00 -0.30214891325E+04  0.30214891325E+04  0.00000000000E+00 0. -1.
         24    2    1    2    0    0 -0.63274377595E+03 -0.81978696299E+02 -0.61631362395E+03  0.89021909116E+03  0.74581194283E+02 0.  0.
        254    2    1    2    0    0  0.63274377595E+03  0.81978696299E+02 -0.21331505328E+04  0.24032950171E+04  0.90466046170E+03 0.  0.
         23    2    4    4    0    0  0.64156051030E+03 -0.73977545439E+02 -0.69234785716E+03  0.95120138045E+03  0.91465541312E+02 0.  0.
         23    2    4    4    0    0 -0.88167343485E+01  0.15595624174E+03 -0.14408026756E+04  0.14520936367E+04  0.90903769505E+02 0.  0.
          4    1    3    3  502    0 -0.50651490155E+02 -0.26240058139E+02 -0.65987637708E+02  0.87226615412E+02  0.00000000000E+00 0. -1.
         -3    1    3    3    0  502 -0.58209228580E+03 -0.55738638160E+02 -0.55032598624E+03  0.80299247575E+03  0.00000000000E+00 0.  1.
         11    1    5    5    0    0  0.39248961405E+03 -0.87041237303E+02 -0.40391778315E+03  0.56988933107E+03  0.00000000000E+00 0.  1.
        -11    1    5    5    0    0  0.24907089625E+03  0.13063691864E+02 -0.28843007401E+03  0.38131204937E+03  0.00000000000E+00 0. -1.
          3    1    6    6  503    0 -0.21907647378E+01  0.16036748236E+03 -0.14282710619E+04  0.14372476318E+04  0.00000000000E+00 0. -1.
         -3    1    6    6    0  503 -0.66259696106E+01 -0.44112406266E+01 -0.12531613784E+02  0.14846004890E+02  0.00000000000E+00 0.  1.
<mgrwt>
<rscale>  0 0.18131966E+04</rscale>
<asrwt>0</asrwt>
<pdfrwt beam="1">  1        2 0.46484444E+00 0.18131966E+04</pdfrwt>
<pdfrwt beam="2">  1       -1 0.41850000E-01 0.18131966E+04</pdfrwt>
<totfact> 0.10196053E+01</totfact>
</mgrwt>
</event>
<event>
12    6  0.1553355E-007  0.2016442E+04  0.7818608E-02  0.8598972E-01
          2   -1    0    0  501    0  0.00000000000E+00  0.00000000000E+00  0.76954382115E+03  0.76954382115E+03  0.00000000000E+00 0. -1.
         -1   -1    0    0    0  501 -0.00000000000E+00 -0.00000000000E+00 -0.13209245086E+04  0.13209245086E+04  0.00000000000E+00 0.  1.
         24    2    1    2    0    0 -0.56595765289E+03  0.27098791735E+03 -0.74731988947E+03  0.97904440126E+03  0.79362498886E+02 0.  0.
        254    2    1    2    0    0  0.56595765289E+03 -0.27098791735E+03  0.19593920200E+03  0.11114239285E+04  0.89617434787E+03 0.  0.
         23    2    4    4    0    0  0.62843207177E+03  0.82150125086E+02 -0.84973721394E+02  0.64557086364E+03  0.88688752255E+02 0.  0.
         23    2    4    4    0    0 -0.62474418882E+02 -0.35313804243E+03  0.28091292340E+03  0.46585306487E+03  0.97455002385E+02 0.  0.
          2    1    3    3  502    0 -0.89173539172E+02  0.12634608424E+02 -0.99309244296E+02  0.13406669766E+03  0.00000000000E+00 0. -1.
         -1    1    3    3    0  502 -0.47678411372E+03  0.25835330893E+03 -0.64801064517E+03  0.84497770360E+03  0.00000000000E+00 0.  1.
         11    1    5    5    0    0  0.60959104353E+03  0.70682021731E+02 -0.67392592122E+02  0.61736451956E+03  0.00000000000E+00 0. -1.
        -11    1    5    5    0    0  0.18841028244E+02  0.11468103355E+02 -0.17581129272E+02  0.28206344080E+02  0.00000000000E+00 0.  1.
          4    1    6    6  503    0 -0.61102781533E+02 -0.34588784809E+03  0.24270677185E+03  0.42694089810E+03  0.00000000000E+00 0. -1.
         -4    1    6    6    0  503 -0.13716373489E+01 -0.72501943478E+01  0.38206151549E+02  0.38912166777E+02  0.00000000000E+00 0.  1.
<mgrwt>
<rscale>  0 0.20164417E+04</rscale>
<asrwt>0</asrwt>
<pdfrwt beam="1">  1        2 0.11839136E+00 0.20164417E+04</pdfrwt>
<pdfrwt beam="2">  1       -1 0.20321916E+00 0.20164417E+04</pdfrwt>
<totfact> 0.54910387E+00</totfact>
</mgrwt>
</event>
<event>
12    6  0.2266366E-007  0.1994943E+04  0.7818608E-02  0.8608989E-01
         -1   -1    0    0    0  501 -0.00000000000E+00  0.00000000000E+00  0.24539139579E+03  0.24539139579E+03  0.00000000000E+00 0.  1.
          2   -1    0    0  501    0  0.00000000000E+00 -0.00000000000E+00 -0.40545389395E+04  0.40545389395E+04  0.00000000000E+00 0. -1.
         24    2    1    2    0    0  0.82218802386E+02  0.59212418377E+02  0.17368148027E+03  0.21375935498E+03  0.72538012769E+02 0.  0.
        254    2    1    2    0    0 -0.82218802386E+02 -0.59212418377E+02 -0.39828290239E+04  0.40861709803E+04  0.90752421683E+03 0.  0.
         23    2    4    4    0    0  0.31763356967E+03 -0.24477903691E+03 -0.12305463306E+04  0.12972203442E+04  0.87911820574E+02 0.  0.
         23    2    4    4    0    0 -0.39985237206E+03  0.18556661853E+03 -0.27522826933E+04  0.27889506361E+04  0.94173971750E+02 0.  0.
          4    1    3    3  502    0 -0.90208727987E+01 -0.67522195435E+01  0.23496714484E+02  0.26058860420E+02  0.00000000000E+00 0. -1.
         -3    1    3    3    0  502  0.91239675184E+02  0.65964637921E+02  0.15018476579E+03  0.18770049456E+03  0.00000000000E+00 0.  1.
         11    1    5    5    0    0  0.25417340929E+01 -0.27089092469E+01  0.39698843409E+00  0.37357999577E+01  0.00000000000E+00 0. -1.
        -11    1    5    5    0    0  0.31509183558E+03 -0.24207012766E+03 -0.12309433190E+04  0.12934845443E+04  0.00000000000E+00 0.  1.
          2    1    6    6  503    0 -0.36617456423E+01  0.18119965579E+02 -0.18091209678E+03  0.18185414017E+03  0.00000000000E+00 0. -1.
         -2    1    6    6    0  503 -0.39619062642E+03  0.16744665295E+03 -0.25713705966E+04  0.26070964959E+04  0.00000000000E+00 0.  1.
<mgrwt>
<rscale>  0 0.19949426E+04</rscale>
<asrwt>0</asrwt>
<pdfrwt beam="1">  1        2 0.62377520E+00 0.19949426E+04</pdfrwt>
<pdfrwt beam="2">  1       -1 0.37752523E-01 0.19949426E+04</pdfrwt>
<totfact> 0.22356908E+00</totfact>
</mgrwt>
</event>
<event>
12    6  0.1553355E-007  0.2671217E+04  0.7818608E-02  0.8344405E-01
          2   -1    0    0  501    0  0.00000000000E+00  0.00000000000E+00  0.24121602964E+04  0.24121602964E+04  0.00000000000E+00 0. -1.
         -1   -1    0    0    0  501 -0.00000000000E+00 -0.00000000000E+00 -0.73952383988E+03  0.73952383988E+03  0.00000000000E+00 0.  1.
         24    2    1    2    0    0  0.68573725340E+03  0.88311461554E+03  0.11976631234E+04  0.16405746045E+04  0.83433031727E+02 0.  0.
        254    2    1    2    0    0 -0.68573725340E+03 -0.88311461554E+03  0.47497333314E+03  0.15111095318E+04  0.89873541441E+03 0.  0.
         23    2    4    4    0    0 -0.10989755347E+02 -0.41823204980E+02 -0.20855422404E+03  0.23086412196E+03  0.89069766161E+02 0.  0.
         23    2    4    4    0    0 -0.67474749805E+03 -0.84129141056E+03  0.68352755719E+03  0.12802454099E+04  0.93610706999E+02 0.  0.
          2    1    3    3  502    0  0.55798162146E+03  0.67001018849E+03  0.90572229974E+03  0.12572151872E+04  0.00000000000E+00 0. -1.
         -1    1    3    3    0  502  0.12775563193E+03  0.21310442704E+03  0.29194082366E+03  0.38335941730E+03  0.00000000000E+00 0.  1.
         11    1    5    5    0    0 -0.24428033861E+02  0.20722444376E+02 -0.98376274850E+02  0.10346033053E+03  0.00000000000E+00 0. -1.
        -11    1    5    5    0    0  0.13438278514E+02 -0.62545649357E+02 -0.11017794919E+03  0.12740379143E+03  0.00000000000E+00 0.  1.
          3    1    6    6  503    0 -0.57807458921E+03 -0.68557244329E+03  0.59893110491E+03  0.10783776120E+04  0.00000000000E+00 0. -1.
         -3    1    6    6    0  503 -0.96672908842E+02 -0.15571896726E+03  0.84596452280E+02  0.20186779785E+03  0.00000000000E+00 0.  1.
<mgrwt>
<rscale>  0 0.26712170E+04</rscale>
<asrwt>0</asrwt>
<pdfrwt beam="1">  1        2 0.37110158E+00 0.26712170E+04</pdfrwt>
<pdfrwt beam="2">  1       -1 0.11377290E+00 0.26712170E+04</pdfrwt>
<totfact> 0.27545718E+00</totfact>
</mgrwt>
</event>
<event>
12    6  0.1553355E-007  0.2302707E+04  0.7818608E-02  0.8476855E-01
         -1   -1    0    0    0  501 -0.00000000000E+00  0.00000000000E+00  0.72291475205E+03  0.72291475205E+03  0.00000000000E+00 0.  1.
          2   -1    0    0  501    0  0.00000000000E+00 -0.00000000000E+00 -0.18337078085E+04  0.18337078085E+04  0.00000000000E+00 0. -1.
         24    2    1    2    0    0  0.32157580750E+03 -0.82718970029E+03 -0.91632350916E+03  0.12783071731E+04  0.82259680554E+02 0.  0.
        254    2    1    2    0    0 -0.32157580750E+03  0.82718970029E+03 -0.19446954732E+03  0.12783153875E+04  0.89923190829E+03 0.  0.
         23    2    4    4    0    0 -0.72847691885E+02 -0.86259938372E+02 -0.28872621571E+03  0.32248696546E+03  0.88811328496E+02 0.  0.
         23    2    4    4    0    0 -0.24872811562E+03  0.91344963866E+03  0.94256668397E+02  0.95582842205E+03  0.92020296675E+02 0.  0.
          4    1    3    3  502    0  0.25474863357E+03 -0.68387856386E+03 -0.79363126528E+03  0.10781638751E+04  0.00000000000E+00 0. -1.
         -3    1    3    3    0  502  0.66827173928E+02 -0.14331113643E+03 -0.12269224388E+03  0.20014329794E+03  0.00000000000E+00 0.  1.
         11    1    5    5    0    0 -0.70047347661E+02 -0.28983571495E+02 -0.22156581722E+03  0.23417533963E+03  0.00000000000E+00 0. -1.
        -11    1    5    5    0    0 -0.28003442244E+01 -0.57276366877E+02 -0.67160398493E+02  0.88311625827E+02  0.00000000000E+00 0.  1.
          3    1    6    6  503    0 -0.20189886458E+03  0.83759293258E+03  0.93860468983E+02  0.86668036777E+03  0.00000000000E+00 0. -1.
         -3    1    6    6    0  503 -0.46829251033E+02  0.75856706078E+02  0.39619941389E+00  0.89148054288E+02  0.00000000000E+00 0.  1.
<mgrwt>
<rscale>  0 0.23027066E+04</rscale>
<asrwt>0</asrwt>
<pdfrwt beam="1">  1        2 0.28210889E+00 0.23027066E+04</pdfrwt>
<pdfrwt beam="2">  1       -1 0.11121765E+00 0.23027066E+04</pdfrwt>
<totfact> 0.63405195E+00</totfact>
</mgrwt>
</event>
<event>
12    6  0.1553355E-007  0.2215338E+04  0.7818608E-02  0.8512071E-01
          4   -1    0    0  501    0  0.00000000000E+00  0.00000000000E+00  0.16741852448E+04  0.16741852448E+04  0.00000000000E+00 0. -1.
         -1   -1    0    0    0  501 -0.00000000000E+00 -0.00000000000E+00 -0.73285210181E+03  0.73285210181E+03  0.00000000000E+00 0.  1.
         24    2    1    2    0    0  0.56360003038E+03  0.16072235949E+03 -0.37499456137E+03  0.70074399499E+03  0.83333992973E+02 0.  0.
        254    2    1    2    0    0 -0.56360003038E+03 -0.16072235949E+03  0.13163277044E+04  0.17062933516E+04  0.91391558988E+03 0.  0.
         23    2    4    4    0    0  0.43112732546E+02 -0.40085210836E+03  0.64171718640E+03  0.76325712200E+03  0.90660721896E+02 0.  0.
         23    2    4    4    0    0 -0.60671276292E+03  0.24012974886E+03  0.67461051797E+03  0.94303622962E+03  0.91952740220E+02 0.  0.
          2    1    3    3  502    0  0.41176227956E+03  0.12460882872E+03 -0.23055099714E+03  0.48808738700E+03  0.00000000000E+00 0. -1.
         -3    1    3    3    0  502  0.15183775081E+03  0.36113530776E+02 -0.14444356423E+03  0.21265660800E+03  0.00000000000E+00 0.  1.
         11    1    5    5    0    0  0.48365247258E+02 -0.95785801152E+02  0.18862331664E+03  0.21700892245E+03  0.00000000000E+00 0.  1.
        -11    1    5    5    0    0 -0.52525147118E+01 -0.30506630720E+03  0.45309386976E+03  0.54624819955E+03  0.00000000000E+00 0. -1.
          4    1    6    6  503    0 -0.42124441226E+02  0.15757167001E+02  0.86392844958E+02  0.97398565289E+02  0.00000000000E+00 0.  1.
         -4    1    6    6    0  503 -0.56458832170E+03  0.22437258186E+03  0.58821767302E+03  0.84563766433E+03  0.00000000000E+00 0. -1.
<mgrwt>
<rscale>  0 0.22153376E+04</rscale>
<asrwt>0</asrwt>
<pdfrwt beam="1">  1        4 0.25756696E+00 0.22153376E+04</pdfrwt>
<pdfrwt beam="2">  1       -1 0.11274648E+00 0.22153376E+04</pdfrwt>
<totfact> 0.15191836E-01</totfact>
</mgrwt>
</event>
<event>
12    6  0.1553355E-007  0.1159348E+04  0.7818608E-02  0.9149203E-01
          2   -1    0    0  501    0  0.00000000000E+00  0.00000000000E+00  0.13348380454E+04  0.13348380454E+04  0.00000000000E+00 0. -1.
         -1   -1    0    0    0  501 -0.00000000000E+00 -0.00000000000E+00 -0.25173230204E+03  0.25173230204E+03  0.00000000000E+00 0.  1.
         24    2    1    2    0    0  0.12189813338E+02 -0.17743701364E+03  0.43044346082E+02  0.20056557835E+03  0.82105116357E+02 0.  0.
        254    2    1    2    0    0 -0.12189813338E+02  0.17743701364E+03  0.10400613973E+04  0.13860047691E+04  0.89869295339E+03 0.  0.
         23    2    4    4    0    0  0.38971103300E+03 -0.57067595964E+02  0.68055644500E+03  0.79115178719E+03  0.87365186382E+02 0.  0.
         23    2    4    4    0    0 -0.40190084634E+03  0.23450460960E+03  0.35950495227E+03  0.59485298189E+03  0.89941965435E+02 0.  0.
          4    1    3    3  502    0 -0.18255083725E+00 -0.14846934844E+03  0.65097514931E+02  0.16211374773E+03  0.00000000000E+00 0. -1.
         -3    1    3    3    0  502  0.12372364175E+02 -0.28967665198E+02 -0.22053168849E+02  0.38451830628E+02  0.00000000000E+00 0.  1.
         11    1    5    5    0    0  0.16850747667E+03  0.50991196316E+01  0.35118781455E+03  0.38955571078E+03  0.00000000000E+00 0. -1.
        -11    1    5    5    0    0  0.22120355633E+03 -0.62166715596E+02  0.32936863045E+03  0.40159607641E+03  0.00000000000E+00 0.  1.
          1    1    6    6  503    0 -0.48076630021E+02  0.66675889000E+02  0.67404749807E+02  0.10630351276E+03  0.00000000000E+00 0.  1.
         -1    1    6    6    0  503 -0.35382421632E+03  0.16782872060E+03  0.29210020246E+03  0.48854946914E+03  0.00000000000E+00 0. -1.
<mgrwt>
<rscale>  0 0.11593478E+04</rscale>
<asrwt>0</asrwt>
<pdfrwt beam="1">  1        2 0.20535970E+00 0.11593478E+04</pdfrwt>
<pdfrwt beam="2">  1       -1 0.38728047E-01 0.11593478E+04</pdfrwt>
<totfact> 0.11486339E+02</totfact>
</mgrwt>
</event>
<event>
12    6  0.1553355E-007  0.1847270E+04  0.7818608E-02  0.8681558E-01
         -1   -1    0    0    0  501 -0.00000000000E+00  0.00000000000E+00  0.81197563729E+03  0.81197563729E+03  0.00000000000E+00 0.  1.
          2   -1    0    0  501    0  0.00000000000E+00 -0.00000000000E+00 -0.10506490480E+04  0.10506490480E+04  0.00000000000E+00 0. -1.
         24    2    1    2    0    0  0.44185284815E+03 -0.43654352488E+03  0.23830384616E+03  0.66961828041E+03  0.76129690905E+02 0.  0.
        254    2    1    2    0    0 -0.44185284815E+03  0.43654352488E+03 -0.47697725687E+03  0.11930064049E+04  0.89997377184E+03 0.  0.
         23    2    4    4    0    0  0.22493968046E+03  0.67811333035E+01  0.33687729446E+02  0.24507968877E+03  0.91023882127E+02 0.  0.
         23    2    4    4    0    0 -0.66679252860E+03  0.42976239158E+03 -0.51066498632E+03  0.94792671612E+03  0.92077909771E+02 0.  0.
          4    1    3    3  502    0  0.10859117143E+03 -0.13529447203E+03  0.96580270016E+02  0.19855574842E+03  0.00000000000E+00 0. -1.
         -3    1    3    3    0  502  0.33326167672E+03 -0.30124905285E+03  0.14172357615E+03  0.47106253200E+03  0.00000000000E+00 0.  1.
         11    1    5    5    0    0  0.93308029107E+01  0.13030164576E+02  0.24384591319E+02  0.29179742384E+02  0.00000000000E+00 0. -1.
        -11    1    5    5    0    0  0.21560887755E+03 -0.62490312729E+01  0.93031381272E+01  0.21589994638E+03  0.00000000000E+00 0.  1.
          4    1    6    6  503    0 -0.27501223351E+03  0.12563067189E+03 -0.18095788696E+03  0.35236423081E+03  0.00000000000E+00 0. -1.
         -4    1    6    6    0  503 -0.39178029509E+03  0.30413171969E+03 -0.32970709936E+03  0.59556248531E+03  0.00000000000E+00 0.  1.
<mgrwt>
<rscale>  0 0.18472698E+04</rscale>
<asrwt>0</asrwt>
<pdfrwt beam="1">  1        2 0.16163831E+00 0.18472698E+04</pdfrwt>
<pdfrwt beam="2">  1       -1 0.12491933E+00 0.18472698E+04</pdfrwt>
<totfact> 0.14064961E+01</totfact>
</mgrwt>
</event>
<event>
12    6  0.1553355E-007  0.1467512E+04  0.7818608E-02  0.8906349E-01
          2   -1    0    0  501    0  0.00000000000E+00  0.00000000000E+00  0.17038447669E+04  0.17038447669E+04  0.00000000000E+00 0. -1.
         -1   -1    0    0    0  501 -0.00000000000E+00 -0.00000000000E+00 -0.31599011406E+03  0.31599011406E+03  0.00000000000E+00 0.  1.
         24    2    1    2    0    0 -0.34274926050E+03 -0.53434079496E+02  0.85040769818E+03  0.92244214529E+03  0.85872008519E+02 0.  0.
        254    2    1    2    0    0  0.34274926050E+03  0.53434079496E+02  0.53744695465E+03  0.10973927357E+04  0.89167781783E+03 0.  0.
         23    2    4    4    0    0  0.47138347916E+03 -0.17280708190E+03  0.20087247425E+02  0.51119932401E+03  0.94109401092E+02 0.  0.
         23    2    4    4    0    0 -0.12863421866E+03  0.22624116140E+03  0.51735970723E+03  0.58619341166E+03  0.90718376799E+02 0.  0.
          2    1    3    3  502    0 -0.28800015590E+03 -0.51040814901E+02  0.61885751890E+03  0.68449534935E+03  0.00000000000E+00 0. -1.
         -1    1    3    3    0  502 -0.54749104599E+02 -0.23932645948E+01  0.23155017928E+03  0.23794679593E+03  0.00000000000E+00 0.  1.
         11    1    5    5    0    0  0.37844455732E+03 -0.10871673754E+03  0.42709885538E+02  0.39606028115E+03  0.00000000000E+00 0. -1.
        -11    1    5    5    0    0  0.92938921843E+02 -0.64090344361E+02 -0.22622638113E+02  0.11513904285E+03  0.00000000000E+00 0.  1.
          2    1    6    6  503    0 -0.49011787831E+02  0.81171369993E+02  0.10294318861E+03  0.13995801776E+03  0.00000000000E+00 0. -1.
         -2    1    6    6    0  503 -0.79622430832E+02  0.14506979140E+03  0.41441651862E+03  0.44623539390E+03  0.00000000000E+00 0.  1.
<mgrwt>
<rscale>  0 0.14675123E+04</rscale>
<asrwt>0</asrwt>
<pdfrwt beam="1">  1        2 0.26212996E+00 0.14675123E+04</pdfrwt>
<pdfrwt beam="2">  1       -1 0.48613865E-01 0.14675123E+04</pdfrwt>
<totfact> 0.45592410E+01</totfact>
</mgrwt>
</event>
<event>
12    6  0.1553355E-007  0.1480061E+04  0.7818608E-02  0.8897822E-01
         -1   -1    0    0    0  501 -0.00000000000E+00  0.00000000000E+00  0.17416772681E+03  0.17416772681E+03  0.00000000000E+00 0.  1.
          2   -1    0    0  501    0  0.00000000000E+00 -0.00000000000E+00 -0.31443541043E+04  0.31443541043E+04  0.00000000000E+00 0. -1.
         24    2    1    2    0    0  0.25250162053E+03 -0.39656853249E+03 -0.10683162708E+04  0.11699618069E+04  0.80543812561E+02 0.  0.
        254    2    1    2    0    0 -0.25250162053E+03  0.39656853249E+03 -0.19018701066E+04  0.21485600242E+04  0.88214318888E+03 0.  0.
         23    2    4    4    0    0 -0.21676687298E+03  0.50864042970E+03 -0.53824927784E+03  0.77710387505E+03  0.92060760295E+02 0.  0.
         23    2    4    4    0    0 -0.35734747546E+02 -0.11207189720E+03 -0.13636208288E+04  0.13714561491E+04  0.87138521555E+02 0.  0.
          2    1    3    3  502    0  0.94142632847E+02 -0.14503660268E+03 -0.30163910196E+03  0.34768462616E+03  0.00000000000E+00 0. -1.
         -1    1    3    3    0  502  0.15835898768E+03 -0.25153192982E+03 -0.76667716886E+03  0.82227718073E+03  0.00000000000E+00 0.  1.
         11    1    5    5    0    0 -0.18992760752E+03  0.33773559951E+03 -0.37639965160E+03  0.54019860145E+03  0.00000000000E+00 0. -1.
        -11    1    5    5    0    0 -0.26839265458E+02  0.17090483018E+03 -0.16184962623E+03  0.23690527361E+03  0.00000000000E+00 0.  1.
          1    1    6    6  503    0  0.27157839473E+02 -0.43479480541E+02 -0.59988628228E+03  0.60207272413E+03  0.00000000000E+00 0. -1.
         -1    1    6    6    0  503 -0.62892587019E+02 -0.68592416661E+02 -0.76373454652E+03  0.76938342501E+03  0.00000000000E+00 0.  1.
<mgrwt>
<rscale>  0 0.14800608E+04</rscale>
<asrwt>0</asrwt>
<pdfrwt beam="1">  1        2 0.48374678E+00 0.14800608E+04</pdfrwt>
<pdfrwt beam="2">  1       -1 0.26795035E-01 0.14800608E+04</pdfrwt>
<totfact> 0.19482516E+01</totfact>
</mgrwt>
</event>
<event>
12    6  0.1553355E-007  0.1377921E+04  0.7818608E-02  0.8969957E-01
          2   -1    0    0  501    0  0.00000000000E+00  0.00000000000E+00  0.50708759039E+03  0.50708759039E+03  0.00000000000E+00 0. -1.
         -1   -1    0    0    0  501 -0.00000000000E+00 -0.00000000000E+00 -0.93606403647E+03  0.93606403647E+03  0.00000000000E+00 0.  1.
         24    2    1    2    0    0 -0.32662853477E+03  0.19155298545E+03 -0.15591765731E+01  0.38723421213E+03  0.81050342663E+02 0.  0.
        254    2    1    2    0    0  0.32662853477E+03 -0.19155298545E+03 -0.42741726951E+03  0.10559174147E+04  0.88819891831E+03 0.  0.
         23    2    4    4    0    0  0.19119166859E+03 -0.46416831851E+03  0.15624739470E+02  0.51057918760E+03  0.91872151781E+02 0.  0.
         23    2    4    4    0    0  0.13543686618E+03  0.27261533306E+03 -0.44304200898E+03  0.54533822713E+03  0.91898290023E+02 0.  0.
          2    1    3    3  502    0 -0.21924939662E+03  0.12420152834E+03 -0.39186463927E+02  0.25501352222E+03  0.00000000000E+00 0. -1.
         -1    1    3    3    0  502 -0.10737913816E+03  0.67351457110E+02  0.37627287353E+02  0.13222068991E+03  0.00000000000E+00 0.  1.
         11    1    5    5    0    0  0.18610748608E+03 -0.41209681695E+03  0.37810760554E+02  0.45375041216E+03  0.00000000000E+00 0.  1.
        -11    1    5    5    0    0  0.50841825116E+01 -0.52071501560E+02 -0.22186021084E+02  0.56828775440E+02  0.00000000000E+00 0. -1.
          1    1    6    6  503    0  0.24557349528E+02  0.20514463078E+02 -0.12726390080E+02  0.34436428614E+02  0.00000000000E+00 0. -1.
         -1    1    6    6    0  503  0.11087951666E+03  0.25210086998E+03 -0.43031561890E+03  0.51090179852E+03  0.00000000000E+00 0.  1.
<mgrwt>
<rscale>  0 0.13779208E+04</rscale>
<asrwt>0</asrwt>
<pdfrwt beam="1">  1        2 0.78013476E-01 0.13779208E+04</pdfrwt>
<pdfrwt beam="2">  1       -1 0.14400985E+00 0.13779208E+04</pdfrwt>
<totfact> 0.26276039E+01</totfact>
</mgrwt>
</event>
<event>
12    6  0.1553355E-007  0.1128431E+04  0.7818608E-02  0.9177916E-01
          2   -1    0    0  501    0  0.00000000000E+00  0.00000000000E+00  0.28717838619E+04  0.28717838619E+04  0.00000000000E+00 0. -1.
         -1   -1    0    0    0  501 -0.00000000000E+00 -0.00000000000E+00 -0.11085065536E+03  0.11085065536E+03  0.00000000000E+00 0.  1.
         24    2    1    2    0    0  0.11098477069E+03  0.16539591715E+03  0.81380962488E+03  0.84163423470E+03  0.79929035639E+02 0.  0.
        254    2    1    2    0    0 -0.11098477069E+03 -0.16539591715E+03  0.19471235816E+04  0.21410002825E+04  0.86770878693E+03 0.  0.
         23    2    4    4    0    0 -0.17006681261E+03  0.31871578986E+03  0.60707690570E+03  0.71185114858E+03  0.87676752013E+02 0.  0.
         23    2    4    4    0    0  0.59082041923E+02 -0.48411170701E+03  0.13400466759E+04  0.14291491340E+04  0.94272588027E+02 0.  0.
          4    1    3    3  502    0  0.62322392570E+02  0.15164357441E+03  0.63276587788E+03  0.65366085280E+03  0.00000000000E+00 0. -1.
         -3    1    3    3    0  502  0.48662378116E+02  0.13752342739E+02  0.18104374701E+03  0.18797338191E+03  0.00000000000E+00 0.  1.
         11    1    5    5    0    0 -0.18023477863E+03  0.29397682417E+03  0.55769873530E+03  0.65569415731E+03  0.00000000000E+00 0. -1.
        -11    1    5    5    0    0  0.10167966019E+02  0.24738965691E+02  0.49378170402E+02  0.56156991272E+02  0.00000000000E+00 0.  1.
          1    1    6    6  503    0  0.64451286064E+02 -0.37379437935E+03  0.92726465442E+03  0.10018462685E+04  0.00000000000E+00 0. -1.
         -1    1    6    6    0  503 -0.53692441413E+01 -0.11031732766E+03  0.41278202152E+03  0.42730286549E+03  0.00000000000E+00 0.  1.
<mgrwt>
<rscale>  0 0.11284310E+04</rscale>
<asrwt>0</asrwt>
<pdfrwt beam="1">  1        2 0.44181284E+00 0.11284310E+04</pdfrwt>
<pdfrwt beam="2">  1       -1 0.17053949E-01 0.11284310E+04</pdfrwt>
<totfact> 0.63866472E+01</totfact>
</mgrwt>
</event>
<event>
12    6  0.1553355E-007  0.2040751E+04  0.7818608E-02  0.8587802E-01
          2   -1    0    0  501    0  0.00000000000E+00  0.00000000000E+00  0.11652456246E+04  0.11652456246E+04  0.00000000000E+00 0. -1.
         -1   -1    0    0    0  501 -0.00000000000E+00 -0.00000000000E+00 -0.89351683916E+03  0.89351683916E+03  0.00000000000E+00 0.  1.
         24    2    1    2    0    0 -0.23918756362E+03 -0.21830810644E+03  0.86823383019E+03  0.93021054287E+03  0.81194521129E+02 0.  0.
        254    2    1    2    0    0  0.23918756362E+03  0.21830810644E+03 -0.59650504472E+03  0.11285519209E+04  0.90163299067E+03 0.  0.
         23    2    4    4    0    0  0.37874807717E+03 -0.14994737613E+03 -0.13465710299E+02  0.41894298452E+03  0.96941102542E+02 0.  0.
         23    2    4    4    0    0 -0.13956051355E+03  0.36825548257E+03 -0.58303933443E+03  0.70960893638E+03  0.92307852961E+02 0.  0.
          2    1    3    3  502    0 -0.20758526097E+03 -0.14388047737E+03  0.63695579477E+03  0.68520501810E+03  0.00000000000E+00 0. -1.
         -1    1    3    3    0  502 -0.31602302648E+02 -0.74427629068E+02  0.23127803542E+03  0.24500552477E+03  0.00000000000E+00 0.  1.
         11    1    5    5    0    0  0.25536809279E+03 -0.81568307430E+02  0.33737346842E+02  0.27019337550E+03  0.00000000000E+00 0. -1.
        -11    1    5    5    0    0  0.12337998438E+03 -0.68379068703E+02 -0.47203057142E+02  0.14874960902E+03  0.00000000000E+00 0.  1.
          2    1    6    6  503    0  0.69207848251E+01  0.14466401099E+02 -0.55358985110E+02  0.57634982916E+02  0.00000000000E+00 0.  1.
         -2    1    6    6    0  503 -0.14648129837E+03  0.35378908147E+03 -0.52768034932E+03  0.65197395346E+03  0.00000000000E+00 0. -1.
<mgrwt>
<rscale>  0 0.20407514E+04</rscale>
<asrwt>0</asrwt>
<pdfrwt beam="1">  1        2 0.17926856E+00 0.20407514E+04</pdfrwt>
<pdfrwt beam="2">  1       -1 0.13746413E+00 0.20407514E+04</pdfrwt>
<totfact> 0.92264123E+00</totfact>
</mgrwt>
</event>
<event>
12    6  0.1553355E-007  0.1454021E+04  0.7818608E-02  0.8915617E-01
         -1   -1    0    0    0  501 -0.00000000000E+00  0.00000000000E+00  0.81684638199E+03  0.81684638199E+03  0.00000000000E+00 0.  1.
          2   -1    0    0  501    0  0.00000000000E+00 -0.00000000000E+00 -0.64705510588E+03  0.64705510588E+03  0.00000000000E+00 0. -1.
         24    2    1    2    0    0 -0.20987435538E+03 -0.21842761126E+03  0.37909135550E+03  0.48986842919E+03  0.67104066194E+02 0.  0.
        254    2    1    2    0    0  0.20987435538E+03  0.21842761126E+03 -0.20930007939E+03  0.97403305867E+03  0.90176272364E+03 0.  0.
         23    2    4    4    0    0  0.12439983481E+03  0.16702959810E+03 -0.55664421246E+03  0.60128154700E+03  0.91172989184E+02 0.  0.
         23    2    4    4    0    0  0.85474520569E+02  0.51398013159E+02  0.34734413307E+03  0.37275151167E+03  0.91367900556E+02 0.  0.
          2    1    3    3  502    0 -0.44243112329E+02 -0.12494229154E+02  0.54860143778E+02  0.71576491434E+02  0.00000000000E+00 0. -1.
         -1    1    3    3    0  502 -0.16563124305E+03 -0.20593338211E+03  0.32423121172E+03  0.41829193776E+03  0.00000000000E+00 0.  1.
         11    1    5    5    0    0 -0.36134461621E+01  0.15711711366E+02 -0.81301180934E+01  0.18055849119E+02  0.00000000000E+00 0. -1.
        -11    1    5    5    0    0  0.12801328097E+03  0.15131788674E+03 -0.54851409437E+03  0.58322569788E+03  0.00000000000E+00 0.  1.
          4    1    6    6  503    0  0.10061300107E+03  0.53578299631E+02  0.25732489563E+03  0.28144220026E+03  0.00000000000E+00 0. -1.
         -4    1    6    6    0  503 -0.15138480505E+02 -0.21802864713E+01  0.90019237441E+02  0.91309311412E+02  0.00000000000E+00 0.  1.
<mgrwt>
<rscale>  0 0.14540215E+04</rscale>
<asrwt>0</asrwt>
<pdfrwt beam="1">  1        2 0.99546939E-01 0.14540215E+04</pdfrwt>
<pdfrwt beam="2">  1       -1 0.12566867E+00 0.14540215E+04</pdfrwt>
<totfact> 0.27664685E+01</totfact>
</mgrwt>
</event>
<event>
12    6  0.1553355E-007  0.1393894E+04  0.7818608E-02  0.8958250E-01
          2   -1    0    0  501    0  0.00000000000E+00  0.00000000000E+00  0.25927184287E+04  0.25927184287E+04  0.00000000000E+00 0. -1.
         -1   -1    0    0    0  501 -0.00000000000E+00 -0.00000000000E+00 -0.18734589608E+03  0.18734589608E+03  0.00000000000E+00 0.  1.
         24    2    1    2    0    0  0.14642717323E+03 -0.34487075955E+03  0.99454473837E+03  0.10657116814E+04  0.79027802018E+02 0.  0.
        254    2    1    2    0    0 -0.14642717323E+03  0.34487075955E+03  0.14108277942E+04  0.17143526433E+04  0.89899564116E+03 0.  0.
         23    2    4    4    0    0  0.19750857924E+03 -0.21284782671E+03  0.35751361317E+03  0.46976140780E+03  0.92444364096E+02 0.  0.
         23    2    4    4    0    0 -0.34393575248E+03  0.55771858625E+03  0.10533141811E+04  0.12445912355E+04  0.10096908542E+03 0.  0.
          2    1    3    3  502    0  0.84553169330E+02 -0.22832214577E+03  0.53898555683E+03  0.59142680964E+03  0.00000000000E+00 0. -1.
         -1    1    3    3    0  502  0.61874003901E+02 -0.11654861378E+03  0.45555918155E+03  0.47428487180E+03  0.00000000000E+00 0.  1.
         11    1    5    5    0    0  0.79486296630E+02 -0.40301253007E+02  0.15448289563E+03  0.17834580844E+03  0.00000000000E+00 0. -1.
        -11    1    5    5    0    0  0.11802228261E+03 -0.17254657370E+03  0.20303071754E+03  0.29141559936E+03  0.00000000000E+00 0.  1.
          3    1    6    6  503    0 -0.33123547589E+03  0.50034705337E+03  0.91375537652E+03  0.10931665026E+04  0.00000000000E+00 0. -1.
         -3    1    6    6    0  503 -0.12700276582E+02  0.57371532887E+02  0.13955880454E+03  0.15142473291E+03  0.00000000000E+00 0.  1.
<mgrwt>
<rscale>  0 0.13938941E+04</rscale>
<asrwt>0</asrwt>
<pdfrwt beam="1">  1        2 0.39887973E+00 0.13938941E+04</pdfrwt>
<pdfrwt beam="2">  1       -1 0.28822447E-01 0.13938941E+04</pdfrwt>
<totfact> 0.37478501E+01</totfact>
</mgrwt>
</event>
<event>
12    6  0.1553355E-007  0.1984734E+04  0.7818608E-02  0.8613791E-01
          2   -1    0    0  501    0  0.00000000000E+00  0.00000000000E+00  0.64429105339E+03  0.64429105339E+03  0.00000000000E+00 0. -1.
         -1   -1    0    0    0  501 -0.00000000000E+00 -0.00000000000E+00 -0.15284900312E+04  0.15284900312E+04  0.00000000000E+00 0.  1.
         24    2    1    2    0    0  0.17251535222E+03 -0.75670622373E+03 -0.20586528255E+03  0.80689234684E+03  0.79554315065E+02 0.  0.
        254    2    1    2    0    0 -0.17251535222E+03  0.75670622373E+03 -0.67833369526E+03  0.13658887377E+04  0.89618613356E+03 0.  0.
         23    2    4    4    0    0  0.35783083809E+03  0.33120830652E+03 -0.23620647266E+03  0.54971060108E+03  0.92986000122E+02 0.  0.
         23    2    4    4    0    0 -0.53034619031E+03  0.42549791721E+03 -0.44212722260E+03  0.81617813666E+03  0.91404106466E+02 0.  0.
          2    1    3    3  502    0  0.17735144092E+03 -0.74829789992E+03 -0.19725553229E+03  0.79392255645E+03  0.00000000000E+00 0. -1.
         -3    1    3    3    0  502 -0.48360886990E+01 -0.84083238100E+01 -0.86097502613E+01  0.12969790390E+02  0.00000000000E+00 0.  1.
         11    1    5    5    0    0  0.25863885207E+03  0.20388274239E+03 -0.19647298440E+03  0.38348906378E+03  0.00000000000E+00 0. -1.
        -11    1    5    5    0    0  0.99191986022E+02  0.12732556413E+03 -0.39733488264E+02  0.16622153730E+03  0.00000000000E+00 0.  1.
          3    1    6    6  503    0 -0.47851894709E+03  0.40676324669E+03 -0.38426751530E+03  0.73627321349E+03  0.00000000000E+00 0. -1.
         -3    1    6    6    0  503 -0.51827243219E+02  0.18734670517E+02 -0.57859707297E+02  0.79904923175E+02  0.00000000000E+00 0.  1.
<mgrwt>
<rscale>  0 0.19847342E+04</rscale>
<asrwt>0</asrwt>
<pdfrwt beam="1">  1        2 0.99121701E-01 0.19847342E+04</pdfrwt>
<pdfrwt beam="2">  1       -1 0.23515231E+00 0.19847342E+04</pdfrwt>
<totfact> 0.42125898E+00</totfact>
</mgrwt>
</event>
<event>
12    6  0.1553355E-007  0.2055232E+04  0.7818608E-02  0.8581225E-01
          2   -1    0    0  501    0  0.00000000000E+00  0.00000000000E+00  0.60332002519E+03  0.60332002519E+03  0.00000000000E+00 0. -1.
         -1   -1    0    0    0  501 -0.00000000000E+00 -0.00000000000E+00 -0.17503051278E+04  0.17503051278E+04  0.00000000000E+00 0.  1.
         24    2    1    2    0    0 -0.47192517160E+03  0.63933097300E+03 -0.73385155742E+03  0.10853367452E+04  0.89220410217E+02 0.  0.
        254    2    1    2    0    0  0.47192517160E+03 -0.63933097300E+03 -0.41313354523E+03  0.12682884078E+04  0.89800818401E+03 0.  0.
         23    2    4    4    0    0  0.14410835016E+03  0.21461929813E+03 -0.42720370222E+02  0.27715347936E+03  0.90334718537E+02 0.  0.
         23    2    4    4    0    0  0.32781682144E+03 -0.85395027112E+03 -0.37041317501E+03  0.99113492845E+03  0.91910783881E+02 0.  0.
          2    1    3    3  502    0 -0.39212910154E+02  0.20262339341E+02 -0.46114576356E+02  0.63833916305E+02  0.00000000000E+00 0. -1.
         -1    1    3    3    0  502 -0.43271226145E+03  0.61906863365E+03 -0.68773698106E+03  0.10215028289E+04  0.00000000000E+00 0.  1.
         11    1    5    5    0    0  0.10932774644E+03  0.16694758192E+03 -0.70872913739E+02  0.21177115278E+03  0.00000000000E+00 0. -1.
        -11    1    5    5    0    0  0.34780603727E+02  0.47671716210E+02  0.28152543517E+02  0.65382326576E+02  0.00000000000E+00 0.  1.
          4    1    6    6  503    0  0.84477759329E+02 -0.23602520953E+03 -0.58506995318E+02  0.25742466831E+03  0.00000000000E+00 0. -1.
         -4    1    6    6    0  503  0.24333906211E+03 -0.61792506160E+03 -0.31190617970E+03  0.73371026014E+03  0.00000000000E+00 0.  1.
<mgrwt>
<rscale>  0 0.20552315E+04</rscale>
<asrwt>0</asrwt>
<pdfrwt beam="1">  1        2 0.92818465E-01 0.20552315E+04</pdfrwt>
<pdfrwt beam="2">  1       -1 0.26927771E+00 0.20552315E+04</pdfrwt>
<totfact> 0.27178927E+00</totfact>
</mgrwt>
</event>
<event>
12    6  0.1553355E-007  0.2361405E+04  0.7818608E-02  0.8454096E-01
          2   -1    0    0  501    0  0.00000000000E+00  0.00000000000E+00  0.34477816657E+04  0.34477816657E+04  0.00000000000E+00 0. -1.
         -1   -1    0    0    0  501 -0.00000000000E+00 -0.00000000000E+00 -0.40433498937E+03  0.40433498937E+03  0.00000000000E+00 0.  1.
         24    2    1    2    0    0  0.25279759606E+03  0.26693382528E+03  0.28285769168E+04  0.28535390106E+04  0.81714251265E+02 0.  0.
        254    2    1    2    0    0 -0.25279759606E+03 -0.26693382528E+03  0.21486975953E+03  0.99857764452E+03  0.90323197847E+03 0.  0.
         23    2    4    4    0    0  0.16677421098E+03 -0.46512643959E+03  0.11657313380E+03  0.51565258130E+03  0.90288686002E+02 0.  0.
         23    2    4    4    0    0 -0.41957180704E+03  0.19819261432E+03  0.98296625731E+02  0.48292506323E+03  0.90739056815E+02 0.  0.
          4    1    3    3  502    0  0.20906116594E+03  0.17588260266E+03  0.19138840207E+04  0.19332856244E+04  0.00000000000E+00 0. -1.
         -3    1    3    3    0  502  0.43736430125E+02  0.91051222615E+02  0.91469289615E+03  0.92025338615E+03  0.00000000000E+00 0.  1.
         11    1    5    5    0    0  0.13300548942E+03 -0.44065042769E+03  0.11184079705E+03  0.47367881895E+03  0.00000000000E+00 0.  1.
        -11    1    5    5    0    0  0.33768721558E+02 -0.24476011904E+02  0.47323367455E+01  0.41973762346E+02  0.00000000000E+00 0. -1.
          2    1    6    6  503    0 -0.92844934237E+02  0.45884631892E+02  0.61792930541E+02  0.12059828988E+03  0.00000000000E+00 0. -1.
         -2    1    6    6    0  503 -0.32672687280E+03  0.15230798242E+03  0.36503695190E+02  0.36232677335E+03  0.00000000000E+00 0.  1.
<mgrwt>
<rscale>  0 0.23614053E+04</rscale>
<asrwt>0</asrwt>
<pdfrwt beam="1">  1        2 0.53042793E+00 0.23614053E+04</pdfrwt>
<pdfrwt beam="2">  1       -1 0.62205385E-01 0.23614053E+04</pdfrwt>
<totfact> 0.23823872E+00</totfact>
</mgrwt>
</event>
<event>
12    6  0.1553355E-007  0.1634303E+04  0.7818608E-02  0.8799747E-01
          2   -1    0    0  501    0  0.00000000000E+00  0.00000000000E+00  0.20376729403E+04  0.20376729403E+04  0.00000000000E+00 0. -1.
         -1   -1    0    0    0  501 -0.00000000000E+00 -0.00000000000E+00 -0.32769581889E+03  0.32769581889E+03  0.00000000000E+00 0.  1.
         24    2    1    2    0    0  0.13030215368E+03 -0.39357346276E+03  0.11006991141E+04  0.11789108072E+04  0.80083891615E+02 0.  0.
        254    2    1    2    0    0 -0.13030215368E+03  0.39357346276E+03  0.60927800734E+03  0.11864579520E+04  0.92983012418E+03 0.  0.
         23    2    4    4    0    0  0.11702951998E+03  0.19382499685E+03  0.77762432243E+03  0.81497932557E+03  0.90706539602E+02 0.  0.
         23    2    4    4    0    0 -0.24733167366E+03  0.19974846591E+03 -0.16834631509E+03  0.37147862645E+03  0.92647081313E+02 0.  0.
          2    1    3    3  502    0  0.50716177537E+02 -0.19424316667E+03  0.63832610646E+03  0.66915077273E+03  0.00000000000E+00 0. -1.
         -1    1    3    3    0  502  0.79585976139E+02 -0.19933029609E+03  0.46237300761E+03  0.50976003443E+03  0.00000000000E+00 0.  1.
         11    1    5    5    0    0  0.10271960455E+03  0.18920926923E+03  0.76680468205E+03  0.79645519971E+03  0.00000000000E+00 0. -1.
        -11    1    5    5    0    0  0.14309915434E+02  0.46157276190E+01  0.10819640373E+02  0.18524125863E+02  0.00000000000E+00 0.  1.
          1    1    6    6  503    0 -0.25283309547E+03  0.20335944756E+03 -0.16619614587E+03  0.36455561712E+03  0.00000000000E+00 0. -1.
         -1    1    6    6    0  503  0.55014218113E+01 -0.36109816479E+01 -0.21501692175E+01  0.69230093219E+01  0.00000000000E+00 0.  1.
<mgrwt>
<rscale>  0 0.16343034E+04</rscale>
<asrwt>0</asrwt>
<pdfrwt beam="1">  1        2 0.31348814E+00 0.16343034E+04</pdfrwt>
<pdfrwt beam="2">  1       -1 0.50414743E-01 0.16343034E+04</pdfrwt>
<totfact> 0.27407136E+01</totfact>
</mgrwt>
</event>
<event>
12    6  0.1553355E-007  0.1500740E+04  0.7818608E-02  0.8883961E-01
         -1   -1    0    0    0  501 -0.00000000000E+00  0.00000000000E+00  0.62328857241E+03  0.62328857241E+03  0.00000000000E+00 0.  1.
          2   -1    0    0  501    0  0.00000000000E+00 -0.00000000000E+00 -0.90336137494E+03  0.90336137494E+03  0.00000000000E+00 0. -1.
         24    2    1    2    0    0 -0.37925911433E+03 -0.27878987473E+03 -0.15386141902E+03  0.50168840470E+03  0.80353276793E+02 0.  0.
        254    2    1    2    0    0  0.37925911433E+03  0.27878987473E+03 -0.12621138351E+03  0.10249615426E+04  0.90169594682E+03 0.  0.
         23    2    4    4    0    0  0.20781736210E+02  0.20186229799E+02  0.35372492410E+03  0.36559942763E+03  0.87762492660E+02 0.  0.
         23    2    4    4    0    0  0.35847737812E+03  0.25860364493E+03 -0.47993630761E+03  0.65936211501E+03  0.95066626943E+02 0.  0.
          4    1    3    3  502    0 -0.25059179206E+03 -0.14242140314E+03 -0.71900331482E+02  0.29706861158E+03  0.00000000000E+00 0. -1.
         -3    1    3    3    0  502 -0.12866732227E+03 -0.13636847160E+03 -0.81961087541E+02  0.20461979312E+03  0.00000000000E+00 0.  1.
         11    1    5    5    0    0  0.31724176691E+02  0.31616870287E+02  0.34425896036E+03  0.34716031119E+03  0.00000000000E+00 0.  1.
        -11    1    5    5    0    0 -0.10942440480E+02 -0.11430640488E+02  0.94659637396E+01  0.18439116442E+02  0.00000000000E+00 0. -1.
          4    1    6    6  503    0  0.17298588207E+03  0.14416848966E+03 -0.17831904150E+03  0.28723918494E+03  0.00000000000E+00 0. -1.
         -4    1    6    6    0  503  0.18549149605E+03  0.11443515528E+03 -0.30161726611E+03  0.37212293007E+03  0.00000000000E+00 0.  1.
<mgrwt>
<rscale>  0 0.15007396E+04</rscale>
<asrwt>0</asrwt>
<pdfrwt beam="1">  1        2 0.13897867E+00 0.15007396E+04</pdfrwt>
<pdfrwt beam="2">  1       -1 0.95890550E-01 0.15007396E+04</pdfrwt>
<totfact> 0.33732077E+01</totfact>
</mgrwt>
</event>
<event>
12    6  0.1553355E-007  0.1516546E+04  0.7818608E-02  0.8873524E-01
         -1   -1    0    0    0  501 -0.00000000000E+00  0.00000000000E+00  0.33426456150E+03  0.33426456150E+03  0.00000000000E+00 0.  1.
          2   -1    0    0  501    0  0.00000000000E+00 -0.00000000000E+00 -0.17201288927E+04  0.17201288927E+04  0.00000000000E+00 0. -1.
         24    2    1    2    0    0 -0.63633557601E+02  0.47055501246E+03 -0.57037324944E+03  0.74604452420E+03  0.76062730786E+02 0.  0.
        254    2    1    2    0    0  0.63633557601E+02 -0.47055501246E+03 -0.81549108179E+03  0.13083489300E+04  0.90624498279E+03 0.  0.
         23    2    4    4    0    0  0.12482880956E+02  0.26405049669E+03 -0.25862571955E+03  0.38067101497E+03  0.90247834916E+02 0.  0.
         23    2    4    4    0    0  0.51150676644E+02 -0.73460550915E+03 -0.55686536224E+03  0.92767791506E+03  0.90695295520E+02 0.  0.
          2    1    3    3  502    0 -0.67757596830E+02  0.26909052506E+03 -0.29740475056E+03  0.40675593206E+03  0.00000000000E+00 0. -1.
         -1    1    3    3    0  502  0.41240392289E+01  0.20146448739E+03 -0.27296849887E+03  0.33928859214E+03  0.00000000000E+00 0.  1.
         11    1    5    5    0    0  0.56996670751E+01  0.92936948837E+01  0.66857167811E+01  0.12788970961E+02  0.00000000000E+00 0.  1.
        -11    1    5    5    0    0  0.67832138814E+01  0.25475680181E+03 -0.26531143633E+03  0.36788204401E+03  0.00000000000E+00 0. -1.
          4    1    6    6  503    0  0.44157268008E+02 -0.73275563446E+03 -0.54713448964E+03  0.91555274775E+03  0.00000000000E+00 0. -1.
         -4    1    6    6    0  503  0.69934086365E+01 -0.18498746854E+01 -0.97308726014E+01  0.12125167310E+02  0.00000000000E+00 0.  1.
<mgrwt>
<rscale>  0 0.15165462E+04</rscale>
<asrwt>0</asrwt>
<pdfrwt beam="1">  1        2 0.26463522E+00 0.15165462E+04</pdfrwt>
<pdfrwt beam="2">  1       -1 0.51425317E-01 0.15165462E+04</pdfrwt>
<totfact> 0.39964383E+01</totfact>
</mgrwt>
</event>
<event>
12    6  0.1553355E-007  0.2002716E+04  0.7818608E-02  0.8605352E-01
         -1   -1    0    0    0  501 -0.00000000000E+00  0.00000000000E+00  0.35683933987E+03  0.35683933987E+03  0.00000000000E+00 0.  1.
          2   -1    0    0  501    0  0.00000000000E+00 -0.00000000000E+00 -0.28099993783E+04  0.28099993783E+04  0.00000000000E+00 0. -1.
         24    2    1    2    0    0  0.47357078072E+03  0.41406029269E+03 -0.17541413719E+04  0.18651657311E+04  0.78205124445E+02 0.  0.
        254    2    1    2    0    0 -0.47357078072E+03 -0.41406029269E+03 -0.69901866661E+03  0.13016729871E+04  0.90000569935E+03 0.  0.
         23    2    4    4    0    0 -0.39983577685E+03 -0.10072266596E+03 -0.83833576997E+03  0.93872462754E+03  0.91560686128E+02 0.  0.
         23    2    4    4    0    0 -0.73735003871E+02 -0.31333762673E+03  0.13931710336E+03  0.36294835961E+03  0.93300253659E+02 0.  0.
          2    1    3    3  502    0  0.24052239237E+03  0.25859801771E+03 -0.93784901427E+03  0.10021400748E+04  0.00000000000E+00 0. -1.
         -1    1    3    3    0  502  0.23304838835E+03  0.15546227498E+03 -0.81629235760E+03  0.86302565624E+03  0.00000000000E+00 0.  1.
         11    1    5    5    0    0 -0.27706585457E+02 -0.34717006604E+02 -0.90653904684E+02  0.10095075958E+03  0.00000000000E+00 0. -1.
        -11    1    5    5    0    0 -0.37212919139E+03 -0.66005659358E+02 -0.74768186529E+03  0.83777386796E+03  0.00000000000E+00 0.  1.
          1    1    6    6  503    0 -0.27512662314E+02 -0.26757652922E+02  0.41743115758E+02  0.56704552645E+02  0.00000000000E+00 0. -1.
         -1    1    6    6    0  503 -0.46222341557E+02 -0.28657997381E+03  0.97573987606E+02  0.30624380696E+03  0.00000000000E+00 0.  1.
<mgrwt>
<rscale>  0 0.20027165E+04</rscale>
<asrwt>0</asrwt>
<pdfrwt beam="1">  1        2 0.43230761E+00 0.20027165E+04</pdfrwt>
<pdfrwt beam="2">  1       -1 0.54898358E-01 0.20027165E+04</pdfrwt>
<totfact> 0.80965712E+00</totfact>
</mgrwt>
</event>
<event>
12    6  0.1553355E-007  0.2756638E+04  0.7818608E-02  0.8316858E-01
         -1   -1    0    0    0  501 -0.00000000000E+00  0.00000000000E+00  0.12542776796E+04  0.12542776796E+04  0.00000000000E+00 0.  1.
          2   -1    0    0  501    0  0.00000000000E+00 -0.00000000000E+00 -0.15146271568E+04  0.15146271568E+04  0.00000000000E+00 0. -1.
         24    2    1    2    0    0 -0.86605136738E+03 -0.15244968860E+02  0.78360334436E+03  0.11707261900E+04  0.79298364789E+02 0.  0.
        254    2    1    2    0    0  0.86605136738E+03  0.15244968860E+02 -0.10439528217E+04  0.15981786464E+04  0.84502077602E+03 0.  0.
         23    2    4    4    0    0  0.67833013472E+03 -0.30343095166E+03 -0.39656216114E+03  0.84701059629E+03  0.89237259523E+02 0.  0.
         23    2    4    4    0    0  0.18772123267E+03  0.31867592052E+03 -0.64739066051E+03  0.75116805010E+03  0.91351894650E+02 0.  0.
          2    1    3    3  502    0 -0.11867443199E+03  0.23279449857E+02  0.12311820332E+03  0.17257938922E+03  0.00000000000E+00 0. -1.
         -1    1    3    3    0  502 -0.74737693539E+03 -0.38524418717E+02  0.66048514104E+03  0.99814680079E+03  0.00000000000E+00 0.  1.
         11    1    5    5    0    0  0.18976395989E+03 -0.50558353833E+02 -0.13159077685E+03  0.23639509337E+03  0.00000000000E+00 0. -1.
        -11    1    5    5    0    0  0.48856617482E+03 -0.25287259783E+03 -0.26497138429E+03  0.61061550292E+03  0.00000000000E+00 0.  1.
          1    1    6    6  503    0  0.26970573355E+02  0.28277825735E+02 -0.13599638374E+03  0.14149934151E+03  0.00000000000E+00 0. -1.
         -1    1    6    6    0  503  0.16075065931E+03  0.29039809479E+03 -0.51139427677E+03  0.60966870859E+03  0.00000000000E+00 0.  1.
<mgrwt>
<rscale>  0 0.27566378E+04</rscale>
<asrwt>0</asrwt>
<pdfrwt beam="1">  1        2 0.23301956E+00 0.27566378E+04</pdfrwt>
<pdfrwt beam="2">  1       -1 0.19296580E+00 0.27566378E+04</pdfrwt>
<totfact> 0.20862351E+00</totfact>
</mgrwt>
</event>
<event>
12    6  0.1553355E-007  0.1589112E+04  0.7818608E-02  0.8827265E-01
         -1   -1    0    0    0  501 -0.00000000000E+00  0.00000000000E+00  0.30394129034E+03  0.30394129034E+03  0.00000000000E+00 0.  1.
          2   -1    0    0  501    0  0.00000000000E+00 -0.00000000000E+00 -0.20771091132E+04  0.20771091132E+04  0.00000000000E+00 0. -1.
         24    2    1    2    0    0  0.11889685808E+03 -0.26297026169E+03  0.67714858695E+02  0.30699196975E+03  0.79805676534E+02 0.  0.
        254    2    1    2    0    0 -0.11889685808E+03  0.26297026169E+03 -0.18408826815E+04  0.20740584338E+04  0.91081255929E+03 0.  0.
         23    2    4    4    0    0  0.23711881959E+02 -0.28423299947E+03 -0.27433034808E+03  0.40622665435E+03  0.91718610371E+02 0.  0.
         23    2    4    4    0    0 -0.14260874004E+03  0.54720326116E+03 -0.15665523334E+04  0.16678317794E+04  0.88362714235E+02 0.  0.
          4    1    3    3  502    0  0.61002047550E+01 -0.29678589513E+02  0.34221099779E+02  0.45706835852E+02  0.00000000000E+00 0. -1.
         -3    1    3    3    0  502  0.11279665333E+03 -0.23329167218E+03  0.33493758916E+02  0.26128513390E+03  0.00000000000E+00 0.  1.
         11    1    5    5    0    0  0.11851520007E+02 -0.28360076348E+03 -0.24640084646E+03  0.37587661367E+03  0.00000000000E+00 0.  1.
        -11    1    5    5    0    0  0.11860361952E+02 -0.63223599527E+00 -0.27929501622E+02  0.30350040673E+02  0.00000000000E+00 0. -1.
          4    1    6    6  503    0  0.58234634042E+01  0.71821502238E+02 -0.25220196145E+03  0.26229386243E+03  0.00000000000E+00 0. -1.
         -4    1    6    6    0  503 -0.14843220345E+03  0.47538175892E+03 -0.13143503720E+04  0.14055379170E+04  0.00000000000E+00 0.  1.
<mgrwt>
<rscale>  0 0.15891120E+04</rscale>
<asrwt>0</asrwt>
<pdfrwt beam="1">  1        2 0.31955525E+00 0.15891120E+04</pdfrwt>
<pdfrwt beam="2">  1       -1 0.46760198E-01 0.15891120E+04</pdfrwt>
<totfact> 0.30158618E+01</totfact>
</mgrwt>
</event>
<event>
12    6  0.1553355E-007  0.1360772E+04  0.7818608E-02  0.8982714E-01
         -1   -1    0    0    0  501 -0.00000000000E+00  0.00000000000E+00  0.43142823043E+03  0.43142823043E+03  0.00000000000E+00 0.  1.
          2   -1    0    0  501    0  0.00000000000E+00 -0.00000000000E+00 -0.10730058007E+04  0.10730058007E+04  0.00000000000E+00 0. -1.
         24    2    1    2    0    0 -0.15901361425E+03 -0.23671905180E+03  0.86082344000E+02  0.30860517501E+03  0.80658199147E+02 0.  0.
        254    2    1    2    0    0  0.15901361425E+03  0.23671905180E+03 -0.72765991424E+03  0.11958288561E+04  0.90509472612E+03 0.  0.
         23    2    4    4    0    0 -0.32144523780E+03 -0.34988732895E+02 -0.92559803034E+02  0.34940061667E+03  0.94669010022E+02 0.  0.
         23    2    4    4    0    0  0.48045885206E+03  0.27170778470E+03 -0.63510011121E+03  0.84642823941E+03  0.91775729010E+02 0.  0.
          4    1    3    3  502    0 -0.15883441514E+03 -0.20766976529E+03  0.57182378194E+02  0.26762833786E+03  0.00000000000E+00 0. -1.
         -3    1    3    3    0  502 -0.17919910995E+00 -0.29049286514E+02  0.28899965805E+02  0.40976837151E+02  0.00000000000E+00 0.  1.
         11    1    5    5    0    0 -0.25045051958E+03 -0.26709901148E+02 -0.28606314188E+02  0.25349004475E+03  0.00000000000E+00 0. -1.
        -11    1    5    5    0    0 -0.70994718223E+02 -0.82788317469E+01 -0.63953488846E+02  0.95910571921E+02  0.00000000000E+00 0.  1.
          3    1    6    6  503    0  0.29232287747E+03  0.18745829469E+03 -0.33626429562E+03  0.48339109781E+03  0.00000000000E+00 0. -1.
         -3    1    6    6    0  503  0.18813597459E+03  0.84249490011E+02 -0.29883581559E+03  0.36303714160E+03  0.00000000000E+00 0.  1.
<mgrwt>
<rscale>  0 0.13607718E+04</rscale>
<asrwt>0</asrwt>
<pdfrwt beam="1">  1        2 0.16507781E+00 0.13607718E+04</pdfrwt>
<pdfrwt beam="2">  1       -1 0.66373574E-01 0.13607718E+04</pdfrwt>
<totfact> 0.57989262E+01</totfact>
</mgrwt>
</event>
<event>
12    6  0.1553355E-007  0.3141383E+04  0.7818608E-02  0.8204472E-01
          2   -1    0    0  501    0  0.00000000000E+00  0.00000000000E+00  0.20225580394E+04  0.20225580394E+04  0.00000000000E+00 0. -1.
         -1   -1    0    0    0  501 -0.00000000000E+00 -0.00000000000E+00 -0.12197776273E+04  0.12197776273E+04  0.00000000000E+00 0.  1.
         24    2    1    2    0    0 -0.50098649555E+03 -0.10210330719E+04  0.12789303902E+04  0.17131838207E+04  0.76418961785E+02 0.  0.
        254    2    1    2    0    0  0.50098649555E+03  0.10210330719E+04 -0.47614997815E+03  0.15291518460E+04  0.90448358944E+03 0.  0.
         23    2    4    4    0    0  0.20175008322E+03  0.21487322519E+03  0.25210718009E+03  0.39866251226E+03  0.92196363499E+02 0.  0.
         23    2    4    4    0    0  0.29923641233E+03  0.80615984676E+03 -0.72825715824E+03  0.11304893337E+04  0.90617416076E+02 0.  0.
          4    1    3    3  502    0 -0.39143973715E+03 -0.85091324692E+03  0.10248447386E+04  0.13883750069E+04  0.00000000000E+00 0. -1.
         -1    1    3    3    0  502 -0.10954675840E+03 -0.17011982503E+03  0.25408565168E+03  0.32480881382E+03  0.00000000000E+00 0.  1.
         11    1    5    5    0    0  0.15053232107E+03  0.20237067645E+03  0.18239192524E+03  0.31125662205E+03  0.00000000000E+00 0. -1.
        -11    1    5    5    0    0  0.51217762150E+02  0.12502548738E+02  0.69715254851E+02  0.87405890211E+02  0.00000000000E+00 0.  1.
          2    1    6    6  503    0  0.29151590337E+03  0.80237837022E+03 -0.71017984439E+03  0.11104719638E+04  0.00000000000E+00 0.  1.
         -2    1    6    6    0  503  0.77205089580E+01  0.37814765373E+01 -0.18077313852E+02  0.20017369944E+02  0.00000000000E+00 0. -1.
<mgrwt>
<rscale>  0 0.31413825E+04</rscale>
<asrwt>0</asrwt>
<pdfrwt beam="1">  1        2 0.31116277E+00 0.31413825E+04</pdfrwt>
<pdfrwt beam="2">  1       -1 0.18765810E+00 0.31413825E+04</pdfrwt>
<totfact> 0.11465427E+00</totfact>
</mgrwt>
</event>
<event>
12    6  0.1553355E-007  0.1990946E+04  0.7818608E-02  0.8610865E-01
          2   -1    0    0  501    0  0.00000000000E+00  0.00000000000E+00  0.33540491677E+04  0.33540491677E+04  0.00000000000E+00 0. -1.
         -3   -1    0    0    0  501 -0.00000000000E+00 -0.00000000000E+00 -0.29545377036E+03  0.29545377036E+03  0.00000000000E+00 0.  1.
         24    2    1    2    0    0  0.58899886919E+03  0.33141765735E+03  0.47330279170E+03  0.82861157380E+03  0.76316945089E+02 0.  0.
        254    2    1    2    0    0 -0.58899886919E+03 -0.33141765735E+03  0.25852926057E+04  0.28208913643E+04  0.90384340495E+03 0.  0.
         23    2    4    4    0    0 -0.59283138831E+03 -0.51346501860E+03  0.24559763438E+04  0.25797255011E+04  0.89824712850E+02 0.  0.
         23    2    4    4    0    0  0.38325191295E+01  0.18204736125E+03  0.12931626182E+03  0.24116586322E+03  0.91007406667E+02 0.  0.
          4    1    3    3  502    0  0.63497010366E+02  0.30525957998E+02  0.23449290541E+02  0.74253442102E+02  0.00000000000E+00 0. -1.
         -1    1    3    3    0  502  0.52550185882E+03  0.30089169935E+03  0.44985350116E+03  0.75435813170E+03  0.00000000000E+00 0.  1.
         11    1    5    5    0    0 -0.29016949212E+03 -0.22351505282E+03  0.12755045462E+04  0.13270528099E+04  0.00000000000E+00 0.  1.
        -11    1    5    5    0    0 -0.30266189619E+03 -0.28994996577E+03  0.11804717977E+04  0.12526726911E+04  0.00000000000E+00 0. -1.
          1    1    6    6  503    0  0.15049720671E+02  0.16371058969E+03  0.14110268701E+03  0.21665091634E+03  0.00000000000E+00 0. -1.
         -1    1    6    6    0  503 -0.11217201541E+02  0.18336771564E+02 -0.11786425189E+02  0.24514946880E+02  0.00000000000E+00 0.  1.
<mgrwt>
<rscale>  0 0.19909460E+04</rscale>
<asrwt>0</asrwt>
<pdfrwt beam="1">  1        2 0.51600754E+00 0.19909460E+04</pdfrwt>
<pdfrwt beam="2">  1       -3 0.45454429E-01 0.19909460E+04</pdfrwt>
<totfact> 0.29808519E+00</totfact>
</mgrwt>
</event>
<event>
12    6  0.1553355E-007  0.3217388E+04  0.7818608E-02  0.8184240E-01
          2   -1    0    0  501    0  0.00000000000E+00  0.00000000000E+00  0.17687609215E+04  0.17687609215E+04  0.00000000000E+00 0. -1.
         -1   -1    0    0    0  501 -0.00000000000E+00 -0.00000000000E+00 -0.14631126524E+04  0.14631126524E+04  0.00000000000E+00 0.  1.
         24    2    1    2    0    0  0.90155051631E+03  0.10622148819E+04  0.52466278806E+03  0.14909379258E+04  0.80815028188E+02 0.  0.
        254    2    1    2    0    0 -0.90155051631E+03 -0.10622148819E+04 -0.21901451899E+03  0.17409356480E+04  0.10206839777E+04 0.  0.
         23    2    4    4    0    0 -0.11192645170E+04 -0.84822384275E+03 -0.20805693650E+03  0.14225323457E+04  0.89854546006E+02 0.  0.
         23    2    4    4    0    0  0.21771400068E+03 -0.21399103911E+03 -0.10957582492E+02  0.31840330231E+03  0.89827854220E+02 0.  0.
          2    1    3    3  502    0  0.75502487464E+03  0.86347083176E+03  0.40372580641E+03  0.12159929956E+04  0.00000000000E+00 0. -1.
         -1    1    3    3    0  502  0.14652564168E+03  0.19874405010E+03  0.12093698165E+03  0.27494493021E+03  0.00000000000E+00 0.  1.
         11    1    5    5    0    0 -0.98061506115E+03 -0.77032946531E+03 -0.20302270067E+03  0.12634205952E+04  0.00000000000E+00 0.  1.
        -11    1    5    5    0    0 -0.13864945584E+03 -0.77894377432E+02 -0.50342358226E+01  0.15911175057E+03  0.00000000000E+00 0. -1.
          4    1    6    6  503    0  0.22103005116E+03 -0.21013569029E+03 -0.22483755210E+02  0.30580518487E+03  0.00000000000E+00 0.  1.
         -4    1    6    6    0  503 -0.33160504780E+01 -0.38553488243E+01  0.11526172718E+02  0.12598117433E+02  0.00000000000E+00 0. -1.
<mgrwt>
<rscale>  0 0.32173881E+04</rscale>
<asrwt>0</asrwt>
<pdfrwt beam="1">  1        2 0.27211707E+00 0.32173881E+04</pdfrwt>
<pdfrwt beam="2">  1       -1 0.22509425E+00 0.32173881E+04</pdfrwt>
<totfact> 0.87439726E-01</totfact>
</mgrwt>
</event>
<event>
12    6  0.1553355E-007  0.1105909E+04  0.7818608E-02  0.9199451E-01
          2   -1    0    0  501    0  0.00000000000E+00  0.00000000000E+00  0.67183776304E+03  0.67183776304E+03  0.00000000000E+00 0. -1.
         -1   -1    0    0    0  501 -0.00000000000E+00 -0.00000000000E+00 -0.45510806737E+03  0.45510806737E+03  0.00000000000E+00 0.  1.
         24    2    1    2    0    0 -0.95019440744E+02 -0.14763490076E+03  0.65496119676E+02  0.20327164143E+03  0.78770936741E+02 0.  0.
        254    2    1    2    0    0  0.95019440744E+02  0.14763490076E+03  0.15123357599E+03  0.92367418899E+03  0.89413514351E+03 0.  0.
         23    2    4    4    0    0  0.48199906307E+03  0.92160895906E+02  0.10873452641E+02  0.49894045211E+03  0.89479691806E+02 0.  0.
         23    2    4    4    0    0 -0.38697962233E+03  0.55474004850E+02  0.14036012335E+03  0.42473373688E+03  0.88697179786E+02 0.  0.
          4    1    3    3  502    0 -0.43276292782E+00 -0.95285181793E+01 -0.14807905855E+02  0.17614029018E+02  0.00000000000E+00 0. -1.
         -3    1    3    3    0  502 -0.94586677816E+02 -0.13810638258E+03  0.80304025531E+02  0.18565761241E+03  0.00000000000E+00 0.  1.
         11    1    5    5    0    0  0.32578651778E+03  0.10391149928E+03  0.71493000579E+00  0.34195754996E+03  0.00000000000E+00 0. -1.
        -11    1    5    5    0    0  0.15621254530E+03 -0.11750603372E+02  0.10158522635E+02  0.15698290216E+03  0.00000000000E+00 0.  1.
          4    1    6    6  503    0 -0.19974171141E+02  0.18364132508E+02 -0.61585948146E+01  0.27823320536E+02  0.00000000000E+00 0.  1.
         -4    1    6    6    0  503 -0.36700545119E+03  0.37109872342E+02  0.14651871817E+03  0.39691041634E+03  0.00000000000E+00 0. -1.
<mgrwt>
<rscale>  0 0.11059092E+04</rscale>
<asrwt>0</asrwt>
<pdfrwt beam="1">  1        2 0.10335966E+00 0.11059092E+04</pdfrwt>
<pdfrwt beam="2">  1       -1 0.70016626E-01 0.11059092E+04</pdfrwt>
<totfact> 0.10092321E+02</totfact>
</mgrwt>
</event>
<event>
12    6  0.1553355E-007  0.2053311E+04  0.7818608E-02  0.8582094E-01
         -1   -1    0    0    0  501 -0.00000000000E+00  0.00000000000E+00  0.11203150751E+04  0.11203150751E+04  0.00000000000E+00 0.  1.
          2   -1    0    0  501    0  0.00000000000E+00 -0.00000000000E+00 -0.94082551570E+03  0.94082551570E+03  0.00000000000E+00 0. -1.
         24    2    1    2    0    0  0.76807931465E+03 -0.18999739890E+03  0.31497681221E+03  0.85552481562E+03  0.81654594064E+02 0.  0.
        254    2    1    2    0    0 -0.76807931465E+03  0.18999739890E+03 -0.13548725285E+03  0.12056157751E+04  0.89950417252E+03 0.  0.
         23    2    4    4    0    0  0.53460326373E+02  0.32458804997E+03 -0.13597001009E+03  0.36778200909E+03  0.92522180530E+02 0.  0.
         23    2    4    4    0    0 -0.82153964102E+03 -0.13459065107E+03  0.48275723921E+00  0.83783376604E+03  0.94462486421E+02 0.  0.
          2    1    3    3  502    0  0.37642573903E+03 -0.11419468407E+03  0.11839583666E+03  0.41079719694E+03  0.00000000000E+00 0. -1.
         -1    1    3    3    0  502  0.39165357562E+03 -0.75802714827E+02  0.19658097554E+03  0.44472761868E+03  0.00000000000E+00 0.  1.
         11    1    5    5    0    0  0.22326323899E+02  0.55290080132E+02 -0.63634510705E+02  0.87205554023E+02  0.00000000000E+00 0.  1.
        -11    1    5    5    0    0  0.31134002474E+02  0.26929796984E+03 -0.72335499387E+02  0.28057645507E+03  0.00000000000E+00 0. -1.
          4    1    6    6  503    0 -0.34882733131E+03 -0.85971517584E+02 -0.36923524667E+02  0.36115779872E+03  0.00000000000E+00 0. -1.
         -4    1    6    6    0  503 -0.47271230971E+03 -0.48619133486E+02  0.37406281906E+02  0.47667596732E+03  0.00000000000E+00 0.  1.
<mgrwt>
<rscale>  0 0.20533105E+04</rscale>
<asrwt>0</asrwt>
<pdfrwt beam="1">  1        2 0.14474239E+00 0.20533105E+04</pdfrwt>
<pdfrwt beam="2">  1       -1 0.17235616E+00 0.20533105E+04</pdfrwt>
<totfact> 0.68702379E+00</totfact>
</mgrwt>
</event>
<event>
12    6  0.1553355E-007  0.1882889E+04  0.7818608E-02  0.8663421E-01
         -1   -1    0    0    0  501 -0.00000000000E+00  0.00000000000E+00  0.26967361293E+03  0.26967361293E+03  0.00000000000E+00 0.  1.
          2   -1    0    0  501    0  0.00000000000E+00 -0.00000000000E+00 -0.32866324867E+04  0.32866324867E+04  0.00000000000E+00 0. -1.
         24    2    1    2    0    0 -0.18867296043E+03 -0.39698156322E+03 -0.22638019636E+04  0.23074099691E+04  0.78419305936E+02 0.  0.
        254    2    1    2    0    0  0.18867296043E+03  0.39698156322E+03 -0.75315691020E+03  0.12488961306E+04  0.89403823522E+03 0.  0.
         23    2    4    4    0    0  0.19703958761E+03  0.17144861494E+03 -0.91507985762E+03  0.95640802480E+03  0.95529772486E+02 0.  0.
         23    2    4    4    0    0 -0.83666271767E+01  0.22553294828E+03  0.16192294741E+03  0.29248810577E+03  0.91624996092E+02 0.  0.
          4    1    3    3  502    0 -0.14051271800E+03 -0.26598028209E+03 -0.17121719515E+04  0.17383964237E+04  0.00000000000E+00 0. -1.
         -3    1    3    3    0  502 -0.48160242433E+02 -0.13100128113E+03 -0.55163001208E+03  0.56901354539E+03  0.00000000000E+00 0.  1.
         11    1    5    5    0    0  0.55934175646E+02  0.80034507426E+02 -0.48298007834E+03  0.49275136779E+03  0.00000000000E+00 0.  1.
        -11    1    5    5    0    0  0.14110541196E+03  0.91414107517E+02 -0.43209977928E+03  0.46365665701E+03  0.00000000000E+00 0. -1.
          1    1    6    6  503    0 -0.16591401442E+02  0.12434717129E+01  0.23503054002E+02  0.28796082566E+02  0.00000000000E+00 0. -1.
         -1    1    6    6    0  503  0.82247742656E+01  0.22428947657E+03  0.13841989341E+03  0.26369202321E+03  0.00000000000E+00 0.  1.
<mgrwt>
<rscale>  0 0.18828893E+04</rscale>
<asrwt>0</asrwt>
<pdfrwt beam="1">  1        2 0.50563577E+00 0.18828893E+04</pdfrwt>
<pdfrwt beam="2">  1       -1 0.41488248E-01 0.18828893E+04</pdfrwt>
<totfact> 0.69488611E+00</totfact>
</mgrwt>
</event>
<event>
12    6  0.1553355E-007  0.1304627E+04  0.7818608E-02  0.9025904E-01
         -1   -1    0    0    0  501 -0.00000000000E+00  0.00000000000E+00  0.20279219759E+03  0.20279219759E+03  0.00000000000E+00 0.  1.
          2   -1    0    0  501    0  0.00000000000E+00 -0.00000000000E+00 -0.20982697885E+04  0.20982697885E+04  0.00000000000E+00 0. -1.
         24    2    1    2    0    0  0.29054494030E+03  0.14922511514E+02 -0.21315203898E+03  0.36955975050E+03  0.80632337099E+02 0.  0.
        254    2    1    2    0    0 -0.29054494030E+03 -0.14922511514E+02 -0.16823255519E+04  0.19315022356E+04  0.90324004546E+03 0.  0.
         23    2    4    4    0    0 -0.16007815267E+03 -0.19253393774E+03 -0.16728159441E+04  0.16938459087E+04  0.90035812133E+02 0.  0.
         23    2    4    4    0    0 -0.13046678763E+03  0.17761142623E+03 -0.95096078384E+01  0.23765632689E+03  0.88446004237E+02 0.  0.
          2    1    3    3  502    0  0.23279701583E+03  0.32561982244E+02 -0.19791095796E+03  0.30728403887E+03  0.00000000000E+00 0. -1.
         -3    1    3    3    0  502  0.57747924469E+02 -0.17639470730E+02 -0.15241081026E+02  0.62275711629E+02  0.00000000000E+00 0.  1.
         11    1    5    5    0    0 -0.54640481672E+02 -0.29497166319E+02 -0.23860773590E+03  0.24655489589E+03  0.00000000000E+00 0.  1.
        -11    1    5    5    0    0 -0.10543767099E+03 -0.16303677143E+03 -0.14342082082E+04  0.14472910128E+04  0.00000000000E+00 0. -1.
          4    1    6    6  503    0 -0.99660635401E+02  0.17641885309E+03  0.68841068226E+01  0.20273935213E+03  0.00000000000E+00 0. -1.
         -4    1    6    6    0  503 -0.30806152232E+02  0.11925731405E+01 -0.16393714661E+02  0.34916974760E+02  0.00000000000E+00 0.  1.
<mgrwt>
<rscale>  0 0.13046268E+04</rscale>
<asrwt>0</asrwt>
<pdfrwt beam="1">  1        2 0.32281073E+00 0.13046268E+04</pdfrwt>
<pdfrwt beam="2">  1       -1 0.31198800E-01 0.13046268E+04</pdfrwt>
<totfact> 0.62682877E+01</totfact>
</mgrwt>
</event>
<event>
12    6  0.1553355E-007  0.2175367E+04  0.7818608E-02  0.8528751E-01
         -1   -1    0    0    0  501 -0.00000000000E+00  0.00000000000E+00  0.50426744881E+03  0.50426744881E+03  0.00000000000E+00 0.  1.
          2   -1    0    0  501    0  0.00000000000E+00 -0.00000000000E+00 -0.23460869179E+04  0.23460869179E+04  0.00000000000E+00 0. -1.
         24    2    1    2    0    0  0.89497613752E+03 -0.21164785962E+02 -0.86466485457E+03  0.12471936698E+04  0.80103086145E+02 0.  0.
        254    2    1    2    0    0 -0.89497613752E+03  0.21164785962E+02 -0.97715461449E+03  0.16031606969E+04  0.90214347223E+03 0.  0.
         23    2    4    4    0    0 -0.64434399338E+03  0.14328496220E+03 -0.94858266051E+02  0.67331408053E+03  0.92973104674E+02 0.  0.
         23    2    4    4    0    0 -0.25063214413E+03 -0.12212017624E+03 -0.88229634844E+03  0.92984661635E+03  0.91858991617E+02 0.  0.
          4    1    3    3  502    0  0.42961143934E+03 -0.26176816007E+02 -0.36466607890E+03  0.56412105403E+03  0.00000000000E+00 0. -1.
         -3    1    3    3    0  502  0.46536469818E+03  0.50120300442E+01 -0.49999877567E+03  0.68307261578E+03  0.00000000000E+00 0.  1.
         11    1    5    5    0    0 -0.24083046222E+03  0.17056717632E+02 -0.72855043571E+01  0.24154362282E+03  0.00000000000E+00 0. -1.
        -11    1    5    5    0    0 -0.40351353116E+03  0.12622824457E+03 -0.87572761694E+02  0.43177045771E+03  0.00000000000E+00 0.  1.
          2    1    6    6  503    0 -0.97577465041E+02 -0.31077277381E+01 -0.24585585172E+03  0.26452999731E+03  0.00000000000E+00 0. -1.
         -2    1    6    6    0  503 -0.15305467909E+03 -0.11901244850E+03 -0.63644049672E+03  0.66531661903E+03  0.00000000000E+00 0.  1.
<mgrwt>
<rscale>  0 0.21753669E+04</rscale>
<asrwt>0</asrwt>
<pdfrwt beam="1">  1        2 0.36093644E+00 0.21753669E+04</pdfrwt>
<pdfrwt beam="2">  1       -1 0.77579609E-01 0.21753669E+04</pdfrwt>
<totfact> 0.74072732E+00</totfact>
</mgrwt>
</event>
<event>
12    6  0.1553355E-007  0.1556948E+04  0.7818608E-02  0.8847442E-01
          2   -1    0    0  501    0  0.00000000000E+00  0.00000000000E+00  0.25095558759E+04  0.25095558759E+04  0.00000000000E+00 0. -1.
         -1   -1    0    0    0  501 -0.00000000000E+00 -0.00000000000E+00 -0.24148578597E+03  0.24148578597E+03  0.00000000000E+00 0.  1.
         24    2    1    2    0    0 -0.54758679269E+02  0.28281849152E+03  0.14835376957E+04  0.15133849713E+04  0.80406248019E+02 0.  0.
        254    2    1    2    0    0  0.54758679269E+02 -0.28281849152E+03  0.78453239420E+03  0.12376566905E+04  0.91286263696E+03 0.  0.
         23    2    4    4    0    0 -0.33173038365E+03 -0.10058687884E+03  0.70806544400E+03  0.79359807126E+03  0.90986032380E+02 0.  0.
         23    2    4    4    0    0  0.38648906292E+03 -0.18223161268E+03  0.76466950199E+02  0.44405861927E+03  0.93587961064E+02 0.  0.
          2    1    3    3  502    0 -0.75369169002E+02  0.23798572284E+03  0.12235801866E+04  0.12487858859E+04  0.00000000000E+00 0. -1.
         -1    1    3    3    0  502  0.20610489733E+02  0.44832768685E+02  0.25995750916E+03  0.26459908542E+03  0.00000000000E+00 0.  1.
         11    1    5    5    0    0 -0.75179054461E+02 -0.15778115652E+02  0.85590948125E+02  0.11500717179E+03  0.00000000000E+00 0.  1.
        -11    1    5    5    0    0 -0.25655132919E+03 -0.84808763192E+02  0.62247449588E+03  0.67859089947E+03  0.00000000000E+00 0. -1.
          1    1    6    6  503    0  0.36139092292E+03 -0.18884986920E+03  0.57240664179E+02  0.41175741147E+03  0.00000000000E+00 0. -1.
         -1    1    6    6    0  503  0.25098139998E+02  0.66182565230E+01  0.19226286020E+02  0.32301207793E+02  0.00000000000E+00 0.  1.
<mgrwt>
<rscale>  0 0.15569484E+04</rscale>
<asrwt>0</asrwt>
<pdfrwt beam="1">  1        2 0.38608550E+00 0.15569484E+04</pdfrwt>
<pdfrwt beam="2">  1       -1 0.37151661E-01 0.15569484E+04</pdfrwt>
<totfact> 0.26304654E+01</totfact>
</mgrwt>
</event>
<event>
12    6  0.1553355E-007  0.1588659E+04  0.7818608E-02  0.8827546E-01
          2   -1    0    0  501    0  0.00000000000E+00  0.00000000000E+00  0.54991248221E+03  0.54991248221E+03  0.00000000000E+00 0. -1.
         -1   -1    0    0    0  501 -0.00000000000E+00 -0.00000000000E+00 -0.11473813566E+04  0.11473813566E+04  0.00000000000E+00 0.  1.
         24    2    1    2    0    0  0.10212335360E+03 -0.11001774205E+03  0.34808030887E+03  0.38686521630E+03  0.77276848050E+02 0.  0.
        254    2    1    2    0    0 -0.10212335360E+03  0.11001774205E+03 -0.94554918325E+03  0.13104286225E+04  0.89477753313E+03 0.  0.
         23    2    4    4    0    0 -0.13727975492E+03  0.12685646218E+03 -0.11040119040E+04  0.11235398745E+04  0.92527143466E+02 0.  0.
         23    2    4    4    0    0  0.35156401316E+02 -0.16838720126E+02  0.15846272079E+03  0.18688874796E+03  0.91090368236E+02 0.  0.
          4    1    3    3  502    0  0.45555482643E+02 -0.71886023095E+02  0.10927098439E+03  0.13850288930E+03  0.00000000000E+00 0. -1.
         -3    1    3    3    0  502  0.56567870958E+02 -0.38131718960E+02  0.23880932447E+03  0.24836232700E+03  0.00000000000E+00 0.  1.
         11    1    5    5    0    0 -0.12719432731E+03  0.61017912439E+02 -0.79657372577E+03  0.80896927205E+03  0.00000000000E+00 0. -1.
        -11    1    5    5    0    0 -0.10085427611E+02  0.65838549741E+02 -0.30743817828E+03  0.31457060248E+03  0.00000000000E+00 0.  1.
          1    1    6    6  503    0  0.42225874096E+02 -0.17097832294E+02  0.16853324989E+03  0.17458183362E+03  0.00000000000E+00 0. -1.
         -1    1    6    6    0  503 -0.70694727802E+01  0.25911216856E+00 -0.10070529093E+02  0.12306914346E+02  0.00000000000E+00 0.  1.
<mgrwt>
<rscale>  0 0.15886590E+04</rscale>
<asrwt>0</asrwt>
<pdfrwt beam="1">  1        2 0.84601921E-01 0.15886590E+04</pdfrwt>
<pdfrwt beam="2">  1       -1 0.17652021E+00 0.15886590E+04</pdfrwt>
<totfact> 0.13315954E+01</totfact>
</mgrwt>
</event>
<event>
12    6  0.1553355E-007  0.2518834E+04  0.7818608E-02  0.8396306E-01
          2   -1    0    0  501    0  0.00000000000E+00  0.00000000000E+00  0.85961929559E+03  0.85961929559E+03  0.00000000000E+00 0. -1.
         -1   -1    0    0    0  501 -0.00000000000E+00 -0.00000000000E+00 -0.18451552864E+04  0.18451552864E+04  0.00000000000E+00 0.  1.
         24    2    1    2    0    0 -0.99062867196E+03  0.46238762821E+03 -0.53080833314E+03  0.12169136610E+04  0.63038776269E+02 0.  0.
        254    2    1    2    0    0  0.99062867196E+03 -0.46238762821E+03 -0.45472765766E+03  0.14878609210E+04  0.90100243794E+03 0.  0.
         23    2    4    4    0    0  0.11276023357E+03  0.11174082579E+03  0.18078353769E+03  0.25790374944E+03  0.92901959350E+02 0.  0.
         23    2    4    4    0    0  0.87786843839E+03 -0.57412845401E+03 -0.63551119535E+03  0.12299571716E+04  0.92971434632E+02 0.  0.
          4    1    3    3  502    0 -0.13684197727E+03  0.74298161214E+02 -0.53949796585E+02  0.16479236649E+03  0.00000000000E+00 0. -1.
         -3    1    3    3    0  502 -0.85378669469E+03  0.38808946700E+03 -0.47685853656E+03  0.10521212945E+04  0.00000000000E+00 0.  1.
         11    1    5    5    0    0  0.48945419827E+02  0.91636100537E+02  0.15415181442E+03  0.18589139553E+03  0.00000000000E+00 0. -1.
        -11    1    5    5    0    0  0.63814813747E+02  0.20104725254E+02  0.26631723271E+02  0.72012353909E+02  0.00000000000E+00 0.  1.
          4    1    6    6  503    0  0.74082061473E+03 -0.46343271981E+03 -0.49263045775E+03  0.10031300199E+04  0.00000000000E+00 0. -1.
         -4    1    6    6    0  503  0.13704782366E+03 -0.11069573420E+03 -0.14288073760E+03  0.22682715163E+03  0.00000000000E+00 0.  1.
<mgrwt>
<rscale>  0 0.25188339E+04</rscale>
<asrwt>0</asrwt>
<pdfrwt beam="1">  1        2 0.13224912E+00 0.25188339E+04</pdfrwt>
<pdfrwt beam="2">  1       -1 0.28387004E+00 0.25188339E+04</pdfrwt>
<totfact> 0.13334001E+00</totfact>
</mgrwt>
</event>
<event>
12    6  0.1553355E-007  0.2213201E+04  0.7818608E-02  0.8512954E-01
         -1   -1    0    0    0  501 -0.00000000000E+00  0.00000000000E+00  0.43770819531E+03  0.43770819531E+03  0.00000000000E+00 0.  1.
          2   -1    0    0  501    0  0.00000000000E+00 -0.00000000000E+00 -0.27976736475E+04  0.27976736475E+04  0.00000000000E+00 0. -1.
         24    2    1    2    0    0 -0.60348767956E+03 -0.70237344679E+03 -0.98379324290E+03  0.13534859278E+04  0.80926966653E+02 0.  0.
        254    2    1    2    0    0  0.60348767956E+03  0.70237344679E+03 -0.13761722093E+04  0.18818959150E+04  0.88890744574E+03 0.  0.
         23    2    4    4    0    0  0.14860543015E+03  0.11593761999E+03 -0.10421257612E+04  0.10629816273E+04  0.91535415610E+02 0.  0.
         23    2    4    4    0    0  0.45488224942E+03  0.58643582680E+03 -0.33404644814E+03  0.81891428769E+03  0.90602104137E+02 0.  0.
          4    1    3    3  502    0 -0.11552304274E+03 -0.10463436490E+03 -0.20058243777E+03  0.25402212121E+03  0.00000000000E+00 0. -1.
         -3    1    3    3    0  502 -0.48796463682E+03 -0.59773908189E+03 -0.78321080514E+03  0.10994638066E+04  0.00000000000E+00 0.  1.
         11    1    5    5    0    0  0.10932582441E+03  0.31683849777E+02 -0.65763464255E+03  0.66741241021E+03  0.00000000000E+00 0. -1.
        -11    1    5    5    0    0  0.39279605741E+02  0.84253770213E+02 -0.38449111864E+03  0.39556921712E+03  0.00000000000E+00 0.  1.
          1    1    6    6  503    0  0.33168335925E+03  0.48393915619E+03 -0.27704575800E+03  0.64881839502E+03  0.00000000000E+00 0. -1.
         -1    1    6    6    0  503  0.12319889017E+03  0.10249667061E+03 -0.57000690145E+02  0.17009589267E+03  0.00000000000E+00 0.  1.
<mgrwt>
<rscale>  0 0.22132010E+04</rscale>
<asrwt>0</asrwt>
<pdfrwt beam="1">  1        2 0.43041132E+00 0.22132010E+04</pdfrwt>
<pdfrwt beam="2">  1       -1 0.67339724E-01 0.22132010E+04</pdfrwt>
<totfact> 0.53866637E+00</totfact>
</mgrwt>
</event>
<event>
12    6  0.1553355E-007  0.2018326E+04  0.7818608E-02  0.8598100E-01
          2   -1    0    0  501    0  0.00000000000E+00  0.00000000000E+00  0.93208075902E+03  0.93208075902E+03  0.00000000000E+00 0. -1.
         -1   -1    0    0    0  501 -0.00000000000E+00 -0.00000000000E+00 -0.10926202054E+04  0.10926202054E+04  0.00000000000E+00 0.  1.
         24    2    1    2    0    0  0.12059152847E+03  0.64774747688E+03 -0.51189129134E+03  0.83817315834E+03  0.79890166316E+02 0.  0.
        254    2    1    2    0    0 -0.12059152847E+03 -0.64774747688E+03  0.35135184494E+03  0.11865278061E+04  0.92210682958E+03 0.  0.
         23    2    4    4    0    0  0.22807014924E+03 -0.48909885721E+03 -0.13212434915E+03  0.56304616122E+03  0.91271303973E+02 0.  0.
         23    2    4    4    0    0 -0.34866167771E+03 -0.15864861968E+03  0.48347619408E+03  0.62348164488E+03  0.90806284097E+02 0.  0.
          4    1    3    3  502    0  0.11212192372E+03  0.63400396420E+03 -0.48226039041E+03  0.80442988293E+03  0.00000000000E+00 0. -1.
         -1    1    3    3    0  502  0.84696047488E+01  0.13743512681E+02 -0.29630900929E+02  0.33743275409E+02  0.00000000000E+00 0.  1.
         11    1    5    5    0    0  0.92056601936E+02 -0.30349503267E+03 -0.81009958130E+02  0.32733204263E+03  0.00000000000E+00 0.  1.
        -11    1    5    5    0    0  0.13601354731E+03 -0.18560382454E+03 -0.51114391019E+02  0.23571411859E+03  0.00000000000E+00 0. -1.
          3    1    6    6  503    0 -0.21620764195E+03 -0.12996469893E+03  0.26105127434E+03  0.36302112231E+03  0.00000000000E+00 0. -1.
         -3    1    6    6    0  503 -0.13245403575E+03 -0.28683920752E+02  0.22242491974E+03  0.26046052258E+03  0.00000000000E+00 0.  1.
<mgrwt>
<rscale>  0 0.20183263E+04</rscale>
<asrwt>0</asrwt>
<pdfrwt beam="1">  1        2 0.14339704E+00 0.20183263E+04</pdfrwt>
<pdfrwt beam="2">  1       -1 0.16809542E+00 0.20183263E+04</pdfrwt>
<totfact> 0.75054941E+00</totfact>
</mgrwt>
</event>
<event>
12    6  0.1553355E-007  0.1272999E+04  0.7818608E-02  0.9051256E-01
         -1   -1    0    0    0  501 -0.00000000000E+00  0.00000000000E+00  0.28801485166E+03  0.28801485166E+03  0.00000000000E+00 0.  1.
          2   -1    0    0  501    0  0.00000000000E+00 -0.00000000000E+00 -0.14066339147E+04  0.14066339147E+04  0.00000000000E+00 0. -1.
         24    2    1    2    0    0 -0.15385358349E+03  0.26916870205E+03 -0.85166079078E+02  0.33163613252E+03  0.81280674534E+02 0.  0.
        254    2    1    2    0    0  0.15385358349E+03 -0.26916870205E+03 -0.10334529840E+04  0.13630126339E+04  0.83285992498E+03 0.  0.
         23    2    4    4    0    0 -0.14235137039E+03 -0.34704263501E+03 -0.13412437277E+03  0.40854797301E+03  0.90661986024E+02 0.  0.
         23    2    4    4    0    0  0.29620495389E+03  0.77873932961E+02 -0.89932861123E+03  0.95446466087E+03  0.91701219886E+02 0.  0.
          2    1    3    3  502    0 -0.12640078097E+02  0.89414874512E+02 -0.39332758419E+02  0.98498006290E+02  0.00000000000E+00 0. -1.
         -1    1    3    3    0  502 -0.14121350540E+03  0.17975382753E+03 -0.45833320659E+02  0.23313812623E+03  0.00000000000E+00 0.  1.
         11    1    5    5    0    0 -0.14171240146E+03 -0.24698007702E+03 -0.85585476648E+02  0.29733219971E+03  0.00000000000E+00 0.  1.
        -11    1    5    5    0    0 -0.63896893301E+00 -0.10006255799E+03 -0.48538896126E+02  0.11121577330E+03  0.00000000000E+00 0. -1.
          2    1    6    6  503    0  0.21973831800E+02 -0.59155350010E+01 -0.15767066505E+03  0.15930436735E+03  0.00000000000E+00 0. -1.
         -2    1    6    6    0  503  0.27423112209E+03  0.83789467962E+02 -0.74165794618E+03  0.79516029352E+03  0.00000000000E+00 0.  1.
<mgrwt>
<rscale>  0 0.12729988E+04</rscale>
<asrwt>0</asrwt>
<pdfrwt beam="1">  1        2 0.21640522E+00 0.12729988E+04</pdfrwt>
<pdfrwt beam="2">  1       -1 0.44309977E-01 0.12729988E+04</pdfrwt>
<totfact> 0.80889446E+01</totfact>
</mgrwt>
</event>
<event>
12    6  0.1553355E-007  0.1552470E+04  0.7818608E-02  0.8850292E-01
         -1   -1    0    0    0  501 -0.00000000000E+00  0.00000000000E+00  0.62420758363E+03  0.62420758363E+03  0.00000000000E+00 0.  1.
          2   -1    0    0  501    0  0.00000000000E+00 -0.00000000000E+00 -0.96528866533E+03  0.96528866533E+03  0.00000000000E+00 0. -1.
         24    2    1    2    0    0 -0.25964414379E+03 -0.34128576305E+03 -0.40399946549E+03  0.59474569908E+03  0.81337721850E+02 0.  0.
        254    2    1    2    0    0  0.25964414379E+03  0.34128576305E+03  0.62918383789E+02  0.99475054988E+03  0.89536522157E+03 0.  0.
         23    2    4    4    0    0  0.26937641211E+03 -0.12358018844E+03  0.32864684114E+03  0.45138225085E+03  0.88890245883E+02 0.  0.
         23    2    4    4    0    0 -0.97322683288E+01  0.46486595149E+03 -0.26572845736E+03  0.54336829903E+03  0.91882672119E+02 0.  0.
          2    1    3    3  502    0 -0.16885637026E+03 -0.19321801425E+03 -0.28879477889E+03  0.38632641525E+03  0.00000000000E+00 0. -1.
         -1    1    3    3    0  502 -0.90787773524E+02 -0.14806774880E+03 -0.11520468660E+03  0.20841928383E+03  0.00000000000E+00 0.  1.
         11    1    5    5    0    0  0.87645203482E+02  0.34076584551E+01  0.93225763863E+02  0.12800131592E+03  0.00000000000E+00 0.  1.
        -11    1    5    5    0    0  0.18173120863E+03 -0.12698784690E+03  0.23542107728E+03  0.32338093493E+03  0.00000000000E+00 0. -1.
          4    1    6    6  503    0  0.39181032685E+02  0.17106400435E+03 -0.85190359319E+02  0.19507804650E+03  0.00000000000E+00 0. -1.
         -4    1    6    6    0  503 -0.48913301014E+02  0.29380194714E+03 -0.18053809804E+03  0.34829025252E+03  0.00000000000E+00 0.  1.
<mgrwt>
<rscale>  0 0.15524697E+04</rscale>
<asrwt>0</asrwt>
<pdfrwt beam="1">  1        2 0.14850595E+00 0.15524697E+04</pdfrwt>
<pdfrwt beam="2">  1       -1 0.96031936E-01 0.15524697E+04</pdfrwt>
<totfact> 0.30451935E+01</totfact>
</mgrwt>
</event>
<event>
12    6  0.1553355E-007  0.2630954E+04  0.7818608E-02  0.8357762E-01
         -1   -1    0    0    0  501 -0.00000000000E+00  0.00000000000E+00  0.11256349206E+04  0.11256349206E+04  0.00000000000E+00 0.  1.
          2   -1    0    0  501    0  0.00000000000E+00 -0.00000000000E+00 -0.15373369427E+04  0.15373369427E+04  0.00000000000E+00 0. -1.
         24    2    1    2    0    0 -0.12353190803E+03  0.14870900173E+03  0.97576184164E+03  0.99783911138E+03  0.78722430742E+02 0.  0.
        254    2    1    2    0    0  0.12353190803E+03 -0.14870900173E+03 -0.13874638637E+04  0.16651327519E+04  0.90013143986E+03 0.  0.
         23    2    4    4    0    0 -0.21505910886E+03 -0.24783300499E+03 -0.12170188924E+04  0.12638907063E+04  0.92806865520E+02 0.  0.
         23    2    4    4    0    0  0.33859101689E+03  0.99124003258E+02 -0.17044497132E+03  0.40124204568E+03  0.86453723104E+02 0.  0.
          4    1    3    3  502    0 -0.51488336242E+02  0.95660602874E+02  0.68695263610E+03  0.69548970083E+03  0.00000000000E+00 0. -1.
         -3    1    3    3    0  502 -0.72043571790E+02  0.53048398853E+02  0.28880920553E+03  0.30234941055E+03  0.00000000000E+00 0.  1.
         11    1    5    5    0    0 -0.20432083651E+03 -0.20634862541E+03 -0.11323912641E+04  0.11690323924E+04  0.00000000000E+00 0. -1.
        -11    1    5    5    0    0 -0.10738272341E+02 -0.41484379577E+02 -0.84627628296E+02  0.94858313884E+02  0.00000000000E+00 0.  1.
          2    1    6    6  503    0  0.80767412777E+02  0.63949393520E+02 -0.49661743428E+02  0.11436428052E+03  0.00000000000E+00 0.  1.
         -2    1    6    6    0  503  0.25782360411E+03  0.35174609738E+02 -0.12078322789E+03  0.28687776517E+03  0.00000000000E+00 0. -1.
<mgrwt>
<rscale>  0 0.26309543E+04</rscale>
<asrwt>0</asrwt>
<pdfrwt beam="1">  1        2 0.23651338E+00 0.26309543E+04</pdfrwt>
<pdfrwt beam="2">  1       -1 0.17317460E+00 0.26309543E+04</pdfrwt>
<totfact> 0.28340137E+00</totfact>
</mgrwt>
</event>
<event>
12    6  0.1553355E-007  0.1623506E+04  0.7818608E-02  0.8806236E-01
          2   -1    0    0  501    0  0.00000000000E+00  0.00000000000E+00  0.28554406370E+03  0.28554406370E+03  0.00000000000E+00 0. -1.
         -1   -1    0    0    0  501 -0.00000000000E+00 -0.00000000000E+00 -0.23076742745E+04  0.23076742745E+04  0.00000000000E+00 0.  1.
         24    2    1    2    0    0 -0.45068102098E+03  0.20164749292E+03 -0.29224399743E+03  0.57928707818E+03  0.79949176574E+02 0.  0.
        254    2    1    2    0    0  0.45068102098E+03 -0.20164749292E+03 -0.17298862134E+04  0.20139312601E+04  0.90533845321E+03 0.  0.
         23    2    4    4    0    0 -0.11998841487E+03  0.52286992199E+02  0.13090471650E+02  0.16008383504E+03  0.91237736363E+02 0.  0.
         23    2    4    4    0    0  0.57066943585E+03 -0.25393448512E+03 -0.17429766851E+04  0.18538474250E+04  0.92931280395E+02 0.  0.
          4    1    3    3  502    0 -0.44294235220E+03  0.20472246488E+03 -0.27495632122E+03  0.56009837849E+03  0.00000000000E+00 0. -1.
         -3    1    3    3    0  502 -0.77386687735E+01 -0.30749719606E+01 -0.17287676213E+02  0.19188699690E+02  0.00000000000E+00 0.  1.
         11    1    5    5    0    0 -0.11121756981E+03  0.10061839533E+02 -0.82308109708E+01  0.11197470562E+03  0.00000000000E+00 0. -1.
        -11    1    5    5    0    0 -0.87708450569E+01  0.42225152666E+02  0.21321282620E+02  0.48109129417E+02  0.00000000000E+00 0.  1.
          1    1    6    6  503    0  0.48949352874E+03 -0.23675563828E+03 -0.15803633620E+04  0.16712885756E+04  0.00000000000E+00 0. -1.
         -1    1    6    6    0  503  0.81175907104E+02 -0.17178846848E+02 -0.16261332309E+03  0.18255884947E+03  0.00000000000E+00 0.  1.
<mgrwt>
<rscale>  0 0.16235057E+04</rscale>
<asrwt>0</asrwt>
<pdfrwt beam="1">  1        2 0.43929858E-01 0.16235057E+04</pdfrwt>
<pdfrwt beam="2">  1       -1 0.35502680E+00 0.16235057E+04</pdfrwt>
<totfact> 0.18365060E+00</totfact>
</mgrwt>
</event>
<event>
12    6  0.1553355E-007  0.2337198E+04  0.7818608E-02  0.8463397E-01
         -1   -1    0    0    0  501 -0.00000000000E+00  0.00000000000E+00  0.42911617313E+03  0.42911617313E+03  0.00000000000E+00 0.  1.
          2   -1    0    0  501    0  0.00000000000E+00 -0.00000000000E+00 -0.31824096759E+04  0.31824096759E+04  0.00000000000E+00 0. -1.
         24    2    1    2    0    0 -0.59994495816E+03  0.27215086173E+03 -0.23220912477E+04  0.24149587450E+04  0.76928104520E+02 0.  0.
        254    2    1    2    0    0  0.59994495816E+03 -0.27215086173E+03 -0.43120225510E+03  0.11965671040E+04  0.90102020246E+03 0.  0.
         23    2    4    4    0    0  0.57403430678E+03 -0.75872702836E+02  0.12511465376E+03  0.59933822169E+03  0.90997664797E+02 0.  0.
         23    2    4    4    0    0  0.25910651384E+02 -0.19627815890E+03 -0.55631690885E+03  0.59722888232E+03  0.89427944700E+02 0.  0.
          4    1    3    3  502    0 -0.36358464008E+02  0.37183598247E+02 -0.21303449990E+03  0.21929034642E+03  0.00000000000E+00 0. -1.
         -3    1    3    3    0  502 -0.56358649415E+03  0.23496726349E+03 -0.21090567478E+04  0.21956683986E+04  0.00000000000E+00 0.  1.
         11    1    5    5    0    0  0.45143254905E+03 -0.21362429095E+02  0.98666492018E+02  0.46258272380E+03  0.00000000000E+00 0. -1.
        -11    1    5    5    0    0  0.12260175773E+03 -0.54510273741E+02  0.26448161738E+02  0.13675549789E+03  0.00000000000E+00 0.  1.
          1    1    6    6  503    0  0.58756880152E+02 -0.12226028552E+03 -0.32619993499E+03  0.35327941628E+03  0.00000000000E+00 0. -1.
         -1    1    6    6    0  503 -0.32846228768E+02 -0.74017873379E+02 -0.23011697386E+03  0.24394946604E+03  0.00000000000E+00 0.  1.
<mgrwt>
<rscale>  0 0.23371979E+04</rscale>
<asrwt>0</asrwt>
<pdfrwt beam="1">  1        2 0.48960147E+00 0.23371979E+04</pdfrwt>
<pdfrwt beam="2">  1       -1 0.66017875E-01 0.23371979E+04</pdfrwt>
<totfact> 0.31873223E+00</totfact>
</mgrwt>
</event>
<event>
12    6  0.1553355E-007  0.1849349E+04  0.7818608E-02  0.8680488E-01
          2   -1    0    0  501    0  0.00000000000E+00  0.00000000000E+00  0.18477769744E+04  0.18477769744E+04  0.00000000000E+00 0. -1.
         -1   -1    0    0    0  501 -0.00000000000E+00 -0.00000000000E+00 -0.46273051196E+03  0.46273051196E+03  0.00000000000E+00 0.  1.
         24    2    1    2    0    0  0.49888280338E+03 -0.45599499877E+03  0.80256876758E+03  0.10520261138E+04  0.76333656065E+02 0.  0.
        254    2    1    2    0    0 -0.49888280338E+03  0.45599499877E+03  0.58247769490E+03  0.12584813726E+04  0.88751316028E+03 0.  0.
         23    2    4    4    0    0 -0.62970980007E+02 -0.19603971590E+03  0.38281905882E+03  0.44382812004E+03  0.89644039466E+02 0.  0.
         23    2    4    4    0    0 -0.43591182337E+03  0.65203471468E+03  0.19965863608E+03  0.81465325254E+03  0.92886834421E+02 0.  0.
          4    1    3    3  502    0  0.45963301968E+03 -0.39062633575E+03  0.69643098730E+03  0.92134009303E+03  0.00000000000E+00 0. -1.
         -3    1    3    3    0  502  0.39249783704E+02 -0.65368663021E+02  0.10613778028E+03  0.13068602079E+03  0.00000000000E+00 0.  1.
         11    1    5    5    0    0 -0.76243811391E+02 -0.18693551532E+03  0.37509728578E+03  0.42597650107E+03  0.00000000000E+00 0. -1.
        -11    1    5    5    0    0  0.13272831384E+02 -0.91042005811E+01  0.77217730431E+01  0.17851618977E+02  0.00000000000E+00 0.  1.
          4    1    6    6  503    0 -0.42330214975E+03  0.58883784167E+03  0.17876292081E+03  0.74690755494E+03  0.00000000000E+00 0. -1.
         -4    1    6    6    0  503 -0.12609673622E+02  0.63196873007E+02  0.20895715268E+02  0.67745697600E+02  0.00000000000E+00 0.  1.
<mgrwt>
<rscale>  0 0.18493488E+04</rscale>
<asrwt>0</asrwt>
<pdfrwt beam="1">  1        2 0.28427338E+00 0.18493488E+04</pdfrwt>
<pdfrwt beam="2">  1       -1 0.71189311E-01 0.18493488E+04</pdfrwt>
<totfact> 0.17323476E+01</totfact>
</mgrwt>
</event>
<event>
12    6  0.1553355E-007  0.2233671E+04  0.7818608E-02  0.8504543E-01
          2   -1    0    0  501    0  0.00000000000E+00  0.00000000000E+00  0.18622104563E+04  0.18622104563E+04  0.00000000000E+00 0. -1.
         -1   -1    0    0    0  501 -0.00000000000E+00 -0.00000000000E+00 -0.66980681617E+03  0.66980681617E+03  0.00000000000E+00 0.  1.
         24    2    1    2    0    0 -0.90772897263E+03  0.11681332046E+03  0.25323359584E+03  0.95312138639E+03  0.81828378620E+02 0.  0.
        254    2    1    2    0    0  0.90772897263E+03 -0.11681332046E+03  0.93917004426E+03  0.15788958860E+04  0.87934896791E+03 0.  0.
         23    2    4    4    0    0  0.84878308091E+03  0.24327824809E+03  0.72392388071E+03  0.11453079915E+04  0.89708338009E+02 0.  0.
         23    2    4    4    0    0  0.58945891720E+02 -0.36009156855E+03  0.21524616355E+03  0.43358789455E+03  0.92341732109E+02 0.  0.
          4    1    3    3  502    0 -0.13360403043E+03  0.15275233601E+02  0.78106583947E+01  0.13470106196E+03  0.00000000000E+00 0. -1.
         -3    1    3    3    0  502 -0.77412494220E+03  0.10153808686E+03  0.24542293745E+03  0.81842032443E+03  0.00000000000E+00 0.  1.
         11    1    5    5    0    0  0.53871225596E+03  0.14302360279E+03  0.40185964851E+03  0.68713741186E+03  0.00000000000E+00 0.  1.
        -11    1    5    5    0    0  0.31007082495E+03  0.10025464530E+03  0.32206423220E+03  0.45817057964E+03  0.00000000000E+00 0. -1.
          4    1    6    6  503    0  0.48686996463E+02 -0.35108595580E+03  0.22213123311E+03  0.41829900395E+03  0.00000000000E+00 0.  1.
         -4    1    6    6    0  503  0.10258895257E+02 -0.90056127470E+01 -0.68850695618E+01  0.15288890598E+02  0.00000000000E+00 0. -1.
<mgrwt>
<rscale>  0 0.22336708E+04</rscale>
<asrwt>0</asrwt>
<pdfrwt beam="1">  1        2 0.28649391E+00 0.22336708E+04</pdfrwt>
<pdfrwt beam="2">  1       -1 0.10304720E+00 0.22336708E+04</pdfrwt>
<totfact> 0.73542371E+00</totfact>
</mgrwt>
</event>
<event>
12    6  0.1553355E-007  0.1095075E+04  0.7818608E-02  0.9210005E-01
          2   -1    0    0  501    0  0.00000000000E+00  0.00000000000E+00  0.10270221703E+04  0.10270221703E+04  0.00000000000E+00 0. -1.
         -1   -1    0    0    0  501 -0.00000000000E+00 -0.00000000000E+00 -0.29190953299E+03  0.29190953299E+03  0.00000000000E+00 0.  1.
         24    2    1    2    0    0 -0.20286517679E+02  0.24324156310E+00 -0.90081718855E+02  0.12421837663E+03  0.83089632648E+02 0.  0.
        254    2    1    2    0    0  0.20286517679E+02 -0.24324156310E+00  0.82519435617E+03  0.11947133267E+04  0.86370284560E+03 0.  0.
         23    2    4    4    0    0  0.42599397545E+03 -0.56657122395E+02  0.35132063638E+03  0.56226037991E+03  0.89608306714E+02 0.  0.
         23    2    4    4    0    0 -0.40570745777E+03  0.56413880832E+02  0.47387371978E+03  0.63245294676E+03  0.87517771463E+02 0.  0.
          4    1    3    3  502    0  0.11804650779E+02 -0.35518196272E+02 -0.37282972845E+02  0.52829083946E+02  0.00000000000E+00 0. -1.
         -3    1    3    3    0  502 -0.32091168458E+02  0.35761437835E+02 -0.52798746011E+02  0.71389292680E+02  0.00000000000E+00 0.  1.
         11    1    5    5    0    0  0.12871052319E+03  0.92296682021E+01  0.65843161281E+02  0.14486858681E+03  0.00000000000E+00 0.  1.
        -11    1    5    5    0    0  0.29728345225E+03 -0.65886790597E+02  0.28547747510E+03  0.41739179310E+03  0.00000000000E+00 0. -1.
          1    1    6    6  503    0 -0.38359644918E+03  0.35953811362E+02  0.45766511173E+03  0.59824432038E+03  0.00000000000E+00 0. -1.
         -1    1    6    6    0  503 -0.22111008591E+02  0.20460069470E+02  0.16208608057E+02  0.34208626380E+02  0.00000000000E+00 0.  1.
<mgrwt>
<rscale>  0 0.10950755E+04</rscale>
<asrwt>0</asrwt>
<pdfrwt beam="1">  1        2 0.15800341E+00 0.10950755E+04</pdfrwt>
<pdfrwt beam="2">  1       -1 0.44909160E-01 0.10950755E+04</pdfrwt>
<totfact> 0.13468918E+02</totfact>
</mgrwt>
</event>
<event>
12    6  0.1553355E-007  0.1587723E+04  0.7818608E-02  0.8828126E-01
         -1   -1    0    0    0  501 -0.00000000000E+00  0.00000000000E+00  0.26719760482E+03  0.26719760482E+03  0.00000000000E+00 0.  1.
          2   -1    0    0  501    0  0.00000000000E+00 -0.00000000000E+00 -0.23586152550E+04  0.23586152550E+04  0.00000000000E+00 0. -1.
         24    2    1    2    0    0  0.35964124161E+02  0.36955153456E+03 -0.68006378045E+02  0.38597797826E+03  0.80575289782E+02 0.  0.
        254    2    1    2    0    0 -0.35964124161E+02 -0.36955153456E+03 -0.20234112722E+04  0.22398348816E+04  0.88589241193E+03 0.  0.
         23    2    4    4    0    0  0.14622349385E+03 -0.19457098999E+03 -0.19425634547E+04  0.19598379202E+04  0.90403084413E+02 0.  0.
         23    2    4    4    0    0 -0.18218761801E+03 -0.17498054457E+03 -0.80847817467E+02  0.27999696137E+03  0.89729647587E+02 0.  0.
          4    1    3    3  502    0 -0.22179113165E+02  0.10250561840E+03 -0.23694216991E+01  0.10490438038E+03  0.00000000000E+00 0. -1.
         -3    1    3    3    0  502  0.58143237326E+02  0.26704591616E+03 -0.65636956346E+02  0.28107359787E+03  0.00000000000E+00 0.  1.
         11    1    5    5    0    0  0.15819709394E+03 -0.17458311569E+03 -0.18058112209E+04  0.18211149745E+04  0.00000000000E+00 0.  1.
        -11    1    5    5    0    0 -0.11973600097E+02 -0.19987874302E+02 -0.13675223379E+03  0.13872294571E+03  0.00000000000E+00 0. -1.
          4    1    6    6  503    0 -0.16223074529E+03 -0.10517828522E+03 -0.74209435789E+02  0.20709497039E+03  0.00000000000E+00 0.  1.
         -4    1    6    6    0  503 -0.19956872719E+02 -0.69802259346E+02 -0.66383816782E+01  0.72901990987E+02  0.00000000000E+00 0. -1.
<mgrwt>
<rscale>  0 0.15877233E+04</rscale>
<asrwt>0</asrwt>
<pdfrwt beam="1">  1        2 0.36286390E+00 0.15877233E+04</pdfrwt>
<pdfrwt beam="2">  1       -1 0.41107322E-01 0.15877233E+04</pdfrwt>
<totfact> 0.26623282E+01</totfact>
</mgrwt>
</event>
<event>
12    6  0.1553355E-007  0.1457226E+04  0.7818608E-02  0.8913406E-01
          2   -1    0    0  501    0  0.00000000000E+00  0.00000000000E+00  0.18090472087E+04  0.18090472087E+04  0.00000000000E+00 0. -1.
         -1   -1    0    0    0  501 -0.00000000000E+00 -0.00000000000E+00 -0.29345643948E+03  0.29345643948E+03  0.00000000000E+00 0.  1.
         24    2    1    2    0    0  0.33104942084E+03 -0.25191042524E+02  0.43071318565E+02  0.34447767956E+03  0.81125985778E+02 0.  0.
        254    2    1    2    0    0 -0.33104942084E+03  0.25191042524E+02  0.14725194507E+04  0.17580259686E+04  0.90117338295E+03 0.  0.
         23    2    4    4    0    0  0.23501421919E+03  0.21408442875E+02  0.94563254416E+03  0.97938578266E+03  0.96361807992E+02 0.  0.
         23    2    4    4    0    0 -0.56606364003E+03  0.37825996496E+01  0.52688690649E+03  0.77864018597E+03  0.90710387202E+02 0.  0.
          4    1    3    3  502    0  0.11211572270E+03  0.29772282195E+02  0.17282241527E+02  0.11728171186E+03  0.00000000000E+00 0. -1.
         -1    1    3    3    0  502  0.21893369814E+03 -0.54963324719E+02  0.25789077038E+02  0.22719596770E+03  0.00000000000E+00 0.  1.
         11    1    5    5    0    0  0.15629077451E+03  0.19115203249E+02  0.78315579613E+03  0.79882738949E+03  0.00000000000E+00 0.  1.
        -11    1    5    5    0    0  0.78723444678E+02  0.22932396256E+01  0.16247674804E+03  0.18055839317E+03  0.00000000000E+00 0. -1.
          1    1    6    6  503    0 -0.12585415591E+03 -0.10367172973E+02  0.16994071813E+03  0.21172291920E+03  0.00000000000E+00 0. -1.
         -1    1    6    6    0  503 -0.44020948412E+03  0.14149772622E+02  0.35694618835E+03  0.56691726677E+03  0.00000000000E+00 0.  1.
<mgrwt>
<rscale>  0 0.14572255E+04</rscale>
<asrwt>0</asrwt>
<pdfrwt beam="1">  1        2 0.27831495E+00 0.14572255E+04</pdfrwt>
<pdfrwt beam="2">  1       -1 0.45147146E-01 0.14572255E+04</pdfrwt>
<totfact> 0.45846815E+01</totfact>
</mgrwt>
</event>
<event>
12    6  0.1553355E-007  0.2091485E+04  0.7818608E-02  0.8565004E-01
         -1   -1    0    0    0  501 -0.00000000000E+00  0.00000000000E+00  0.60454622692E+03  0.60454622692E+03  0.00000000000E+00 0.  1.
          2   -1    0    0  501    0  0.00000000000E+00 -0.00000000000E+00 -0.18089224610E+04  0.18089224610E+04  0.00000000000E+00 0. -1.
         24    2    1    2    0    0 -0.59391360594E+03  0.60318926079E+03 -0.37618990812E+03  0.92988806206E+03  0.81254571226E+02 0.  0.
        254    2    1    2    0    0  0.59391360594E+03 -0.60318926079E+03 -0.82818632597E+03  0.14835806259E+04  0.89361525686E+03 0.  0.
         23    2    4    4    0    0  0.10370147054E+03  0.20328707476E+03 -0.36632422765E+02  0.24838457130E+03  0.90957853452E+02 0.  0.
         23    2    4    4    0    0  0.49021213540E+03 -0.80647633555E+03 -0.79155390321E+03  0.12351960546E+04  0.91867807553E+02 0.  0.
          4    1    3    3  502    0 -0.20125421493E+03  0.17083592172E+03 -0.14959313206E+03  0.30342425140E+03  0.00000000000E+00 0. -1.
         -3    1    3    3    0  502 -0.39265939101E+03  0.43235333907E+03 -0.22659677606E+03  0.62646381067E+03  0.00000000000E+00 0.  1.
         11    1    5    5    0    0  0.18444702225E+02  0.12623604677E+03 -0.39128095804E+02  0.13344195152E+03  0.00000000000E+00 0.  1.
        -11    1    5    5    0    0  0.85256768313E+02  0.77051027994E+02  0.24956730394E+01  0.11494261978E+03  0.00000000000E+00 0. -1.
          3    1    6    6  503    0  0.16374197882E+03 -0.35520557080E+03 -0.33644401978E+03  0.51592345518E+03  0.00000000000E+00 0. -1.
         -3    1    6    6    0  503  0.32647015658E+03 -0.45127076475E+03 -0.45510988342E+03  0.71927259940E+03  0.00000000000E+00 0.  1.
<mgrwt>
<rscale>  0 0.20914849E+04</rscale>
<asrwt>0</asrwt>
<pdfrwt beam="1">  1        2 0.27829576E+00 0.20914849E+04</pdfrwt>
<pdfrwt beam="2">  1       -1 0.93007113E-01 0.20914849E+04</pdfrwt>
<totfact> 0.10058307E+01</totfact>
</mgrwt>
</event>
<event>
12    6  0.1553355E-007  0.1427083E+04  0.7818608E-02  0.8934444E-01
         -1   -1    0    0    0  501 -0.00000000000E+00  0.00000000000E+00  0.68003941460E+03  0.68003941460E+03  0.00000000000E+00 0.  1.
          2   -1    0    0  501    0  0.00000000000E+00 -0.00000000000E+00 -0.74869445179E+03  0.74869445179E+03  0.00000000000E+00 0. -1.
         24    2    1    2    0    0 -0.35257607214E+03  0.10051024807E+03 -0.34587647262E+03  0.51086560592E+03  0.83312282348E+02 0.  0.
        254    2    1    2    0    0  0.35257607214E+03 -0.10051024807E+03  0.27722143544E+03  0.91786826046E+03  0.79449243085E+03 0.  0.
         23    2    4    4    0    0 -0.20143157491E+02 -0.79003429372E+01 -0.24514501625E+03  0.26264281351E+03  0.91744243872E+02 0.  0.
         23    2    4    4    0    0  0.37271922964E+03 -0.92609905130E+02  0.52236645169E+03  0.65522544695E+03  0.94643847184E+02 0.  0.
          4    1    3    3  502    0 -0.83004803332E+02  0.37868192244E+02 -0.13494845690E+03  0.16289531417E+03  0.00000000000E+00 0. -1.
         -3    1    3    3    0  502 -0.26957126881E+03  0.62642055823E+02 -0.21092801572E+03  0.34797029176E+03  0.00000000000E+00 0.  1.
         11    1    5    5    0    0  0.19304959980E+02 -0.18187105400E+02 -0.18443786223E+02  0.32305193590E+02  0.00000000000E+00 0.  1.
        -11    1    5    5    0    0 -0.39448117472E+02  0.10286762463E+02 -0.22670123003E+03  0.23033761992E+03  0.00000000000E+00 0. -1.
          1    1    6    6  503    0  0.29633323203E+03 -0.32728382009E+02  0.40565995742E+03  0.50343274868E+03  0.00000000000E+00 0. -1.
         -1    1    6    6    0  503  0.76385997605E+02 -0.59881523121E+02  0.11670649427E+03  0.15179269826E+03  0.00000000000E+00 0.  1.
<mgrwt>
<rscale>  0 0.14270834E+04</rscale>
<asrwt>0</asrwt>
<pdfrwt beam="1">  1        2 0.11518376E+00 0.14270834E+04</pdfrwt>
<pdfrwt beam="2">  1       -1 0.10462145E+00 0.14270834E+04</pdfrwt>
<totfact> 0.35810750E+01</totfact>
</mgrwt>
</event>
<event>
12    6  0.1553355E-007  0.1417056E+04  0.7818608E-02  0.8941564E-01
         -1   -1    0    0    0  501 -0.00000000000E+00  0.00000000000E+00  0.19728652801E+03  0.19728652801E+03  0.00000000000E+00 0.  1.
          2   -1    0    0  501    0  0.00000000000E+00 -0.00000000000E+00 -0.25445829814E+04  0.25445829814E+04  0.00000000000E+00 0. -1.
         24    2    1    2    0    0  0.20957353351E+03 -0.29132258651E+03 -0.29488580957E+03  0.47140108512E+03  0.80445180162E+02 0.  0.
        254    2    1    2    0    0 -0.20957353351E+03  0.29132258651E+03 -0.20524106439E+04  0.22704684243E+04  0.90213496745E+03 0.  0.
         23    2    4    4    0    0 -0.19045334181E+03 -0.22212126679E+03 -0.25448016124E+03  0.39831171812E+03  0.91004064550E+02 0.  0.
         23    2    4    4    0    0 -0.19120191702E+02  0.51344385329E+03 -0.17979304826E+04  0.18721567062E+04  0.91796187434E+02 0.  0.
          4    1    3    3  502    0  0.67577733807E+02 -0.52803068496E+02 -0.10259034100E+03  0.13371496631E+03  0.00000000000E+00 0. -1.
         -3    1    3    3    0  502  0.14199579971E+03 -0.23851951801E+03 -0.19229546858E+03  0.33768611882E+03  0.00000000000E+00 0.  1.
         11    1    5    5    0    0 -0.19082723806E+03 -0.22958301432E+03 -0.24471659103E+03  0.38601762288E+03  0.00000000000E+00 0.  1.
        -11    1    5    5    0    0  0.37389624927E+00  0.74617475314E+01 -0.97635702071E+01  0.12294095242E+02  0.00000000000E+00 0. -1.
          1    1    6    6  503    0  0.42320706886E+01  0.28939466911E+03 -0.11622121213E+04  0.11977078942E+04  0.00000000000E+00 0. -1.
         -1    1    6    6    0  503 -0.23352262390E+02  0.22404918419E+03 -0.63571836133E+03  0.67444881201E+03  0.00000000000E+00 0.  1.
<mgrwt>
<rscale>  0 0.14170560E+04</rscale>
<asrwt>0</asrwt>
<pdfrwt beam="1">  1        2 0.39147429E+00 0.14170560E+04</pdfrwt>
<pdfrwt beam="2">  1       -1 0.30351775E-01 0.14170560E+04</pdfrwt>
<totfact> 0.36435715E+01</totfact>
</mgrwt>
</event>
<event>
12    6  0.1553355E-007  0.1984904E+04  0.7818608E-02  0.8613711E-01
          2   -1    0    0  501    0  0.00000000000E+00  0.00000000000E+00  0.57673905171E+03  0.57673905171E+03  0.00000000000E+00 0. -1.
         -1   -1    0    0    0  501 -0.00000000000E+00 -0.00000000000E+00 -0.17078102390E+04  0.17078102390E+04  0.00000000000E+00 0.  1.
         24    2    1    2    0    0  0.72887370074E+03 -0.29258027320E+03 -0.36764282492E+03  0.87112836617E+03  0.82724215004E+02 0.  0.
        254    2    1    2    0    0 -0.72887370074E+03  0.29258027320E+03 -0.76342836233E+03  0.14134209245E+04  0.89335085912E+03 0.  0.
         23    2    4    4    0    0 -0.68289620808E+03  0.56860488958E+03 -0.54007472005E+03  0.10438647286E+04  0.91181780031E+02 0.  0.
         23    2    4    4    0    0 -0.45977492660E+02 -0.27602461638E+03 -0.22335364229E+03  0.36955619585E+03  0.91550061093E+02 0.  0.
          4    1    3    3  502    0  0.66278955620E+03 -0.25029371995E+03 -0.35210991072E+03  0.79115000555E+03  0.00000000000E+00 0. -1.
         -3    1    3    3    0  502  0.66084144540E+02 -0.42286553245E+02 -0.15532914200E+02  0.79978360626E+02  0.00000000000E+00 0.  1.
         11    1    5    5    0    0 -0.13810789050E+03  0.11915182784E+03 -0.69509206681E+02  0.19519855867E+03  0.00000000000E+00 0. -1.
        -11    1    5    5    0    0 -0.54478831757E+03  0.44945306175E+03 -0.47056551337E+03  0.84866616997E+03  0.00000000000E+00 0.  1.
          2    1    6    6  503    0 -0.42560688727E+01 -0.23101620405E+03 -0.19315780440E+03  0.30115865928E+03  0.00000000000E+00 0.  1.
         -2    1    6    6    0  503 -0.41721423787E+02 -0.45008412331E+02 -0.30195837890E+02  0.68397536573E+02  0.00000000000E+00 0. -1.
<mgrwt>
<rscale>  0 0.19849039E+04</rscale>
<asrwt>0</asrwt>
<pdfrwt beam="1">  1        2 0.88729086E-01 0.19849039E+04</pdfrwt>
<pdfrwt beam="2">  1       -1 0.26274003E+00 0.19849039E+04</pdfrwt>
<totfact> 0.31830596E+00</totfact>
</mgrwt>
</event>
<event>
12    6  0.1553355E-007  0.1280901E+04  0.7818608E-02  0.9044849E-01
          2   -1    0    0  501    0  0.00000000000E+00  0.00000000000E+00  0.13792027777E+04  0.13792027777E+04  0.00000000000E+00 0. -1.
         -1   -1    0    0    0  501 -0.00000000000E+00 -0.00000000000E+00 -0.29740152800E+03  0.29740152800E+03  0.00000000000E+00 0.  1.
         24    2    1    2    0    0  0.17493228020E+03 -0.23759343923E+03  0.11637814561E+03  0.32720292058E+03  0.80411028079E+02 0.  0.
        254    2    1    2    0    0 -0.17493228020E+03  0.23759343923E+03  0.96542310413E+03  0.13494013852E+04  0.89542748633E+03 0.  0.
         23    2    4    4    0    0 -0.15785138091E+03 -0.31197865217E+03  0.52678613031E+03  0.63980843240E+03  0.97997271460E+02 0.  0.
         23    2    4    4    0    0 -0.17080899296E+02  0.54957209140E+03  0.43863697381E+03  0.70959295277E+03  0.93800442748E+02 0.  0.
          4    1    3    3  502    0  0.23733503709E+02 -0.52667795224E+02 -0.72771764253E+01  0.58224849925E+02  0.00000000000E+00 0. -1.
         -3    1    3    3    0  502  0.15119877649E+03 -0.18492564401E+03  0.12365532204E+03  0.26897807066E+03  0.00000000000E+00 0.  1.
         11    1    5    5    0    0 -0.46264439351E+02 -0.33013148201E+02  0.13182148638E+03  0.14355197865E+03  0.00000000000E+00 0.  1.
        -11    1    5    5    0    0 -0.11158694156E+03 -0.27896550396E+03  0.39496464393E+03  0.49625645374E+03  0.00000000000E+00 0. -1.
          3    1    6    6  503    0 -0.52902789521E+02  0.34511789009E+03  0.25370032500E+03  0.43158882991E+03  0.00000000000E+00 0. -1.
         -3    1    6    6    0  503  0.35821890225E+02  0.20445420131E+03  0.18493664882E+03  0.27800412286E+03  0.00000000000E+00 0.  1.
<mgrwt>
<rscale>  0 0.12809013E+04</rscale>
<asrwt>0</asrwt>
<pdfrwt beam="1">  1        2 0.21218504E+00 0.12809013E+04</pdfrwt>
<pdfrwt beam="2">  1       -1 0.45754082E-01 0.12809013E+04</pdfrwt>
<totfact> 0.78954666E+01</totfact>
</mgrwt>
</event>
<event>
12    6  0.1553355E-007  0.1282363E+04  0.7818608E-02  0.9043670E-01
          2   -1    0    0  501    0  0.00000000000E+00  0.00000000000E+00  0.67643175877E+03  0.67643175877E+03  0.00000000000E+00 0. -1.
         -1   -1    0    0    0  501 -0.00000000000E+00 -0.00000000000E+00 -0.60776812084E+03  0.60776812084E+03  0.00000000000E+00 0.  1.
         24    2    1    2    0    0  0.17631499953E+03  0.19715019652E+03 -0.16311213598E+03  0.32086387064E+03  0.79955459698E+02 0.  0.
        254    2    1    2    0    0 -0.17631499953E+03 -0.19715019652E+03  0.23177577391E+03  0.96333600897E+03  0.89685064407E+03 0.  0.
         23    2    4    4    0    0 -0.29634895932E+03  0.24962723650E+03 -0.68399993088E+02  0.40403710786E+03  0.91820273299E+02 0.  0.
         23    2    4    4    0    0  0.12003395979E+03 -0.44677743302E+03  0.30017576699E+03  0.55929890111E+03  0.93228448116E+02 0.  0.
          2    1    3    3  502    0  0.19253401366E+02  0.74659077023E+02 -0.47664495014E+02  0.90645327133E+02  0.00000000000E+00 0. -1.
         -1    1    3    3    0  502  0.15706159816E+03  0.12249111950E+03 -0.11544764096E+03  0.23021854351E+03  0.00000000000E+00 0.  1.
         11    1    5    5    0    0 -0.29096542465E+03  0.23838886908E+03 -0.46734884672E+02  0.37904390338E+03  0.00000000000E+00 0.  1.
        -11    1    5    5    0    0 -0.53835346609E+01  0.11238367417E+02 -0.21665108416E+02  0.24993204483E+02  0.00000000000E+00 0. -1.
          1    1    6    6  503    0 -0.78307809930E+01 -0.22029857233E+01  0.56907962920E+00  0.81546384764E+01  0.00000000000E+00 0. -1.
         -1    1    6    6    0  503  0.12786474078E+03 -0.44457444729E+03  0.29960668737E+03  0.55114426263E+03  0.00000000000E+00 0.  1.
<mgrwt>
<rscale>  0 0.12823629E+04</rscale>
<asrwt>0</asrwt>
<pdfrwt beam="1">  1        2 0.10406642E+00 0.12823629E+04</pdfrwt>
<pdfrwt beam="2">  1       -1 0.93502788E-01 0.12823629E+04</pdfrwt>
<totfact> 0.53245754E+01</totfact>
</mgrwt>
</event>
<event>
12    6  0.1553355E-007  0.2200810E+04  0.7818608E-02  0.8518091E-01
          2   -1    0    0  501    0  0.00000000000E+00  0.00000000000E+00  0.14500376568E+04  0.14500376568E+04  0.00000000000E+00 0. -1.
         -1   -1    0    0    0  501 -0.00000000000E+00 -0.00000000000E+00 -0.83507551836E+03  0.83507551836E+03  0.00000000000E+00 0.  1.
         24    2    1    2    0    0  0.39058702987E+03  0.45928187182E+03 -0.44713182179E+03  0.75485348693E+03  0.79867734243E+02 0.  0.
        254    2    1    2    0    0 -0.39058702987E+03 -0.45928187182E+03  0.10620939603E+04  0.15302596883E+04  0.92203745443E+03 0.  0.
         23    2    4    4    0    0 -0.18708458077E+02 -0.60306089136E+03  0.33562318099E+03  0.69659848675E+03  0.92596366180E+02 0.  0.
         23    2    4    4    0    0 -0.37187857180E+03  0.14377901954E+03  0.72647077927E+03  0.83366120150E+03  0.90912744630E+02 0.  0.
          2    1    3    3  502    0  0.47589628060E+02  0.59574318117E+02 -0.26230329661E+02  0.80634374011E+02  0.00000000000E+00 0. -1.
         -1    1    3    3    0  502  0.34299740181E+03  0.39970755371E+03 -0.42090149213E+03  0.67421911292E+03  0.00000000000E+00 0.  1.
         11    1    5    5    0    0 -0.29706183985E+02 -0.61646268727E+02  0.29321064668E+02  0.74447596658E+02  0.00000000000E+00 0.  1.
        -11    1    5    5    0    0  0.10997725908E+02 -0.54141462264E+03  0.30630211632E+03  0.62215089009E+03  0.00000000000E+00 0. -1.
          1    1    6    6  503    0 -0.30837508812E+03  0.10204343077E+03  0.64548732532E+03  0.72260773860E+03  0.00000000000E+00 0. -1.
         -1    1    6    6    0  503 -0.63503483672E+02  0.41735588773E+02  0.80983453956E+02  0.11105346291E+03  0.00000000000E+00 0.  1.
<mgrwt>
<rscale>  0 0.22008098E+04</rscale>
<asrwt>0</asrwt>
<pdfrwt beam="1">  1        2 0.22308272E+00 0.22008098E+04</pdfrwt>
<pdfrwt beam="2">  1       -1 0.12847316E+00 0.22008098E+04</pdfrwt>
<totfact> 0.73724965E+00</totfact>
</mgrwt>
</event>
<event>
12    6  0.1553355E-007  0.1209905E+04  0.7818608E-02  0.9104230E-01
          2   -1    0    0  501    0  0.00000000000E+00  0.00000000000E+00  0.24208876681E+04  0.24208876681E+04  0.00000000000E+00 0. -1.
         -1   -1    0    0    0  501 -0.00000000000E+00 -0.00000000000E+00 -0.15117087522E+03  0.15117087522E+03  0.00000000000E+00 0.  1.
         24    2    1    2    0    0 -0.25675691890E+03  0.16702533377E+01  0.26341633562E+03  0.37682631761E+03  0.81749633760E+02 0.  0.
        254    2    1    2    0    0  0.25675691890E+03 -0.16702533377E+01  0.20063004573E+04  0.21952322257E+04  0.85315654768E+03 0.  0.
         23    2    4    4    0    0  0.90577407537E+02  0.14672515098E+03  0.22209382327E+02  0.19647679282E+03  0.91527792335E+02 0.  0.
         23    2    4    4    0    0  0.16617951136E+03 -0.14839540431E+03  0.19840910750E+04  0.19987554329E+04  0.93643263707E+02 0.  0.
          4    1    3    3  502    0 -0.12147082730E+03  0.40396612337E+02  0.13936297587E+03  0.18923289148E+03  0.00000000000E+00 0. -1.
         -3    1    3    3    0  502 -0.13528609160E+03 -0.38726359000E+02  0.12405335975E+03  0.18759342613E+03  0.00000000000E+00 0.  1.
         11    1    5    5    0    0  0.65343291764E+02  0.10912703181E+03  0.56991423874E+02  0.13937889814E+03  0.00000000000E+00 0.  1.
        -11    1    5    5    0    0  0.25234115773E+02  0.37598119163E+02 -0.34782041546E+02  0.57097894686E+02  0.00000000000E+00 0. -1.
          2    1    6    6  503    0  0.10628351997E+03 -0.43649561598E+02  0.11922894487E+04  0.11978128403E+04  0.00000000000E+00 0. -1.
         -2    1    6    6    0  503  0.59895991389E+02 -0.10474584272E+03  0.79180162623E+03  0.80094259261E+03  0.00000000000E+00 0.  1.
<mgrwt>
<rscale>  0 0.12099053E+04</rscale>
<asrwt>0</asrwt>
<pdfrwt beam="1">  1        2 0.37244423E+00 0.12099053E+04</pdfrwt>
<pdfrwt beam="2">  1       -1 0.23257060E-01 0.12099053E+04</pdfrwt>
<totfact> 0.69211593E+01</totfact>
</mgrwt>
</event>
<event>
12    6  0.1553355E-007  0.1545393E+04  0.7818608E-02  0.8854816E-01
         -1   -1    0    0    0  501 -0.00000000000E+00  0.00000000000E+00  0.92410237519E+03  0.92410237519E+03  0.00000000000E+00 0.  1.
          2   -1    0    0  501    0  0.00000000000E+00 -0.00000000000E+00 -0.64609746335E+03  0.64609746335E+03  0.00000000000E+00 0. -1.
         24    2    1    2    0    0 -0.32715875415E+02 -0.50527463565E+03  0.59772403152E+02  0.51595219510E+03  0.79127375232E+02 0.  0.
        254    2    1    2    0    0  0.32715875415E+02  0.50527463565E+03  0.21823250868E+03  0.10542476434E+04  0.89857658545E+03 0.  0.
         23    2    4    4    0    0  0.19359436402E+03  0.30339018265E+03 -0.29381954470E+03  0.47377129127E+03  0.92762766628E+02 0.  0.
         23    2    4    4    0    0 -0.16087848860E+03  0.20188445300E+03  0.51205205339E+03  0.58047635217E+03  0.90090341307E+02 0.  0.
          4    1    3    3  502    0 -0.46716406787E+02 -0.42371703250E+03  0.71938600716E+02  0.43231204999E+03  0.00000000000E+00 0. -1.
         -3    1    3    3    0  502  0.14000531372E+02 -0.81557603159E+02 -0.12166197564E+02  0.83640145115E+02  0.00000000000E+00 0.  1.
         11    1    5    5    0    0  0.14532462636E+03  0.15436406022E+03 -0.19832197326E+03  0.29030865504E+03  0.00000000000E+00 0. -1.
        -11    1    5    5    0    0  0.48269737654E+02  0.14902612243E+03 -0.95497571448E+02  0.18346263623E+03  0.00000000000E+00 0.  1.
          1    1    6    6  503    0 -0.13935910022E+03  0.18807294847E+03  0.38261944338E+03  0.44854211755E+03  0.00000000000E+00 0. -1.
         -1    1    6    6    0  503 -0.21519388387E+02  0.13811504531E+02  0.12943261001E+03  0.13193423463E+03  0.00000000000E+00 0.  1.
<mgrwt>
<rscale>  0 0.15453934E+04</rscale>
<asrwt>0</asrwt>
<pdfrwt beam="1">  1        2 0.99399610E-01 0.15453934E+04</pdfrwt>
<pdfrwt beam="2">  1       -1 0.14216960E+00 0.15453934E+04</pdfrwt>
<totfact> 0.20061902E+01</totfact>
</mgrwt>
</event>
<event>
12    6  0.1553355E-007  0.2084944E+04  0.7818608E-02  0.8567905E-01
          2   -1    0    0  501    0  0.00000000000E+00  0.00000000000E+00  0.16378529358E+04  0.16378529358E+04  0.00000000000E+00 0. -1.
         -1   -1    0    0    0  501 -0.00000000000E+00 -0.00000000000E+00 -0.66351981789E+03  0.66351981789E+03  0.00000000000E+00 0.  1.
         24    2    1    2    0    0 -0.60398882641E+03  0.33621004340E+03 -0.13384272173E+03  0.70859352627E+03  0.79694514236E+02 0.  0.
        254    2    1    2    0    0  0.60398882641E+03 -0.33621004340E+03  0.11081758396E+04  0.15927792274E+04  0.91162068868E+03 0.  0.
         23    2    4    4    0    0  0.38690326278E+03 -0.61192688910E+03  0.49822769334E+03  0.88306602890E+03  0.86174965234E+02 0.  0.
         23    2    4    4    0    0  0.21708556363E+03  0.27571684570E+03  0.60994814626E+03  0.70971319849E+03  0.92250539552E+02 0.  0.
          2    1    3    3  502    0 -0.16215647284E+03  0.11044842374E+03 -0.63248514317E+01  0.19629971915E+03  0.00000000000E+00 0. -1.
         -1    1    3    3    0  502 -0.44183235357E+03  0.22576161966E+03 -0.12751787030E+03  0.51229380712E+03  0.00000000000E+00 0.  1.
         11    1    5    5    0    0  0.32465182339E+03 -0.51840255006E+03  0.38064173468E+03  0.72043607664E+03  0.00000000000E+00 0.  1.
        -11    1    5    5    0    0  0.62251439391E+02 -0.93524339033E+02  0.11758595866E+03  0.16262995226E+03  0.00000000000E+00 0. -1.
          3    1    6    6  503    0  0.23584442261E+01 -0.56056067682E+01  0.22725695133E+01  0.64922768425E+01  0.00000000000E+00 0. -1.
         -3    1    6    6    0  503  0.21472711940E+03  0.28132245247E+03  0.60767557675E+03  0.70322092165E+03  0.00000000000E+00 0.  1.
<mgrwt>
<rscale>  0 0.20849440E+04</rscale>
<asrwt>0</asrwt>
<pdfrwt beam="1">  1        2 0.25197737E+00 0.20849440E+04</pdfrwt>
<pdfrwt beam="2">  1       -1 0.10207997E+00 0.20849440E+04</pdfrwt>
<totfact> 0.10146329E+01</totfact>
</mgrwt>
</event>
<event>
12    6  0.1553355E-007  0.1807234E+04  0.7818608E-02  0.8702462E-01
         -1   -1    0    0    0  501 -0.00000000000E+00  0.00000000000E+00  0.30798173328E+03  0.30798173328E+03  0.00000000000E+00 0.  1.
          2   -1    0    0  501    0  0.00000000000E+00 -0.00000000000E+00 -0.26512094004E+04  0.26512094004E+04  0.00000000000E+00 0. -1.
         24    2    1    2    0    0 -0.16401936851E+03 -0.23653645441E+03 -0.17582171561E+04  0.17833844829E+04  0.79251488880E+02 0.  0.
        254    2    1    2    0    0  0.16401936851E+03  0.23653645441E+03 -0.58501051102E+03  0.11758066507E+04  0.97848461123E+03 0.  0.
         23    2    4    4    0    0 -0.42566292288E+02  0.32542521949E+03 -0.78716964439E+03  0.85781599708E+03  0.92188790393E+02 0.  0.
         23    2    4    4    0    0  0.20658566080E+03 -0.88888765081E+02  0.20215913337E+03  0.31799065366E+03  0.98340697586E+02 0.  0.
          2    1    3    3  502    0 -0.12448602548E+03 -0.20069988913E+03 -0.15731349574E+04  0.15907642220E+04  0.00000000000E+00 0. -1.
         -1    1    3    3    0  502 -0.39533343038E+02 -0.35836565274E+02 -0.18508219874E+03  0.19262026091E+03  0.00000000000E+00 0.  1.
         11    1    5    5    0    0 -0.24497602581E+02  0.22262810588E+02 -0.44601018163E+02  0.55542921139E+02  0.00000000000E+00 0.  1.
        -11    1    5    5    0    0 -0.18068689707E+02  0.30316240890E+03 -0.74256862623E+03  0.80227307594E+03  0.00000000000E+00 0. -1.
          3    1    6    6  503    0  0.19623577724E+03 -0.89940962919E+02  0.21279247859E+03  0.30311465821E+03  0.00000000000E+00 0. -1.
         -3    1    6    6    0  503  0.10349883565E+02  0.10521978381E+01 -0.10633345215E+02  0.14875995448E+02  0.00000000000E+00 0.  1.
<mgrwt>
<rscale>  0 0.18072344E+04</rscale>
<asrwt>0</asrwt>
<pdfrwt beam="1">  1        2 0.40787837E+00 0.18072344E+04</pdfrwt>
<pdfrwt beam="2">  1       -1 0.47381806E-01 0.18072344E+04</pdfrwt>
<totfact> 0.13579791E+01</totfact>
</mgrwt>
</event>
<event>
12    6  0.1553355E-007  0.1199792E+04  0.7818608E-02  0.9113039E-01
          2   -1    0    0  501    0  0.00000000000E+00  0.00000000000E+00  0.21009416295E+04  0.21009416295E+04  0.00000000000E+00 0. -1.
         -1   -1    0    0    0  501 -0.00000000000E+00 -0.00000000000E+00 -0.17129221166E+03  0.17129221166E+03  0.00000000000E+00 0.  1.
         24    2    1    2    0    0 -0.23989127596E+03  0.18820853872E+02  0.28948640480E+03  0.38477251623E+03  0.79658407330E+02 0.  0.
        254    2    1    2    0    0  0.23989127596E+03 -0.18820853872E+02  0.16401630130E+04  0.18874613249E+04  0.90248185295E+03 0.  0.
         23    2    4    4    0    0 -0.18431174261E+03 -0.10041880834E+03  0.13226021376E+04  0.13429504735E+04  0.10091979219E+03 0.  0.
         23    2    4    4    0    0  0.42420301856E+03  0.81597954471E+02  0.31756087546E+03  0.54451085141E+03  0.95082756304E+02 0.  0.
          2    1    3    3  502    0 -0.14366691549E+03 -0.16852706060E+01  0.11329130395E+03  0.18296978519E+03  0.00000000000E+00 0. -1.
         -1    1    3    3    0  502 -0.96224360472E+02  0.20506124478E+02  0.17619510086E+03  0.20180273104E+03  0.00000000000E+00 0.  1.
         11    1    5    5    0    0 -0.11040238476E+02 -0.30095474948E+02  0.77253027253E+02  0.83640030474E+02  0.00000000000E+00 0. -1.
        -11    1    5    5    0    0 -0.17327150413E+03 -0.70323333395E+02  0.12453491103E+04  0.12593104430E+04  0.00000000000E+00 0.  1.
          2    1    6    6  503    0  0.30886417526E+03  0.62841927498E+02  0.17617973726E+03  0.36108930534E+03  0.00000000000E+00 0.  1.
         -2    1    6    6    0  503  0.11533884330E+03  0.18756026973E+02  0.14138113821E+03  0.18342154607E+03  0.00000000000E+00 0. -1.
<mgrwt>
<rscale>  0 0.11997915E+04</rscale>
<asrwt>0</asrwt>
<pdfrwt beam="1">  1        2 0.32322177E+00 0.11997915E+04</pdfrwt>
<pdfrwt beam="2">  1       -1 0.26352649E-01 0.11997915E+04</pdfrwt>
<totfact> 0.84557916E+01</totfact>
</mgrwt>
</event>
<event>
12    6  0.1553355E-007  0.1651252E+04  0.7818608E-02  0.8789666E-01
          2   -1    0    0  501    0  0.00000000000E+00  0.00000000000E+00  0.17509942918E+04  0.17509942918E+04  0.00000000000E+00 0. -1.
         -1   -1    0    0    0  501 -0.00000000000E+00 -0.00000000000E+00 -0.38929762887E+03  0.38929762887E+03  0.00000000000E+00 0.  1.
         24    2    1    2    0    0 -0.32814464609E+03 -0.23407104692E+03  0.10170289908E+04  0.10975301217E+04  0.88069495628E+02 0.  0.
        254    2    1    2    0    0  0.32814464609E+03  0.23407104692E+03  0.34466767208E+03  0.10427617990E+04  0.89782414840E+03 0.  0.
         23    2    4    4    0    0  0.29525215053E+03 -0.20276534770E+03  0.45072801125E+03  0.58339199544E+03  0.94354976522E+02 0.  0.
         23    2    4    4    0    0  0.32892495554E+02  0.43683639462E+03 -0.10606033917E+03  0.45936980353E+03  0.88678458028E+02 0.  0.
          2    1    3    3  502    0 -0.25471334911E+03 -0.14780298008E+03  0.80425877542E+03  0.85647929862E+03  0.00000000000E+00 0. -1.
         -1    1    3    3    0  502 -0.73431296979E+02 -0.86268066842E+02  0.21277021539E+03  0.24105082304E+03  0.00000000000E+00 0.  1.
         11    1    5    5    0    0  0.29543084578E+03 -0.18243942780E+03  0.40577543342E+03  0.53405733009E+03  0.00000000000E+00 0. -1.
        -11    1    5    5    0    0 -0.17869524369E+00 -0.20325919899E+02  0.44952577834E+02  0.49334665355E+02  0.00000000000E+00 0.  1.
          3    1    6    6  503    0  0.31640412432E+02  0.32327089775E+03 -0.11706121373E+03  0.34526586392E+03  0.00000000000E+00 0. -1.
         -3    1    6    6    0  503  0.12520831219E+01  0.11356549687E+03  0.11000874562E+02  0.11410393960E+03  0.00000000000E+00 0.  1.
<mgrwt>
<rscale>  0 0.16512516E+04</rscale>
<asrwt>0</asrwt>
<pdfrwt beam="1">  1        2 0.26938373E+00 0.16512516E+04</pdfrwt>
<pdfrwt beam="2">  1       -1 0.59891944E-01 0.16512516E+04</pdfrwt>
<totfact> 0.28253892E+01</totfact>
</mgrwt>
</event>
<event>
12    6  0.1553355E-007  0.2419512E+04  0.7818608E-02  0.8432234E-01
         -1   -1    0    0    0  501 -0.00000000000E+00  0.00000000000E+00  0.12879673689E+04  0.12879673689E+04  0.00000000000E+00 0.  1.
          2   -1    0    0  501    0  0.00000000000E+00 -0.00000000000E+00 -0.11362943203E+04  0.11362943203E+04  0.00000000000E+00 0. -1.
         24    2    1    2    0    0  0.41474454286E+03 -0.74327166048E+03  0.66481451323E+03  0.10830106574E+04  0.80423565237E+02 0.  0.
        254    2    1    2    0    0 -0.41474454286E+03  0.74327166048E+03 -0.51314146469E+03  0.13412510318E+04  0.90065219176E+03 0.  0.
         23    2    4    4    0    0 -0.29545557698E+03  0.65704519401E+03  0.73501443422E+02  0.72948290264E+03  0.87979873428E+02 0.  0.
         23    2    4    4    0    0 -0.11928896588E+03  0.86226466474E+02 -0.58664290811E+03  0.61176812919E+03  0.91899300105E+02 0.  0.
          4    1    3    3  502    0  0.10649608069E+02 -0.15930475612E+02  0.33375649795E+02  0.38485428469E+02  0.00000000000E+00 0. -1.
         -3    1    3    3    0  502  0.40409493480E+03 -0.72734118487E+03  0.63143886344E+03  0.10445252289E+04  0.00000000000E+00 0.  1.
         11    1    5    5    0    0 -0.25669285006E+03  0.55302047147E+03  0.30564110672E+02  0.61045640795E+03  0.00000000000E+00 0.  1.
        -11    1    5    5    0    0 -0.38762726918E+02  0.10402472253E+03  0.42937332750E+02  0.11902649470E+03  0.00000000000E+00 0. -1.
          3    1    6    6  503    0  0.95078957698E+00 -0.15764334140E+02 -0.58235879756E+02  0.60339339760E+02  0.00000000000E+00 0. -1.
         -3    1    6    6    0  503 -0.12023975546E+03  0.10199080061E+03 -0.52840702835E+03  0.55142878943E+03  0.00000000000E+00 0.  1.
<mgrwt>
<rscale>  0 0.24195124E+04</rscale>
<asrwt>0</asrwt>
<pdfrwt beam="1">  1        2 0.17481451E+00 0.24195124E+04</pdfrwt>
<pdfrwt beam="2">  1       -1 0.19814883E+00 0.24195124E+04</pdfrwt>
<totfact> 0.32831527E+00</totfact>
</mgrwt>
</event>
<event>
12    6  0.1553355E-007  0.1091371E+04  0.7818608E-02  0.9213643E-01
          2   -1    0    0  501    0  0.00000000000E+00  0.00000000000E+00  0.95539767237E+03  0.95539767237E+03  0.00000000000E+00 0. -1.
         -1   -1    0    0    0  501 -0.00000000000E+00 -0.00000000000E+00 -0.31167395308E+03  0.31167395308E+03  0.00000000000E+00 0.  1.
         24    2    1    2    0    0 -0.91432587931E+02  0.10505287236E+03  0.20493217125E+03  0.26067951802E+03  0.80997482516E+02 0.  0.
        254    2    1    2    0    0  0.91432587931E+02 -0.10505287236E+03  0.43879154804E+03  0.10063921074E+04  0.89492515169E+03 0.  0.
         23    2    4    4    0    0  0.32596363129E+03  0.19988699221E+03 -0.27649629652E+02  0.39418835550E+03  0.91721638749E+02 0.  0.
         23    2    4    4    0    0 -0.23453104336E+03 -0.30493986458E+03  0.46644117769E+03  0.61220375193E+03  0.96088138273E+02 0.  0.
          2    1    3    3  502    0 -0.63502699736E+02  0.92054614948E+02  0.20046729329E+03  0.22955125939E+03  0.00000000000E+00 0. -1.
         -3    1    3    3    0  502 -0.27929888196E+02  0.12998257414E+02  0.44648779639E+01  0.31128258635E+02  0.00000000000E+00 0.  1.
         11    1    5    5    0    0  0.31930746103E+03  0.16938300816E+03 -0.31041514652E+02  0.36278290168E+03  0.00000000000E+00 0.  1.
        -11    1    5    5    0    0  0.66561702602E+01  0.30503984056E+02  0.33918849999E+01  0.31405453820E+02  0.00000000000E+00 0. -1.
          4    1    6    6  503    0 -0.20617619760E+02 -0.64468481057E+02  0.42456265336E+02  0.79898721896E+02  0.00000000000E+00 0. -1.
         -4    1    6    6    0  503 -0.21391342360E+03 -0.24047138352E+03  0.42398491236E+03  0.53230503003E+03  0.00000000000E+00 0.  1.
<mgrwt>
<rscale>  0 0.10913708E+04</rscale>
<asrwt>0</asrwt>
<pdfrwt beam="1">  1        2 0.14698426E+00 0.10913708E+04</pdfrwt>
<pdfrwt beam="2">  1       -1 0.47949839E-01 0.10913708E+04</pdfrwt>
<totfact> 0.13255392E+02</totfact>
</mgrwt>
</event>
<event>
12    6  0.1553355E-007  0.2751758E+04  0.7818608E-02  0.8318404E-01
          2   -1    0    0  501    0  0.00000000000E+00  0.00000000000E+00  0.10825063379E+04  0.10825063379E+04  0.00000000000E+00 0. -1.
         -1   -1    0    0    0  501 -0.00000000000E+00 -0.00000000000E+00 -0.17487597357E+04  0.17487597357E+04  0.00000000000E+00 0.  1.
         24    2    1    2    0    0  0.82195020249E+03  0.87205674002E+03 -0.50691932080E+03  0.13036574324E+04  0.80438858880E+02 0.  0.
        254    2    1    2    0    0 -0.82195020249E+03 -0.87205674002E+03 -0.15933407703E+03  0.15276086412E+04  0.93387136120E+03 0.  0.
         23    2    4    4    0    0 -0.32764561172E+03 -0.31521233382E+03 -0.51928040690E+03  0.69629764275E+03  0.92020671771E+02 0.  0.
         23    2    4    4    0    0 -0.49430459077E+03 -0.55684440620E+03  0.35994632987E+03  0.83131099842E+03  0.84284604379E+02 0.  0.
          4    1    3    3  502    0  0.71921962144E+03  0.79669234611E+03 -0.46262198707E+03  0.11687662988E+04  0.00000000000E+00 0. -1.
         -1    1    3    3    0  502  0.10273058105E+03  0.75364393906E+02 -0.44297333729E+02  0.13489113361E+03  0.00000000000E+00 0.  1.
         11    1    5    5    0    0 -0.26430394749E+02 -0.21322960713E+02 -0.95164885103E+01  0.35267520096E+02  0.00000000000E+00 0. -1.
        -11    1    5    5    0    0 -0.30121521697E+03 -0.29388937310E+03 -0.50976391839E+03  0.66103012265E+03  0.00000000000E+00 0.  1.
          1    1    6    6  503    0 -0.15219197488E+03 -0.13673546861E+03  0.66331510262E+02  0.21507871779E+03  0.00000000000E+00 0. -1.
         -1    1    6    6    0  503 -0.34211261589E+03 -0.42010893760E+03  0.29361481960E+03  0.61623228063E+03  0.00000000000E+00 0.  1.
<mgrwt>
<rscale>  0 0.27517583E+04</rscale>
<asrwt>0</asrwt>
<pdfrwt beam="1">  1        2 0.16653944E+00 0.27517583E+04</pdfrwt>
<pdfrwt beam="2">  1       -1 0.26903996E+00 0.27517583E+04</pdfrwt>
<totfact> 0.11656180E+00</totfact>
</mgrwt>
</event>
<event>
12    6  0.1553355E-007  0.1877485E+04  0.7818608E-02  0.8666145E-01
          2   -1    0    0  501    0  0.00000000000E+00  0.00000000000E+00  0.22457688205E+04  0.22457688205E+04  0.00000000000E+00 0. -1.
         -1   -1    0    0    0  501 -0.00000000000E+00 -0.00000000000E+00 -0.39239914419E+03  0.39239914419E+03  0.00000000000E+00 0.  1.
         24    2    1    2    0    0 -0.41109246842E+03 -0.37957798646E+03  0.13421487767E+04  0.14564259682E+04  0.82077990476E+02 0.  0.
        254    2    1    2    0    0  0.41109246842E+03  0.37957798646E+03  0.51122089958E+03  0.11817419965E+04  0.90669227015E+03 0.  0.
         23    2    4    4    0    0  0.46795247350E+02  0.52373054586E+03  0.30169758357E+01  0.53361541846E+03  0.90845103497E+02 0.  0.
         23    2    4    4    0    0  0.36429722107E+03 -0.14415255940E+03  0.50820392375E+03  0.64812657806E+03  0.91128521402E+02 0.  0.
          2    1    3    3  502    0 -0.32935017685E+03 -0.27190263171E+03  0.94873413251E+03  0.10404321383E+04  0.00000000000E+00 0. -1.
         -1    1    3    3    0  502 -0.81742291567E+02 -0.10767535475E+03  0.39341464420E+03  0.41599382991E+03  0.00000000000E+00 0.  1.
         11    1    5    5    0    0  0.31871142223E+02  0.36496226587E+03 -0.39779097848E+02  0.36850454792E+03  0.00000000000E+00 0. -1.
        -11    1    5    5    0    0  0.14924105128E+02  0.15876827999E+03  0.42796073684E+02  0.16511087053E+03  0.00000000000E+00 0.  1.
          2    1    6    6  503    0  0.13722043796E+03 -0.20727430961E+02  0.13076242810E+03  0.19067744384E+03  0.00000000000E+00 0. -1.
         -2    1    6    6    0  503  0.22707678311E+03 -0.12342512843E+03  0.37744149565E+03  0.45744913422E+03  0.00000000000E+00 0.  1.
<mgrwt>
<rscale>  0 0.18774853E+04</rscale>
<asrwt>0</asrwt>
<pdfrwt beam="1">  1        2 0.34550289E+00 0.18774853E+04</pdfrwt>
<pdfrwt beam="2">  1       -1 0.60369100E-01 0.18774853E+04</pdfrwt>
<totfact> 0.14467282E+01</totfact>
</mgrwt>
</event>
<event>
12    6  0.1553355E-007  0.3318292E+04  0.7818608E-02  0.8158257E-01
          2   -1    0    0  501    0  0.00000000000E+00  0.00000000000E+00  0.21835095501E+04  0.21835095501E+04  0.00000000000E+00 0. -1.
         -1   -1    0    0    0  501 -0.00000000000E+00 -0.00000000000E+00 -0.12607066195E+04  0.12607066195E+04  0.00000000000E+00 0.  1.
         24    2    1    2    0    0  0.87750178233E+02  0.33066748672E+03  0.19874140135E+04  0.20183309948E+04  0.82489169101E+02 0.  0.
        254    2    1    2    0    0 -0.87750178233E+02 -0.33066748672E+03 -0.10646110828E+04  0.14258851748E+04  0.88470938374E+03 0.  0.
         23    2    4    4    0    0 -0.20306383033E+03  0.68921457711E+01 -0.10326287317E+04  0.10562526366E+04  0.89805978643E+02 0.  0.
         23    2    4    4    0    0  0.11531365209E+03 -0.33755963249E+03 -0.31982351046E+02  0.36963253827E+03  0.91441777755E+02 0.  0.
          4    1    3    3  502    0  0.49594256339E+01  0.16371759255E+03  0.10313124429E+04  0.10442381916E+04  0.00000000000E+00 0. -1.
         -3    1    3    3    0  502  0.82790752599E+02  0.16694989417E+03  0.95610157055E+03  0.97409280312E+03  0.00000000000E+00 0.  1.
         11    1    5    5    0    0 -0.16949416326E+03 -0.28454628913E+02 -0.85199807940E+03  0.86915974630E+03  0.00000000000E+00 0. -1.
        -11    1    5    5    0    0 -0.33569667071E+02  0.35346774684E+02 -0.18063065232E+03  0.18709289026E+03  0.00000000000E+00 0.  1.
          1    1    6    6  503    0  0.56235060250E+02 -0.24519289158E+03 -0.55230239917E+02  0.25755060762E+03  0.00000000000E+00 0. -1.
         -1    1    6    6    0  503  0.59078591844E+02 -0.92366740914E+02  0.23247888871E+02  0.11208193065E+03  0.00000000000E+00 0.  1.
<mgrwt>
<rscale>  0 0.33182917E+04</rscale>
<asrwt>0</asrwt>
<pdfrwt beam="1">  1        2 0.33592455E+00 0.33182917E+04</pdfrwt>
<pdfrwt beam="2">  1       -1 0.19395486E+00 0.33182917E+04</pdfrwt>
<totfact> 0.82926989E-01</totfact>
</mgrwt>
</event>
<event>
12    6  0.1553355E-007  0.3512526E+04  0.7818608E-02  0.8110828E-01
          2   -1    0    0  501    0  0.00000000000E+00  0.00000000000E+00  0.24538040953E+04  0.24538040953E+04  0.00000000000E+00 0. -1.
         -1   -1    0    0    0  501 -0.00000000000E+00 -0.00000000000E+00 -0.12570117093E+04  0.12570117093E+04  0.00000000000E+00 0.  1.
         24    2    1    2    0    0  0.80739028692E+03 -0.18422577991E+03 -0.93458403263E+03  0.12523099111E+04  0.94945173892E+02 0.  0.
        254    2    1    2    0    0 -0.80739028692E+03  0.18422577991E+03  0.21313764186E+04  0.24585058935E+04  0.90314316541E+03 0.  0.
         23    2    4    4    0    0  0.12025819128E+03  0.63978560625E+02  0.45455429369E+02  0.17062906438E+03  0.92156349546E+02 0.  0.
         23    2    4    4    0    0 -0.92764847820E+03  0.12024721929E+03  0.20859209892E+04  0.22878768291E+04  0.91230033923E+02 0.  0.
          4    1    3    3  502    0  0.55151008928E+01 -0.11981254307E+02 -0.11492224088E+02  0.17493942012E+02  0.00000000000E+00 0. -1.
         -3    1    3    3    0  502  0.80187518602E+03 -0.17224452561E+03 -0.92309180854E+03  0.12348159691E+04  0.00000000000E+00 0.  1.
         11    1    5    5    0    0  0.81344717720E+02 -0.17599865018E+01 -0.71724702284E+00  0.81366916476E+02  0.00000000000E+00 0. -1.
        -11    1    5    5    0    0  0.38913473560E+02  0.65738547127E+02  0.46172676392E+02  0.89262147902E+02  0.00000000000E+00 0.  1.
          1    1    6    6  503    0 -0.69590756961E+03  0.12725747317E+03  0.16042880130E+04  0.17533458982E+04  0.00000000000E+00 0. -1.
         -1    1    6    6    0  503 -0.23174090859E+03 -0.70102538789E+01  0.48163297618E+03  0.53453093092E+03  0.00000000000E+00 0.  1.
<mgrwt>
<rscale>  0 0.35125264E+04</rscale>
<asrwt>0</asrwt>
<pdfrwt beam="1">  1        2 0.37750832E+00 0.35125264E+04</pdfrwt>
<pdfrwt beam="2">  1       -1 0.19338642E+00 0.35125264E+04</pdfrwt>
<totfact> 0.57776468E-01</totfact>
</mgrwt>
</event>
<event>
12    6  0.1553355E-007  0.1849391E+04  0.7818608E-02  0.8680466E-01
          2   -1    0    0  501    0  0.00000000000E+00  0.00000000000E+00  0.14531027720E+04  0.14531027720E+04  0.00000000000E+00 0. -1.
         -1   -1    0    0    0  501 -0.00000000000E+00 -0.00000000000E+00 -0.58843852214E+03  0.58843852214E+03  0.00000000000E+00 0.  1.
         24    2    1    2    0    0 -0.22741562181E+03  0.93422951504E+02 -0.40144231168E+03  0.47733163615E+03  0.79018025480E+02 0.  0.
        254    2    1    2    0    0  0.22741562181E+03 -0.93422951504E+02  0.12661065615E+04  0.15642096580E+04  0.88503125149E+03 0.  0.
         23    2    4    4    0    0 -0.25102610765E+02  0.32847410501E+03  0.22661600551E+03  0.41062706149E+03  0.93457963538E+02 0.  0.
         23    2    4    4    0    0  0.25251823257E+03 -0.42189705651E+03  0.10394905560E+04  0.11535825965E+04  0.91921742934E+02 0.  0.
          2    1    3    3  502    0 -0.63164189650E+02  0.60481173492E+02 -0.10327915047E+03  0.13533022619E+03  0.00000000000E+00 0. -1.
         -1    1    3    3    0  502 -0.16425143216E+03  0.32941778012E+02 -0.29816316121E+03  0.34200140995E+03  0.00000000000E+00 0.  1.
         11    1    5    5    0    0 -0.50109023590E+01  0.85686848677E+01  0.36775819717E+02  0.38091894396E+02  0.00000000000E+00 0. -1.
        -11    1    5    5    0    0 -0.20091708406E+02  0.31990542014E+03  0.18984018579E+03  0.37253516709E+03  0.00000000000E+00 0.  1.
          2    1    6    6  503    0  0.30706127747E+02 -0.13012803379E+03  0.27813976629E+03  0.30860638530E+03  0.00000000000E+00 0. -1.
         -2    1    6    6    0  503  0.22181210483E+03 -0.29176902272E+03  0.76135078973E+03  0.84497621120E+03  0.00000000000E+00 0.  1.
<mgrwt>
<rscale>  0 0.18493909E+04</rscale>
<asrwt>0</asrwt>
<pdfrwt beam="1">  1        2 0.22355427E+00 0.18493909E+04</pdfrwt>
<pdfrwt beam="2">  1       -1 0.90529004E-01 0.18493909E+04</pdfrwt>
<totfact> 0.17243555E+01</totfact>
</mgrwt>
</event>
<event>
12    6  0.1553355E-007  0.1884804E+04  0.7818608E-02  0.8662457E-01
          2   -1    0    0  501    0  0.00000000000E+00  0.00000000000E+00  0.79466557553E+03  0.79466557553E+03  0.00000000000E+00 0. -1.
         -1   -1    0    0    0  501 -0.00000000000E+00 -0.00000000000E+00 -0.11176046449E+04  0.11176046449E+04  0.00000000000E+00 0.  1.
         24    2    1    2    0    0 -0.23965634844E+03 -0.28328466999E+03  0.50902475221E+03  0.63531033303E+03  0.82629602991E+02 0.  0.
        254    2    1    2    0    0  0.23965634844E+03  0.28328466999E+03 -0.83196382153E+03  0.12769598874E+04  0.89486165634E+03 0.  0.
         23    2    4    4    0    0  0.12876214750E+03  0.53926201490E+03 -0.23083551166E+03  0.60741935025E+03  0.91049559400E+02 0.  0.
         23    2    4    4    0    0  0.11089420094E+03 -0.25597734491E+03 -0.60112830987E+03  0.66954053711E+03  0.95432494485E+02 0.  0.
          2    1    3    3  502    0 -0.19185848525E+03 -0.17741868070E+03  0.31625096342E+03  0.41024594878E+03  0.00000000000E+00 0. -1.
         -1    1    3    3    0  502 -0.47797863191E+02 -0.10586598928E+03  0.19277378879E+03  0.22506438425E+03  0.00000000000E+00 0.  1.
         11    1    5    5    0    0  0.13544241571E+03  0.47808311688E+03 -0.22541895969E+03  0.54563891175E+03  0.00000000000E+00 0.  1.
        -11    1    5    5    0    0 -0.66802682166E+01  0.61178898014E+02 -0.54165519701E+01  0.61780438497E+02  0.00000000000E+00 0. -1.
          3    1    6    6  503    0  0.65772712863E+02 -0.49650264662E+02 -0.14238300818E+03  0.16451176115E+03  0.00000000000E+00 0. -1.
         -3    1    6    6    0  503  0.45121488081E+02 -0.20632708025E+03 -0.45874530169E+03  0.50502877597E+03  0.00000000000E+00 0.  1.
<mgrwt>
<rscale>  0 0.18848044E+04</rscale>
<asrwt>0</asrwt>
<pdfrwt beam="1">  1        2 0.12225624E+00 0.18848044E+04</pdfrwt>
<pdfrwt beam="2">  1       -1 0.17193918E+00 0.18848044E+04</pdfrwt>
<totfact> 0.88576068E+00</totfact>
</mgrwt>
</event>
<event>
12    6  0.1553355E-007  0.1760486E+04  0.7818608E-02  0.8727599E-01
          2   -1    0    0  501    0  0.00000000000E+00  0.00000000000E+00  0.21282818516E+04  0.21282818516E+04  0.00000000000E+00 0. -1.
         -1   -1    0    0    0  501 -0.00000000000E+00 -0.00000000000E+00 -0.36406255298E+03  0.36406255298E+03  0.00000000000E+00 0.  1.
         24    2    1    2    0    0 -0.16183566828E+03  0.28702165286E+03  0.14345173643E+04  0.14740275159E+04  0.79654481097E+02 0.  0.
        254    2    1    2    0    0  0.16183566828E+03 -0.28702165286E+03  0.32970193439E+03  0.10183168888E+04  0.90536937637E+03 0.  0.
         23    2    4    4    0    0 -0.23493168062E+03 -0.44636954859E+03  0.26562972461E+03  0.57741812836E+03  0.91727181863E+02 0.  0.
         23    2    4    4    0    0  0.39676734890E+03  0.15934789574E+03  0.64072209772E+02  0.44089876041E+03  0.86431405377E+02 0.  0.
          4    1    3    3  502    0 -0.54965773704E+02  0.13189001006E+03  0.77826025750E+03  0.79126812108E+03  0.00000000000E+00 0. -1.
         -3    1    3    3    0  502 -0.10686989458E+03  0.15513164280E+03  0.65625710678E+03  0.68275939478E+03  0.00000000000E+00 0.  1.
         11    1    5    5    0    0 -0.15105676380E+03 -0.24306238732E+03  0.10401893149E+03  0.30449533351E+03  0.00000000000E+00 0. -1.
        -11    1    5    5    0    0 -0.83874916815E+02 -0.20330716127E+03  0.16161079313E+03  0.27292279485E+03  0.00000000000E+00 0.  1.
          1    1    6    6  503    0  0.18137384887E+03  0.64038293769E+02  0.71597516099E+02  0.20524029925E+03  0.00000000000E+00 0. -1.
         -1    1    6    6    0  503  0.21539350003E+03  0.95309601967E+02 -0.75253063264E+01  0.23565846116E+03  0.00000000000E+00 0.  1.
<mgrwt>
<rscale>  0 0.17604860E+04</rscale>
<asrwt>0</asrwt>
<pdfrwt beam="1">  1        2 0.32742797E+00 0.17604860E+04</pdfrwt>
<pdfrwt beam="2">  1       -1 0.56009625E-01 0.17604860E+04</pdfrwt>
<totfact> 0.19709019E+01</totfact>
</mgrwt>
</event>
<event>
12    6  0.1553355E-007  0.1546689E+04  0.7818608E-02  0.8853985E-01
         -1   -1    0    0    0  501 -0.00000000000E+00  0.00000000000E+00  0.58535973302E+03  0.58535973302E+03  0.00000000000E+00 0.  1.
          2   -1    0    0  501    0  0.00000000000E+00 -0.00000000000E+00 -0.10216995102E+04  0.10216995102E+04  0.00000000000E+00 0. -1.
         24    2    1    2    0    0 -0.42902053362E+03  0.35834080088E+02 -0.42926054101E+03  0.61252434769E+03  0.74691129859E+02 0.  0.
        254    2    1    2    0    0  0.42902053362E+03 -0.35834080088E+02 -0.70792361877E+01  0.99453489554E+03  0.89649698455E+03 0.  0.
         23    2    4    4    0    0  0.53030950321E+03 -0.84193306122E+02  0.32278755009E+03  0.63339403720E+03  0.93163951593E+02 0.  0.
         23    2    4    4    0    0 -0.10128896959E+03  0.48359226034E+02 -0.32986678628E+03  0.36114085834E+03  0.94934465661E+02 0.  0.
          2    1    3    3  502    0 -0.42229475784E+03  0.23802773744E+02 -0.41230699347E+03  0.59067460704E+03  0.00000000000E+00 0. -1.
         -1    1    3    3    0  502 -0.67257757763E+01  0.12031306343E+02 -0.16953547538E+02  0.21849740644E+02  0.00000000000E+00 0.  1.
         11    1    5    5    0    0  0.35281860433E+03 -0.67656496446E+02  0.16497810655E+03  0.39531777687E+03  0.00000000000E+00 0. -1.
        -11    1    5    5    0    0  0.17749089888E+03 -0.16536809676E+02  0.15780944354E+03  0.23807626033E+03  0.00000000000E+00 0.  1.
          4    1    6    6  503    0 -0.31195630450E+02  0.53258449998E+02 -0.76951662015E+02  0.98646784753E+02  0.00000000000E+00 0.  1.
         -4    1    6    6    0  503 -0.70093339138E+02 -0.48992239634E+01 -0.25291512427E+03  0.26249407359E+03  0.00000000000E+00 0. -1.
<mgrwt>
<rscale>  0 0.15466890E+04</rscale>
<asrwt>0</asrwt>
<pdfrwt beam="1">  1        2 0.15718454E+00 0.15466890E+04</pdfrwt>
<pdfrwt beam="2">  1       -1 0.90055344E-01 0.15466890E+04</pdfrwt>
<totfact> 0.32331638E+01</totfact>
</mgrwt>
</event>
<event>
12    6  0.1553355E-007  0.1578247E+04  0.7818608E-02  0.8834024E-01
         -1   -1    0    0    0  501 -0.00000000000E+00  0.00000000000E+00  0.13843333305E+04  0.13843333305E+04  0.00000000000E+00 0.  1.
          2   -1    0    0  501    0  0.00000000000E+00 -0.00000000000E+00 -0.44983072984E+03  0.44983072984E+03  0.00000000000E+00 0. -1.
         24    2    1    2    0    0  0.34175115002E+03  0.17838898201E+03 -0.11233806730E+03  0.40769991731E+03  0.70589685943E+02 0.  0.
        254    2    1    2    0    0 -0.34175115002E+03 -0.17838898201E+03  0.10468406679E+04  0.14264641430E+04  0.88899273888E+03 0.  0.
         23    2    4    4    0    0 -0.13859484791E+03 -0.21735339135E+03  0.11483808507E+04  0.11804591510E+04  0.90852629624E+02 0.  0.
         23    2    4    4    0    0 -0.20315630211E+03  0.38964409344E+02 -0.10154018274E+03  0.24600499202E+03  0.86123975204E+02 0.  0.
          2    1    3    3  502    0  0.17476748454E+03  0.51841617155E+02 -0.56981184600E+02  0.19099236194E+03  0.00000000000E+00 0. -1.
         -1    1    3    3    0  502  0.16698366549E+03  0.12654736485E+03 -0.55356882704E+02  0.21670755537E+03  0.00000000000E+00 0.  1.
         11    1    5    5    0    0 -0.42719392248E+02 -0.11846706106E+03  0.70562054975E+03  0.71677036159E+03  0.00000000000E+00 0.  1.
        -11    1    5    5    0    0 -0.95875455664E+02 -0.98886330287E+02  0.44276030094E+03  0.46368878939E+03  0.00000000000E+00 0. -1.
          4    1    6    6  503    0 -0.59180126319E+01  0.25128566894E+02 -0.17348023361E+02  0.31103402743E+02  0.00000000000E+00 0. -1.
         -4    1    6    6    0  503 -0.19723828948E+03  0.13835842450E+02 -0.84192159384E+02  0.21490158928E+03  0.00000000000E+00 0.  1.
<mgrwt>
<rscale>  0 0.15782467E+04</rscale>
<asrwt>0</asrwt>
<pdfrwt beam="1">  1        2 0.69204728E-01 0.15782467E+04</pdfrwt>
<pdfrwt beam="2">  1       -1 0.21297436E+00 0.15782467E+04</pdfrwt>
<totfact> 0.93775302E+00</totfact>
</mgrwt>
</event>
<event>
12    6  0.1553355E-007  0.2586924E+04  0.7818608E-02  0.8372657E-01
          2   -1    0    0  501    0  0.00000000000E+00  0.00000000000E+00  0.24071441305E+04  0.24071441305E+04  0.00000000000E+00 0. -1.
         -1   -1    0    0    0  501 -0.00000000000E+00 -0.00000000000E+00 -0.69503258246E+03  0.69503258246E+03  0.00000000000E+00 0.  1.
         24    2    1    2    0    0  0.22760639251E+03  0.92184036398E+03  0.76664887869E+01  0.95291361860E+03  0.79945374366E+02 0.  0.
        254    2    1    2    0    0 -0.22760639251E+03 -0.92184036398E+03  0.17044450593E+04  0.21492630944E+04  0.90144581769E+03 0.  0.
         23    2    4    4    0    0 -0.43139811671E+03 -0.13945914032E+03  0.40088850346E+03  0.61263407868E+03  0.95161626921E+02 0.  0.
         23    2    4    4    0    0  0.20379172420E+03 -0.78238122367E+03  0.13035565558E+04  0.15366290157E+04  0.91200831669E+02 0.  0.
          4    1    3    3  502    0  0.96587641443E+02  0.47763040178E+03 -0.30239598736E+02  0.48823601517E+03  0.00000000000E+00 0. -1.
         -3    1    3    3    0  502  0.13101875106E+03  0.44420996221E+03  0.37906087523E+02  0.46467760343E+03  0.00000000000E+00 0.  1.
         11    1    5    5    0    0 -0.26336763655E+02  0.55835259059E+01  0.52581724181E+02  0.59073163105E+02  0.00000000000E+00 0. -1.
        -11    1    5    5    0    0 -0.40506135305E+03 -0.14504266622E+03  0.34830677927E+03  0.55356091557E+03  0.00000000000E+00 0.  1.
          1    1    6    6  503    0  0.11925955839E+03 -0.28674475128E+03  0.47878350725E+03  0.57068296056E+03  0.00000000000E+00 0. -1.
         -1    1    6    6    0  503  0.84532165805E+02 -0.49563647238E+03  0.82477304859E+03  0.96594605516E+03  0.00000000000E+00 0.  1.
<mgrwt>
<rscale>  0 0.25869237E+04</rscale>
<asrwt>0</asrwt>
<pdfrwt beam="1">  1        2 0.37032986E+00 0.25869237E+04</pdfrwt>
<pdfrwt beam="2">  1       -1 0.10692809E+00 0.25869237E+04</pdfrwt>
<totfact> 0.32350941E+00</totfact>
</mgrwt>
</event>
<event>
12    6  0.1553355E-007  0.1977467E+04  0.7818608E-02  0.8617229E-01
          2   -1    0    0  501    0  0.00000000000E+00  0.00000000000E+00  0.51041708227E+03  0.51041708227E+03  0.00000000000E+00 0. -1.
         -1   -1    0    0    0  501 -0.00000000000E+00 -0.00000000000E+00 -0.19152843869E+04  0.19152843869E+04  0.00000000000E+00 0.  1.
         24    2    1    2    0    0 -0.62743476318E+03  0.33162760748E+03 -0.97728168839E+03  0.12105194970E+04  0.81404557656E+02 0.  0.
        254    2    1    2    0    0  0.62743476318E+03 -0.33162760748E+03 -0.42758561621E+03  0.12151819722E+04  0.88892435796E+03 0.  0.
         23    2    4    4    0    0 -0.18353410610E+03 -0.92794803881E+02  0.60944920802E+02  0.23341045151E+03  0.92035383284E+02 0.  0.
         23    2    4    4    0    0  0.81096886928E+03 -0.23883280360E+03 -0.48853053701E+03  0.98177152065E+03  0.10247740311E+03 0.  0.
          4    1    3    3  502    0 -0.36396177259E+02  0.24907865993E+02 -0.33073344868E+02  0.55126487718E+02  0.00000000000E+00 0. -1.
         -3    1    3    3    0  502 -0.59103858592E+03  0.30671974149E+03 -0.94420834352E+03  0.11553930093E+04  0.00000000000E+00 0.  1.
         11    1    5    5    0    0 -0.16942392327E+03 -0.44746847624E+02  0.47906511691E+02  0.18166392050E+03  0.00000000000E+00 0. -1.
        -11    1    5    5    0    0 -0.14110182825E+02 -0.48047956257E+02  0.13038409111E+02  0.51746531014E+02  0.00000000000E+00 0.  1.
          1    1    6    6  503    0  0.29797558819E+03 -0.13814429975E+03 -0.20268131871E+03  0.38594431679E+03  0.00000000000E+00 0. -1.
         -1    1    6    6    0  503  0.51299328109E+03 -0.10068850385E+03 -0.28584921831E+03  0.59582720386E+03  0.00000000000E+00 0.  1.
<mgrwt>
<rscale>  0 0.19774669E+04</rscale>
<asrwt>0</asrwt>
<pdfrwt beam="1">  1        2 0.78525705E-01 0.19774669E+04</pdfrwt>
<pdfrwt beam="2">  1       -1 0.29465914E+00 0.19774669E+04</pdfrwt>
<totfact> 0.22875476E+00</totfact>
</mgrwt>
</event>
<event>
12    6  0.1553355E-007  0.2026650E+04  0.7818608E-02  0.8594261E-01
         -1   -1    0    0    0  501 -0.00000000000E+00  0.00000000000E+00  0.33534637570E+03  0.33534637570E+03  0.00000000000E+00 0.  1.
          2   -1    0    0  501    0  0.00000000000E+00 -0.00000000000E+00 -0.30619921512E+04  0.30619921512E+04  0.00000000000E+00 0. -1.
         24    2    1    2    0    0 -0.71484047118E+03  0.19433890317E+03 -0.16458736518E+04  0.18068083772E+04  0.83017623869E+02 0.  0.
        254    2    1    2    0    0  0.71484047118E+03 -0.19433890317E+03 -0.10807721237E+04  0.15905301497E+04  0.90163921004E+03 0.  0.
         23    2    4    4    0    0  0.42416392680E+03 -0.19318850799E+03 -0.11774310981E+04  0.12698129961E+04  0.94043702238E+02 0.  0.
         23    2    4    4    0    0  0.29067654437E+03 -0.11503951846E+01  0.96658974368E+02  0.32071715356E+03  0.94986095850E+02 0.  0.
          4    1    3    3  502    0 -0.67955633028E+03  0.17095019070E+03 -0.15811947008E+04  0.17295078651E+04  0.00000000000E+00 0. -1.
         -3    1    3    3    0  502 -0.35284140897E+02  0.23388712474E+02 -0.64678951000E+02  0.77300512110E+02  0.00000000000E+00 0.  1.
         11    1    5    5    0    0  0.41249554374E+03 -0.16706772681E+03 -0.10755052243E+04  0.11639483178E+04  0.00000000000E+00 0.  1.
        -11    1    5    5    0    0  0.11668383061E+02 -0.26120781174E+02 -0.10192587378E+03  0.10586467834E+03  0.00000000000E+00 0. -1.
          2    1    6    6  503    0  0.54107134675E+02 -0.36608677078E+02  0.32946161995E+02  0.73165749162E+02  0.00000000000E+00 0. -1.
         -2    1    6    6    0  503  0.23656940970E+03  0.35458281894E+02  0.63712812372E+02  0.24755140440E+03  0.00000000000E+00 0.  1.
<mgrwt>
<rscale>  0 0.20266504E+04</rscale>
<asrwt>0</asrwt>
<pdfrwt beam="1">  1        2 0.47107571E+00 0.20266504E+04</pdfrwt>
<pdfrwt beam="2">  1       -1 0.51591750E-01 0.20266504E+04</pdfrwt>
<totfact> 0.63630119E+00</totfact>
</mgrwt>
</event>
<event>
12    6  0.1553355E-007  0.1289776E+04  0.7818608E-02  0.9037712E-01
         -1   -1    0    0    0  501 -0.00000000000E+00  0.00000000000E+00  0.13087120222E+03  0.13087120222E+03  0.00000000000E+00 0.  1.
          2   -1    0    0  501    0  0.00000000000E+00 -0.00000000000E+00 -0.31777867461E+04  0.31777867461E+04  0.00000000000E+00 0. -1.
         24    2    1    2    0    0  0.13320760360E+03 -0.12514716597E+03 -0.14628063221E+04  0.14762343365E+04  0.77842157021E+02 0.  0.
        254    2    1    2    0    0 -0.13320760360E+03  0.12514716597E+03 -0.15841092218E+04  0.18324236119E+04  0.90275588501E+03 0.  0.
         23    2    4    4    0    0 -0.18678766227E+02  0.30957887222E+03 -0.11289486439E+03  0.34226169248E+03  0.90608174575E+02 0.  0.
         23    2    4    4    0    0 -0.11452883738E+03 -0.18443170625E+03 -0.14712143574E+04  0.14901619194E+04  0.94757330494E+02 0.  0.
          4    1    3    3  502    0  0.12676372380E+03 -0.13600645556E+03 -0.13810986186E+04  0.13935566698E+04  0.00000000000E+00 0. -1.
         -3    1    3    3    0  502  0.64438798017E+01  0.10859289583E+02 -0.81707703504E+02  0.82677666689E+02  0.00000000000E+00 0.  1.
         11    1    5    5    0    0  0.29832335912E+02  0.44179953755E+02 -0.19023007795E+02  0.56601337487E+02  0.00000000000E+00 0. -1.
        -11    1    5    5    0    0 -0.48511102139E+02  0.26539891846E+03 -0.93871856596E+02  0.28566035499E+03  0.00000000000E+00 0.  1.
          1    1    6    6  503    0 -0.12106681670E+03 -0.13120144685E+03 -0.98993753227E+03  0.10059062141E+04  0.00000000000E+00 0. -1.
         -1    1    6    6    0  503  0.65379793257E+01 -0.53230259397E+02 -0.48127682515E+03  0.48425570530E+03  0.00000000000E+00 0.  1.
<mgrwt>
<rscale>  0 0.12897764E+04</rscale>
<asrwt>0</asrwt>
<pdfrwt beam="1">  1        2 0.48889030E+00 0.12897764E+04</pdfrwt>
<pdfrwt beam="2">  1       -1 0.20134030E-01 0.12897764E+04</pdfrwt>
<totfact> 0.30745099E+01</totfact>
</mgrwt>
</event>
<event>
12    6  0.1553355E-007  0.2084776E+04  0.7818608E-02  0.8567979E-01
          2   -1    0    0  501    0  0.00000000000E+00  0.00000000000E+00  0.11567631622E+04  0.11567631622E+04  0.00000000000E+00 0. -1.
         -1   -1    0    0    0  501 -0.00000000000E+00 -0.00000000000E+00 -0.93932165021E+03  0.93932165021E+03  0.00000000000E+00 0.  1.
         24    2    1    2    0    0 -0.18605764824E+03 -0.21345354008E+03 -0.69186413139E+03  0.75179248184E+03  0.79599605636E+02 0.  0.
        254    2    1    2    0    0  0.18605764824E+03  0.21345354008E+03  0.90930564340E+03  0.13442923306E+04  0.94873877054E+03 0.  0.
         23    2    4    4    0    0  0.29366932864E+03  0.52016109402E+03  0.76883875037E+03  0.97877814823E+03  0.10042111864E+03 0.  0.
         23    2    4    4    0    0 -0.10761168040E+03 -0.30670755394E+03  0.14046689302E+03  0.36551418236E+03  0.90663510108E+02 0.  0.
          2    1    3    3  502    0 -0.22458150578E+02 -0.89623132090E+00 -0.28811976353E+02  0.36541780736E+02  0.00000000000E+00 0. -1.
         -1    1    3    3    0  502 -0.16359949766E+03 -0.21255730875E+03 -0.66305215503E+03  0.71525070111E+03  0.00000000000E+00 0.  1.
         11    1    5    5    0    0  0.66576019656E+02  0.10335277069E+03  0.99174222658E+02  0.15795470250E+03  0.00000000000E+00 0. -1.
        -11    1    5    5    0    0  0.22709330898E+03  0.41680832333E+03  0.66966452772E+03  0.82082344573E+03  0.00000000000E+00 0.  1.
          4    1    6    6  503    0  0.97880979795E+01 -0.11669848551E+02 -0.52873591200E+01  0.16122915175E+02  0.00000000000E+00 0. -1.
         -4    1    6    6    0  503 -0.11739977838E+03 -0.29503770539E+03  0.14575425214E+03  0.34939126718E+03  0.00000000000E+00 0.  1.
<mgrwt>
<rscale>  0 0.20847759E+04</rscale>
<asrwt>0</asrwt>
<pdfrwt beam="1">  1        2 0.17796356E+00 0.20847759E+04</pdfrwt>
<pdfrwt beam="2">  1       -1 0.14451102E+00 0.20847759E+04</pdfrwt>
<totfact> 0.81576982E+00</totfact>
</mgrwt>
</event>
<event>
12    6  0.1553355E-007  0.2015519E+04  0.7818608E-02  0.8599399E-01
          2   -1    0    0  501    0  0.00000000000E+00  0.00000000000E+00  0.77203655010E+03  0.77203655010E+03  0.00000000000E+00 0. -1.
         -1   -1    0    0    0  501 -0.00000000000E+00 -0.00000000000E+00 -0.13154547083E+04  0.13154547083E+04  0.00000000000E+00 0.  1.
         24    2    1    2    0    0  0.38676968312E+03  0.34350620548E+03 -0.83800344813E+03  0.98805032277E+03  0.80039741851E+02 0.  0.
        254    2    1    2    0    0 -0.38676968312E+03 -0.34350620548E+03  0.29458528998E+03  0.10994409356E+04  0.92433899451E+03 0.  0.
         23    2    4    4    0    0 -0.27938346091E+03 -0.64586446540E+03  0.28857473366E+03  0.76589180249E+03  0.90104663106E+02 0.  0.
         23    2    4    4    0    0 -0.10738622221E+03  0.30235825992E+03  0.60105563142E+01  0.33354913309E+03  0.90920731027E+02 0.  0.
          2    1    3    3  502    0  0.69546984713E+02  0.58004690988E+02 -0.21065519919E+03  0.22929662057E+03  0.00000000000E+00 0. -1.
         -1    1    3    3    0  502  0.31722269841E+03  0.28550151449E+03 -0.62734824894E+03  0.75875370220E+03  0.00000000000E+00 0.  1.
         11    1    5    5    0    0 -0.20636148589E+03 -0.52450850452E+03  0.26294481917E+03  0.62195997628E+03  0.00000000000E+00 0. -1.
        -11    1    5    5    0    0 -0.73021975026E+02 -0.12135596088E+03  0.25629914493E+02  0.14393182621E+03  0.00000000000E+00 0.  1.
          1    1    6    6  503    0 -0.69058323934E+02  0.27117529829E+03  0.24250738560E+02  0.28087932076E+03  0.00000000000E+00 0. -1.
         -1    1    6    6    0  503 -0.38327898278E+02  0.31182961633E+02 -0.18240182246E+02  0.52669812331E+02  0.00000000000E+00 0.  1.
<mgrwt>
<rscale>  0 0.20155189E+04</rscale>
<asrwt>0</asrwt>
<pdfrwt beam="1">  1        2 0.11877485E+00 0.20155189E+04</pdfrwt>
<pdfrwt beam="2">  1       -1 0.20237765E+00 0.20155189E+04</pdfrwt>
<totfact> 0.55414195E+00</totfact>
</mgrwt>
</event>
<event>
12    6  0.1553355E-007  0.1782157E+04  0.7818608E-02  0.8715846E-01
         -1   -1    0    0    0  501 -0.00000000000E+00  0.00000000000E+00  0.38295456591E+03  0.38295456591E+03  0.00000000000E+00 0.  1.
          2   -1    0    0  501    0  0.00000000000E+00 -0.00000000000E+00 -0.20734069172E+04  0.20734069172E+04  0.00000000000E+00 0. -1.
         24    2    1    2    0    0  0.32846513274E+03  0.67830717634E+02 -0.14135704170E+04  0.14550420656E+04  0.80471976324E+02 0.  0.
        254    2    1    2    0    0 -0.32846513274E+03 -0.67830717634E+02 -0.27688193425E+03  0.10013194175E+04  0.90193493155E+03 0.  0.
         23    2    4    4    0    0 -0.46850223502E+03  0.24956112656E+03 -0.33986481659E+03  0.63706131409E+03  0.92541473104E+02 0.  0.
         23    2    4    4    0    0  0.14003710228E+03 -0.31739184420E+03  0.62982882334E+02  0.36425810346E+03  0.91483056838E+02 0.  0.
          2    1    3    3  502    0  0.15377941236E+03  0.19348340726E+02 -0.81553776432E+03  0.83013511610E+03  0.00000000000E+00 0. -1.
         -1    1    3    3    0  502  0.17468572038E+03  0.48482376909E+02 -0.59803265270E+03  0.62490694945E+03  0.00000000000E+00 0.  1.
         11    1    5    5    0    0 -0.30803654086E+02 -0.52178239460E-01 -0.29876908825E+01  0.30948249134E+02  0.00000000000E+00 0. -1.
        -11    1    5    5    0    0 -0.43769858094E+03  0.24961330480E+03 -0.33687712571E+03  0.60611306496E+03  0.00000000000E+00 0.  1.
          3    1    6    6  503    0 -0.46291427383E+01 -0.20200953768E+02 -0.13834739966E+02  0.24918016084E+02  0.00000000000E+00 0. -1.
         -3    1    6    6    0  503  0.14466624502E+03 -0.29719089043E+03  0.76817622301E+02  0.33934008737E+03  0.00000000000E+00 0.  1.
<mgrwt>
<rscale>  0 0.17821567E+04</rscale>
<asrwt>0</asrwt>
<pdfrwt beam="1">  1        2 0.31898568E+00 0.17821567E+04</pdfrwt>
<pdfrwt beam="2">  1       -1 0.58916087E-01 0.17821567E+04</pdfrwt>
<totfact> 0.19117650E+01</totfact>
</mgrwt>
</event>
<event>
12    6  0.1553355E-007  0.1188208E+04  0.7818608E-02  0.9123241E-01
          2   -1    0    0  501    0  0.00000000000E+00  0.00000000000E+00  0.80749328377E+03  0.80749328377E+03  0.00000000000E+00 0. -1.
         -1   -1    0    0    0  501 -0.00000000000E+00 -0.00000000000E+00 -0.43710502814E+03  0.43710502814E+03  0.00000000000E+00 0.  1.
         24    2    1    2    0    0  0.15465679378E+03 -0.17329559828E+03  0.27342681664E+01  0.24527804799E+03  0.78763928018E+02 0.  0.
        254    2    1    2    0    0 -0.15465679378E+03  0.17329559828E+03  0.36765398746E+03  0.99932026392E+03  0.89973409802E+03 0.  0.
         23    2    4    4    0    0  0.12882419380E+01 -0.11768627619E+03  0.57649396617E+03  0.59547797748E+03  0.91635197731E+02 0.  0.
         23    2    4    4    0    0 -0.15594503572E+03  0.29098187447E+03 -0.20883997871E+03  0.40384228644E+03  0.10239702231E+03 0.  0.
          2    1    3    3  502    0  0.15587797215E+02 -0.52184042220E+02 -0.22920609511E+02  0.59088983955E+02  0.00000000000E+00 0. -1.
         -1    1    3    3    0  502  0.13906899657E+03 -0.12111155606E+03  0.25654877678E+02  0.18618906403E+03  0.00000000000E+00 0.  1.
         11    1    5    5    0    0 -0.25268067175E+02 -0.40781841438E+02  0.87751595687E+02  0.10000988129E+03  0.00000000000E+00 0.  1.
        -11    1    5    5    0    0  0.26556309113E+02 -0.76904434748E+02  0.48874237048E+03  0.49546809619E+03  0.00000000000E+00 0. -1.
          3    1    6    6  503    0 -0.10506939942E+03  0.15718615847E+03 -0.62490675973E+02  0.19912848036E+03  0.00000000000E+00 0. -1.
         -3    1    6    6    0  503 -0.50875636302E+02  0.13379571600E+03 -0.14634930273E+03  0.20471380608E+03  0.00000000000E+00 0.  1.
<mgrwt>
<rscale>  0 0.11882077E+04</rscale>
<asrwt>0</asrwt>
<pdfrwt beam="1">  1        2 0.12422974E+00 0.11882077E+04</pdfrwt>
<pdfrwt beam="2">  1       -1 0.67246928E-01 0.11882077E+04</pdfrwt>
<totfact> 0.85921061E+01</totfact>
</mgrwt>
</event>
<event>
12    6  0.1553355E-007  0.2082632E+04  0.7818608E-02  0.8568933E-01
         -1   -1    0    0    0  501 -0.00000000000E+00  0.00000000000E+00  0.74615974099E+03  0.74615974099E+03  0.00000000000E+00 0.  1.
          2   -1    0    0  501    0  0.00000000000E+00 -0.00000000000E+00 -0.14532259062E+04  0.14532259062E+04  0.00000000000E+00 0. -1.
         24    2    1    2    0    0  0.29360755321E+03  0.53132470632E+03 -0.91239215060E+03  0.10988156875E+04  0.80156969940E+02 0.  0.
        254    2    1    2    0    0 -0.29360755321E+03 -0.53132470632E+03  0.20532598537E+03  0.11005699597E+04  0.89475367394E+03 0.  0.
         23    2    4    4    0    0 -0.44855586481E+03 -0.63069986827E+03  0.34693454373E+03  0.85314824434E+03  0.92269504701E+02 0.  0.
         23    2    4    4    0    0  0.15494831160E+03  0.99375161948E+02 -0.14160855836E+03  0.24742171534E+03  0.85323615358E+02 0.  0.
          4    1    3    3  502    0  0.28864880972E+03  0.50250520954E+03 -0.88975366181E+03  0.10618338852E+04  0.00000000000E+00 0. -1.
         -3    1    3    3    0  502  0.49587434961E+01  0.28819496783E+02 -0.22638488790E+02  0.36981802370E+02  0.00000000000E+00 0.  1.
         11    1    5    5    0    0 -0.62713244187E+02 -0.14086775263E+03  0.46895343079E+02  0.16117024518E+03  0.00000000000E+00 0.  1.
        -11    1    5    5    0    0 -0.38584262063E+03 -0.48983211564E+03  0.30003920065E+03  0.69197799917E+03  0.00000000000E+00 0. -1.
          1    1    6    6  503    0  0.86120661829E+02  0.32437959685E+02 -0.11597082253E+03  0.14804803714E+03  0.00000000000E+00 0. -1.
         -1    1    6    6    0  503  0.68827649772E+02  0.66937202263E+02 -0.25637735836E+02  0.99373678198E+02  0.00000000000E+00 0.  1.
<mgrwt>
<rscale>  0 0.20826317E+04</rscale>
<asrwt>0</asrwt>
<pdfrwt beam="1">  1        2 0.22357322E+00 0.20826317E+04</pdfrwt>
<pdfrwt beam="2">  1       -1 0.11479381E+00 0.20826317E+04</pdfrwt>
<totfact> 0.97813121E+00</totfact>
</mgrwt>
</event>
<event>
12    6  0.1553355E-007  0.3108467E+04  0.7818608E-02  0.8213418E-01
         -1   -1    0    0    0  501 -0.00000000000E+00  0.00000000000E+00  0.22590010740E+04  0.22590010740E+04  0.00000000000E+00 0.  1.
          2   -1    0    0  501    0  0.00000000000E+00 -0.00000000000E+00 -0.10693409300E+04  0.10693409300E+04  0.00000000000E+00 0. -1.
         24    2    1    2    0    0  0.31877940476E+03 -0.46663577942E+03 -0.85253816744E+03  0.10259235404E+04  0.79552022683E+02 0.  0.
        254    2    1    2    0    0 -0.31877940476E+03  0.46663577942E+03  0.20421983115E+04  0.23024184636E+04  0.90065952423E+03 0.  0.
         23    2    4    4    0    0 -0.34902803518E+03  0.15717110301E+03  0.21868816998E+03  0.45045234353E+03  0.92517420744E+02 0.  0.
         23    2    4    4    0    0  0.30248630420E+02  0.30946467641E+03  0.18235101415E+04  0.18519661201E+04  0.88915173804E+02 0.  0.
          2    1    3    3  502    0  0.27107352297E+03 -0.43081456341E+03 -0.73397339814E+03  0.89319594272E+03  0.00000000000E+00 0. -1.
         -1    1    3    3    0  502  0.47705881798E+02 -0.35821216004E+02 -0.11856476929E+03  0.13272759770E+03  0.00000000000E+00 0.  1.
         11    1    5    5    0    0  0.18050919094E+00  0.16661817156E+02  0.15199881094E+02  0.22554048856E+02  0.00000000000E+00 0.  1.
        -11    1    5    5    0    0 -0.34920854437E+03  0.14050928585E+03  0.20348828888E+03  0.42789829468E+03  0.00000000000E+00 0. -1.
          1    1    6    6  503    0  0.19460063971E+02  0.30607772423E+03  0.17992245340E+04  0.18251770301E+04  0.00000000000E+00 0. -1.
         -1    1    6    6    0  503  0.10788566449E+02  0.33869521746E+01  0.24285607522E+02  0.26789090014E+02  0.00000000000E+00 0.  1.
<mgrwt>
<rscale>  0 0.31084673E+04</rscale>
<asrwt>0</asrwt>
<pdfrwt beam="1">  1        2 0.16451399E+00 0.31084673E+04</pdfrwt>
<pdfrwt beam="2">  1       -1 0.34753862E+00 0.31084673E+04</pdfrwt>
<totfact> 0.35489584E-01</totfact>
</mgrwt>
</event>
<event>
12    6  0.1553355E-007  0.3767953E+04  0.7818608E-02  0.8053067E-01
         -1   -1    0    0    0  501 -0.00000000000E+00  0.00000000000E+00  0.20563414816E+04  0.20563414816E+04  0.00000000000E+00 0.  1.
          2   -1    0    0  501    0  0.00000000000E+00 -0.00000000000E+00 -0.17260596234E+04  0.17260596234E+04  0.00000000000E+00 0. -1.
         24    2    1    2    0    0 -0.12450512915E+03  0.17693735462E+04  0.30319933311E+03  0.18011196312E+04  0.76927350661E+02 0.  0.
        254    2    1    2    0    0  0.12450512915E+03 -0.17693735462E+04  0.27082525027E+02  0.19812814737E+04  0.88235964429E+03 0.  0.
         23    2    4    4    0    0 -0.11885625395E+03 -0.11536653195E+04 -0.34891210321E+03  0.12145094739E+04  0.90681463387E+02 0.  0.
         23    2    4    4    0    0  0.24336138310E+03 -0.61570822668E+03  0.37599462824E+03  0.76677199987E+03  0.90807247154E+02 0.  0.
          2    1    3    3  502    0 -0.59655012107E+02  0.10761241016E+04  0.21861564426E+03  0.10997247848E+04  0.00000000000E+00 0. -1.
         -1    1    3    3    0  502 -0.64850117042E+02  0.69324944465E+03  0.84583688847E+02  0.70139484644E+03  0.00000000000E+00 0.  1.
         11    1    5    5    0    0 -0.17796366624E+02 -0.15063168811E+03 -0.78357011855E+02  0.17072327737E+03  0.00000000000E+00 0. -1.
        -11    1    5    5    0    0 -0.10105988733E+03 -0.10030336314E+04 -0.27055509135E+03  0.10437861965E+04  0.00000000000E+00 0.  1.
          3    1    6    6  503    0  0.66971359543E+01 -0.78327917101E+02  0.66756957921E+02  0.10313392099E+03  0.00000000000E+00 0. -1.
         -3    1    6    6    0  503  0.23666424715E+03 -0.53738030958E+03  0.30923767031E+03  0.66363807889E+03  0.00000000000E+00 0.  1.
<mgrwt>
<rscale>  0 0.37679533E+04</rscale>
<asrwt>0</asrwt>
<pdfrwt beam="1">  1        2 0.26554763E+00 0.37679533E+04</pdfrwt>
<pdfrwt beam="2">  1       -1 0.31636023E+00 0.37679533E+04</pdfrwt>
<totfact> 0.22431244E-01</totfact>
</mgrwt>
</event>
<event>
12    6  0.1553355E-007  0.1575644E+04  0.7818608E-02  0.8835652E-01
         -1   -1    0    0    0  501 -0.00000000000E+00  0.00000000000E+00  0.30940368010E+03  0.30940368010E+03  0.00000000000E+00 0.  1.
          2   -1    0    0  501    0  0.00000000000E+00 -0.00000000000E+00 -0.20059987038E+04  0.20059987038E+04  0.00000000000E+00 0. -1.
         24    2    1    2    0    0  0.29278668601E+03 -0.24775714805E+03 -0.38224242781E+02  0.39352435138E+03  0.79326379449E+02 0.  0.
        254    2    1    2    0    0 -0.29278668601E+03  0.24775714805E+03 -0.16583707809E+04  0.19218780325E+04  0.89236420648E+03 0.  0.
         23    2    4    4    0    0  0.15087073410E+03  0.34330346547E+03 -0.12373726734E+04  0.12962411641E+04  0.92362193766E+02 0.  0.
         23    2    4    4    0    0 -0.44365742011E+03 -0.95546317419E+02 -0.42099810756E+03  0.62563686846E+03  0.90670168283E+02 0.  0.
          2    1    3    3  502    0  0.83987141290E+02 -0.48519879995E+02  0.20173338182E+02  0.99070592156E+02  0.00000000000E+00 0. -1.
         -1    1    3    3    0  502  0.20879954472E+03 -0.19923726806E+03 -0.58397580963E+02  0.29445375922E+03  0.00000000000E+00 0.  1.
         11    1    5    5    0    0 -0.20599796015E+01  0.87446970847E+02 -0.25034805556E+03  0.26518930060E+03  0.00000000000E+00 0. -1.
        -11    1    5    5    0    0  0.15293071370E+03  0.25585649462E+03 -0.98702461781E+03  0.10310518635E+04  0.00000000000E+00 0.  1.
          3    1    6    6  503    0 -0.29841316375E+03 -0.10502504233E+03 -0.27001958698E+03  0.41592217200E+03  0.00000000000E+00 0. -1.
         -3    1    6    6    0  503 -0.14524425636E+03  0.94787249082E+01 -0.15097852058E+03  0.20971469645E+03  0.00000000000E+00 0.  1.
<mgrwt>
<rscale>  0 0.15756438E+04</rscale>
<asrwt>0</asrwt>
<pdfrwt beam="1">  1        2 0.30861518E+00 0.15756438E+04</pdfrwt>
<pdfrwt beam="2">  1       -1 0.47600567E-01 0.15756438E+04</pdfrwt>
<totfact> 0.31979389E+01</totfact>
</mgrwt>
</event>
<event>
12    6  0.1553355E-007  0.1444491E+04  0.7818608E-02  0.8922229E-01
          2   -1    0    0  501    0  0.00000000000E+00  0.00000000000E+00  0.27756052220E+04  0.27756052220E+04  0.00000000000E+00 0. -1.
         -1   -1    0    0    0  501 -0.00000000000E+00 -0.00000000000E+00 -0.18793688834E+03  0.18793688834E+03  0.00000000000E+00 0.  1.
         24    2    1    2    0    0 -0.63726666466E+02 -0.25111092360E+03  0.15357569443E+04  0.15596153950E+04  0.82054887697E+02 0.  0.
        254    2    1    2    0    0  0.63726666466E+02  0.25111092360E+03  0.10519113894E+04  0.14039267153E+04  0.89295849109E+03 0.  0.
         23    2    4    4    0    0 -0.30286977790E+03  0.40689281570E+03  0.51353200992E+03  0.72754321893E+03  0.91170962351E+02 0.  0.
         23    2    4    4    0    0  0.36659644437E+03 -0.15578189209E+03  0.53837937946E+03  0.67638349635E+03  0.94769863200E+02 0.  0.
          4    1    3    3  502    0 -0.82180311726E+02 -0.22680373770E+03  0.13656581209E+04  0.13868005056E+04  0.00000000000E+00 0. -1.
         -3    1    3    3    0  502  0.18453645260E+02 -0.24307185904E+02  0.17009882333E+03  0.17281488942E+03  0.00000000000E+00 0.  1.
         11    1    5    5    0    0 -0.61472577701E+02  0.51658171740E+02  0.45413912296E+02  0.92248945505E+02  0.00000000000E+00 0.  1.
        -11    1    5    5    0    0 -0.24139720020E+03  0.35523464395E+03  0.46811809762E+03  0.63529427343E+03  0.00000000000E+00 0. -1.
          3    1    6    6  503    0  0.30705338594E+03 -0.94433194610E+02  0.45487732096E+03  0.55687771295E+03  0.00000000000E+00 0. -1.
         -3    1    6    6    0  503  0.59543058429E+02 -0.61348697483E+02  0.83502058502E+02  0.11950578339E+03  0.00000000000E+00 0.  1.
<mgrwt>
<rscale>  0 0.14444911E+04</rscale>
<asrwt>0</asrwt>
<pdfrwt beam="1">  1        2 0.42701616E+00 0.14444911E+04</pdfrwt>
<pdfrwt beam="2">  1       -1 0.28913369E-01 0.14444911E+04</pdfrwt>
<totfact> 0.28938726E+01</totfact>
</mgrwt>
</event>
<event>
12    6  0.1553355E-007  0.1800868E+04  0.7818608E-02  0.8705838E-01
          2   -1    0    0  501    0  0.00000000000E+00  0.00000000000E+00  0.18122116243E+04  0.18122116243E+04  0.00000000000E+00 0. -1.
         -3   -1    0    0    0  501 -0.00000000000E+00 -0.00000000000E+00 -0.44739882395E+03  0.44739882395E+03  0.00000000000E+00 0.  1.
         24    2    1    2    0    0  0.36220806578E+03  0.50771808938E+03  0.20314598224E+03  0.66020938826E+03  0.75071999033E+02 0.  0.
        254    2    1    2    0    0 -0.36220806578E+03 -0.50771808938E+03  0.11616668181E+04  0.15994010600E+04  0.90534060619E+03 0.  0.
         23    2    4    4    0    0 -0.11608361455E+02 -0.45755762119E+03  0.10164527726E+03  0.47797825756E+03  0.92939343356E+02 0.  0.
         23    2    4    4    0    0 -0.35059970432E+03 -0.50160468196E+02  0.10600215408E+04  0.11214228024E+04  0.92234535461E+02 0.  0.
          2    1    3    3  502    0  0.18139319455E+03  0.30515736465E+03  0.13877535673E+03  0.38116021286E+03  0.00000000000E+00 0. -1.
         -1    1    3    3    0  502  0.18081487123E+03  0.20256072473E+03  0.64370625508E+02  0.27904917540E+03  0.00000000000E+00 0.  1.
         11    1    5    5    0    0 -0.38280018235E+02 -0.29982054676E+03  0.33543906487E+02  0.30411003554E+03  0.00000000000E+00 0. -1.
        -11    1    5    5    0    0  0.26671656780E+02 -0.15773707443E+03  0.68101370774E+02  0.17386822201E+03  0.00000000000E+00 0.  1.
          3    1    6    6  503    0 -0.35402430698E+03 -0.50273233666E+02  0.10126529882E+04  0.10739304831E+04  0.00000000000E+00 0. -1.
         -3    1    6    6    0  503  0.34246026559E+01  0.11276547023E+00  0.47368552632E+02  0.47492319357E+02  0.00000000000E+00 0.  1.
<mgrwt>
<rscale>  0 0.18008680E+04</rscale>
<asrwt>0</asrwt>
<pdfrwt beam="1">  1        2 0.27880178E+00 0.18008680E+04</pdfrwt>
<pdfrwt beam="2">  1       -3 0.68830589E-01 0.18008680E+04</pdfrwt>
<totfact> 0.10382271E+01</totfact>
</mgrwt>
</event>
<event>
12    6  0.1553355E-007  0.1369400E+04  0.7818608E-02  0.8976271E-01
         -1   -1    0    0    0  501 -0.00000000000E+00  0.00000000000E+00  0.21527233363E+03  0.21527233363E+03  0.00000000000E+00 0.  1.
          2   -1    0    0  501    0  0.00000000000E+00 -0.00000000000E+00 -0.21777706476E+04  0.21777706476E+04  0.00000000000E+00 0. -1.
         24    2    1    2    0    0  0.27610441148E+03 -0.12451671240E+03 -0.97229007195E+03  0.10214960684E+04  0.79800851824E+02 0.  0.
        254    2    1    2    0    0 -0.27610441148E+03  0.12451671240E+03 -0.99020824202E+03  0.13715469129E+04  0.89938340764E+03 0.  0.
         23    2    4    4    0    0  0.96884606415E+02  0.22596350626E+03  0.41782725421E+02  0.26583294880E+03  0.92060998257E+02 0.  0.
         23    2    4    4    0    0 -0.37298901790E+03 -0.10144679386E+03 -0.10319909674E+04  0.11057139641E+04  0.90475156933E+02 0.  0.
          2    1    3    3  502    0  0.21227945457E+03 -0.59714566420E+02 -0.73513358872E+03  0.76749579122E+03  0.00000000000E+00 0. -1.
         -1    1    3    3    0  502  0.63824956910E+02 -0.64802145980E+02 -0.23715648323E+03  0.25400027714E+03  0.00000000000E+00 0.  1.
         11    1    5    5    0    0  0.47624664878E+02  0.13644973405E+03  0.68925046609E+02  0.16011652219E+03  0.00000000000E+00 0. -1.
        -11    1    5    5    0    0  0.49259941537E+02  0.89513772209E+02 -0.27142321188E+02  0.10571642661E+03  0.00000000000E+00 0.  1.
          2    1    6    6  503    0 -0.13719971433E+03 -0.65060577744E+02 -0.30743617093E+03  0.34289012757E+03  0.00000000000E+00 0.  1.
         -2    1    6    6    0  503 -0.23578930357E+03 -0.36386216116E+02 -0.72455479651E+03  0.76282383651E+03  0.00000000000E+00 0. -1.
<mgrwt>
<rscale>  0 0.13693995E+04</rscale>
<asrwt>0</asrwt>
<pdfrwt beam="1">  1        2 0.33504165E+00 0.13693995E+04</pdfrwt>
<pdfrwt beam="2">  1       -1 0.33118820E-01 0.13693995E+04</pdfrwt>
<totfact> 0.50658314E+01</totfact>
</mgrwt>
</event>
<event>
12    6  0.1553355E-007  0.1545872E+04  0.7818608E-02  0.8854509E-01
         -1   -1    0    0    0  501 -0.00000000000E+00  0.00000000000E+00  0.75952340780E+03  0.75952340780E+03  0.00000000000E+00 0.  1.
          2   -1    0    0  501    0  0.00000000000E+00 -0.00000000000E+00 -0.78658553417E+03  0.78658553417E+03  0.00000000000E+00 0. -1.
         24    2    1    2    0    0  0.25168449128E+02  0.31439271080E+03 -0.40636257807E+03  0.52106193435E+03  0.83058817281E+02 0.  0.
        254    2    1    2    0    0 -0.25168449128E+02 -0.31439271080E+03  0.37930045170E+03  0.10250470076E+04  0.89854121093E+03 0.  0.
         23    2    4    4    0    0 -0.14967118714E+03  0.24142555028E+03 -0.55231947961E+02  0.30291276639E+03  0.89542254692E+02 0.  0.
         23    2    4    4    0    0  0.12450273802E+03 -0.55581826109E+03  0.43453239966E+03  0.72213424123E+03  0.90689497063E+02 0.  0.
          4    1    3    3  502    0  0.33030921083E+02  0.31555002831E+03 -0.40156623229E+03  0.51177954339E+03  0.00000000000E+00 0. -1.
         -3    1    3    3    0  502 -0.78624719552E+01 -0.11573175058E+01 -0.47963457850E+01  0.92823909606E+01  0.00000000000E+00 0.  1.
         11    1    5    5    0    0  0.59722785915E+01  0.52954734887E+02 -0.13115118050E+02  0.54880582905E+02  0.00000000000E+00 0.  1.
        -11    1    5    5    0    0 -0.15564346574E+03  0.18847081540E+03 -0.42116829911E+02  0.24803218348E+03  0.00000000000E+00 0. -1.
          4    1    6    6  503    0  0.16709281542E+02 -0.13409748701E+02  0.30392363203E+02  0.37184905418E+02  0.00000000000E+00 0.  1.
         -4    1    6    6    0  503  0.10779345647E+03 -0.54240851239E+03  0.40414003646E+03  0.68494933582E+03  0.00000000000E+00 0. -1.
<mgrwt>
<rscale>  0 0.15458721E+04</rscale>
<asrwt>0</asrwt>
<pdfrwt beam="1">  1        2 0.12101316E+00 0.15458721E+04</pdfrwt>
<pdfrwt beam="2">  1       -1 0.11684976E+00 0.15458721E+04</pdfrwt>
<totfact> 0.25588517E+01</totfact>
</mgrwt>
</event>
<event>
12    6  0.1553355E-007  0.1437195E+04  0.7818608E-02  0.8927326E-01
         -1   -1    0    0    0  501 -0.00000000000E+00  0.00000000000E+00  0.39526197196E+03  0.39526197196E+03  0.00000000000E+00 0.  1.
          2   -1    0    0  501    0  0.00000000000E+00 -0.00000000000E+00 -0.13064311922E+04  0.13064311922E+04  0.00000000000E+00 0. -1.
         24    2    1    2    0    0  0.76013876929E+02  0.18568034799E+03 -0.71619216363E+03  0.74815296650E+03  0.80909486041E+02 0.  0.
        254    2    1    2    0    0 -0.76013876929E+02 -0.18568034799E+03 -0.19497705658E+03  0.95354019762E+03  0.91157421791E+03 0.  0.
         23    2    4    4    0    0 -0.20379840451E+02 -0.97373493397E+02 -0.55221903148E+03  0.56849134952E+03  0.91321523402E+02 0.  0.
         23    2    4    4    0    0 -0.55634036478E+02 -0.88306854592E+02  0.35724197491E+03  0.38504884809E+03  0.98729631829E+02 0.  0.
          4    1    3    3  502    0  0.80289879061E+02  0.12295772529E+03 -0.57747479089E+03  0.59585417763E+03  0.00000000000E+00 0. -1.
         -3    1    3    3    0  502 -0.42760021317E+01  0.62722622700E+02 -0.13871737274E+03  0.15229878887E+03  0.00000000000E+00 0.  1.
         11    1    5    5    0    0  0.33493279685E+02 -0.26060245988E+02 -0.24038265574E+03  0.24409989222E+03  0.00000000000E+00 0. -1.
        -11    1    5    5    0    0 -0.53873120136E+02 -0.71313247409E+02 -0.31183637575E+03  0.32439145730E+03  0.00000000000E+00 0.  1.
          3    1    6    6  503    0 -0.79753669405E+02 -0.72693441194E+02  0.22263075685E+03  0.24740541238E+03  0.00000000000E+00 0. -1.
         -3    1    6    6    0  503  0.24119632927E+02 -0.15613413398E+02  0.13461121805E+03  0.13764343572E+03  0.00000000000E+00 0.  1.
<mgrwt>
<rscale>  0 0.14371953E+04</rscale>
<asrwt>0</asrwt>
<pdfrwt beam="1">  1        2 0.20098941E+00 0.14371953E+04</pdfrwt>
<pdfrwt beam="2">  1       -1 0.60809534E-01 0.14371953E+04</pdfrwt>
<totfact> 0.49734152E+01</totfact>
</mgrwt>
</event>
<event>
12    6  0.1553355E-007  0.1061518E+04  0.7818608E-02  0.9243533E-01
         -1   -1    0    0    0  501 -0.00000000000E+00  0.00000000000E+00  0.12980529921E+04  0.12980529921E+04  0.00000000000E+00 0.  1.
          2   -1    0    0  501    0  0.00000000000E+00 -0.00000000000E+00 -0.21702113154E+03  0.21702113154E+03  0.00000000000E+00 0. -1.
         24    2    1    2    0    0 -0.92071666688E+02  0.58540477173E+01  0.18334139634E+02  0.12279999664E+03  0.78944517343E+02 0.  0.
        254    2    1    2    0    0  0.92071666688E+02 -0.58540477173E+01  0.10626977209E+04  0.13922741270E+04  0.89475657972E+03 0.  0.
         23    2    4    4    0    0  0.42096781003E+03  0.15521670252E+03  0.31789646957E+03  0.55737426610E+03  0.91114133482E+02 0.  0.
         23    2    4    4    0    0 -0.32889614335E+03 -0.16107075024E+03  0.74480125134E+03  0.83489986088E+03  0.90622370366E+02 0.  0.
          4    1    3    3  502    0 -0.10015013536E+03 -0.24776815032E+01 -0.10743397038E+01  0.10018653963E+03  0.00000000000E+00 0. -1.
         -3    1    3    3    0  502  0.80784686697E+01  0.83317292206E+01  0.19408479338E+02  0.22613457012E+02  0.00000000000E+00 0.  1.
         11    1    5    5    0    0  0.41762825502E+03  0.13808596468E+03  0.31051538465E+03  0.53842445815E+03  0.00000000000E+00 0.  1.
        -11    1    5    5    0    0  0.33395550123E+01  0.17130737840E+02  0.73810849194E+01  0.18949807946E+02  0.00000000000E+00 0. -1.
          1    1    6    6  503    0 -0.17179299779E+02  0.81298805939E+01  0.18009570077E+02  0.26183351843E+02  0.00000000000E+00 0. -1.
         -1    1    6    6    0  503 -0.31171684357E+03 -0.16920063083E+03  0.72679168127E+03  0.80871650904E+03  0.00000000000E+00 0.  1.
<mgrwt>
<rscale>  0 0.10615176E+04</rscale>
<asrwt>0</asrwt>
<pdfrwt beam="1">  1        2 0.33387867E-01 0.10615176E+04</pdfrwt>
<pdfrwt beam="2">  1       -1 0.19970046E+00 0.10615176E+04</pdfrwt>
<totfact> 0.27276051E+01</totfact>
</mgrwt>
</event>
<event>
12    6  0.1553355E-007  0.2198346E+04  0.7818608E-02  0.8519117E-01
          2   -1    0    0  501    0  0.00000000000E+00  0.00000000000E+00  0.17744632551E+04  0.17744632551E+04  0.00000000000E+00 0. -1.
         -1   -1    0    0    0  501 -0.00000000000E+00 -0.00000000000E+00 -0.68087157394E+03  0.68087157394E+03  0.00000000000E+00 0.  1.
         24    2    1    2    0    0  0.34442980580E+03  0.72592835866E+03  0.93807617858E+03  0.12377168344E+04  0.79700516351E+02 0.  0.
        254    2    1    2    0    0 -0.34442980580E+03 -0.72592835866E+03  0.15551550260E+03  0.12176179947E+04  0.90155678488E+03 0.  0.
         23    2    4    4    0    0 -0.62537188367E+03 -0.40938787347E+03  0.20862994051E+03  0.78187830748E+03  0.95492469908E+02 0.  0.
         23    2    4    4    0    0  0.28094207786E+03 -0.31654048519E+03 -0.53114437906E+02  0.43573968719E+03  0.89003379708E+02 0.  0.
          4    1    3    3  502    0  0.34321946907E+03  0.72273112155E+03  0.93949619696E+03  0.12340149846E+04  0.00000000000E+00 0. -1.
         -3    1    3    3    0  502  0.12103367394E+01  0.31972371077E+01 -0.14200183718E+01  0.37018498514E+01  0.00000000000E+00 0.  1.
         11    1    5    5    0    0 -0.14304953777E+03 -0.14337991589E+03  0.48527339230E+02  0.20826875231E+03  0.00000000000E+00 0. -1.
        -11    1    5    5    0    0 -0.48232234589E+03 -0.26600795758E+03  0.16010260128E+03  0.57360955517E+03  0.00000000000E+00 0.  1.
          2    1    6    6  503    0  0.63388497678E+02 -0.12402363433E+03  0.54560285545E+01  0.13939057270E+03  0.00000000000E+00 0. -1.
         -2    1    6    6    0  503  0.21755358019E+03 -0.19251685086E+03 -0.58570466461E+02  0.29634911449E+03  0.00000000000E+00 0.  1.
<mgrwt>
<rscale>  0 0.21983463E+04</rscale>
<asrwt>0</asrwt>
<pdfrwt beam="1">  1        2 0.27299435E+00 0.21983463E+04</pdfrwt>
<pdfrwt beam="2">  1       -1 0.10474947E+00 0.21983463E+04</pdfrwt>
<totfact> 0.79441654E+00</totfact>
</mgrwt>
</event>
<event>
12    6  0.1553355E-007  0.2234976E+04  0.7818608E-02  0.8504010E-01
          2   -1    0    0  501    0  0.00000000000E+00  0.00000000000E+00  0.22253763908E+04  0.22253763908E+04  0.00000000000E+00 0. -1.
         -1   -1    0    0    0  501 -0.00000000000E+00 -0.00000000000E+00 -0.56115425139E+03  0.56115425139E+03  0.00000000000E+00 0.  1.
         24    2    1    2    0    0  0.55492160642E+01 -0.54767500063E+03  0.15896166860E+04  0.16832584813E+04  0.80617656370E+02 0.  0.
        254    2    1    2    0    0 -0.55492160642E+01  0.54767500063E+03  0.74605453451E+02  0.11032721609E+04  0.95481138826E+03 0.  0.
         23    2    4    4    0    0  0.16888959694E+03 -0.23104465058E+02  0.38010788226E+03  0.42682798430E+03  0.92965659057E+02 0.  0.
         23    2    4    4    0    0 -0.17443881301E+03  0.57077946569E+03 -0.30550242880E+03  0.67644417657E+03  0.89592924277E+02 0.  0.
          2    1    3    3  502    0 -0.79796477267E+01 -0.47246640911E+03  0.14348170283E+04  0.15106250650E+04  0.00000000000E+00 0. -1.
         -1    1    3    3    0  502  0.13528863791E+02 -0.75208591517E+02  0.15479965772E+03  0.17263341630E+03  0.00000000000E+00 0.  1.
         11    1    5    5    0    0  0.13872847309E+03  0.20366860297E+02  0.29475511531E+03  0.32640615228E+03  0.00000000000E+00 0. -1.
        -11    1    5    5    0    0  0.30161123849E+02 -0.43471325355E+02  0.85352766949E+02  0.10042183202E+03  0.00000000000E+00 0.  1.
          4    1    6    6  503    0 -0.12957186390E+03  0.46573091257E+03 -0.28253647992E+03  0.55992947174E+03  0.00000000000E+00 0. -1.
         -4    1    6    6    0  503 -0.44866949102E+02  0.10504855312E+03 -0.22965948884E+02  0.11651470483E+03  0.00000000000E+00 0.  1.
<mgrwt>
<rscale>  0 0.22349760E+04</rscale>
<asrwt>0</asrwt>
<pdfrwt beam="1">  1        2 0.34236559E+00 0.22349760E+04</pdfrwt>
<pdfrwt beam="2">  1       -1 0.86331425E-01 0.22349760E+04</pdfrwt>
<totfact> 0.68585086E+00</totfact>
</mgrwt>
</event>
<event>
12    6  0.1553355E-007  0.1841145E+04  0.7818608E-02  0.8684720E-01
         -1   -1    0    0    0  501 -0.00000000000E+00  0.00000000000E+00  0.75917165857E+03  0.75917165857E+03  0.00000000000E+00 0.  1.
          2   -1    0    0  501    0  0.00000000000E+00 -0.00000000000E+00 -0.11162877712E+04  0.11162877712E+04  0.00000000000E+00 0. -1.
         24    2    1    2    0    0 -0.51705920336E+03  0.39860233702E+03  0.97038133388E+02  0.66488602658E+03  0.80143534706E+02 0.  0.
        254    2    1    2    0    0  0.51705920336E+03 -0.39860233702E+03 -0.45415424605E+03  0.12105734032E+04  0.91268715479E+03 0.  0.
         23    2    4    4    0    0  0.57335089765E+03 -0.28986640381E+02 -0.56434229830E+03  0.81022221667E+03  0.91686059904E+02 0.  0.
         23    2    4    4    0    0 -0.56291694285E+02 -0.36961569663E+03  0.11018805225E+03  0.40035118655E+03  0.91406496883E+02 0.  0.
          4    1    3    3  502    0 -0.44519295093E+03  0.31672282634E+03  0.59206728922E+02  0.54955941356E+03  0.00000000000E+00 0. -1.
         -3    1    3    3    0  502 -0.71866252432E+02  0.81879510672E+02  0.37831404466E+02  0.11532661302E+03  0.00000000000E+00 0.  1.
         11    1    5    5    0    0  0.47093412186E+03 -0.36882825393E+02 -0.41388958458E+03  0.62804767189E+03  0.00000000000E+00 0. -1.
        -11    1    5    5    0    0  0.10241677578E+03  0.78961850122E+01 -0.15045271371E+03  0.18217454477E+03  0.00000000000E+00 0.  1.
          4    1    6    6  503    0 -0.77600684730E+02 -0.31576180734E+03  0.79192675599E+02  0.33466231505E+03  0.00000000000E+00 0. -1.
         -4    1    6    6    0  503  0.21308990445E+02 -0.53853889290E+02  0.30995376647E+02  0.65688871500E+02  0.00000000000E+00 0.  1.
<mgrwt>
<rscale>  0 0.18411453E+04</rscale>
<asrwt>0</asrwt>
<pdfrwt beam="1">  1        2 0.17173658E+00 0.18411453E+04</pdfrwt>
<pdfrwt beam="2">  1       -1 0.11679564E+00 0.18411453E+04</pdfrwt>
<totfact> 0.15108741E+01</totfact>
</mgrwt>
</event>
<event>
12    6  0.1553355E-007  0.3006879E+04  0.7818608E-02  0.8241769E-01
         -1   -1    0    0    0  501 -0.00000000000E+00  0.00000000000E+00  0.12319037217E+04  0.12319037217E+04  0.00000000000E+00 0.  1.
          2   -1    0    0  501    0  0.00000000000E+00 -0.00000000000E+00 -0.18348271156E+04  0.18348271156E+04  0.00000000000E+00 0. -1.
         24    2    1    2    0    0 -0.41404762406E+03 -0.75339811222E+03 -0.13651593875E+04  0.16151204423E+04  0.76874829535E+02 0.  0.
        254    2    1    2    0    0  0.41404762406E+03  0.75339811222E+03  0.76223599360E+03  0.14516103951E+04  0.88720058538E+03 0.  0.
         23    2    4    4    0    0  0.20707465701E+03  0.91519449222E+03  0.67560431938E+03  0.11603614748E+04  0.97655945576E+02 0.  0.
         23    2    4    4    0    0  0.20697296705E+03 -0.16179638000E+03  0.86631674216E+02  0.29124892027E+03  0.91131821607E+02 0.  0.
          2    1    3    3  502    0 -0.41033678386E+03 -0.71918284776E+03 -0.13223043757E+04  0.15601567571E+04  0.00000000000E+00 0. -1.
         -1    1    3    3    0  502 -0.37108402015E+01 -0.34215264462E+02 -0.42855011812E+02  0.54963685235E+02  0.00000000000E+00 0.  1.
         11    1    5    5    0    0  0.39099896862E+02  0.18795872895E+03  0.18876424247E+03  0.26923823086E+03  0.00000000000E+00 0.  1.
        -11    1    5    5    0    0  0.16797476015E+03  0.72723576327E+03  0.48684007691E+03  0.89112324395E+03  0.00000000000E+00 0. -1.
          3    1    6    6  503    0  0.19497751316E+03 -0.16804530093E+03  0.64578892613E+02  0.26537876172E+03  0.00000000000E+00 0. -1.
         -3    1    6    6    0  503  0.11995453895E+02  0.62489209289E+01  0.22052781603E+02  0.25870158549E+02  0.00000000000E+00 0.  1.
<mgrwt>
<rscale>  0 0.30068790E+04</rscale>
<asrwt>0</asrwt>
<pdfrwt beam="1">  1        2 0.28228109E+00 0.30068790E+04</pdfrwt>
<pdfrwt beam="2">  1       -1 0.18952365E+00 0.30068790E+04</pdfrwt>
<totfact> 0.14307181E+00</totfact>
</mgrwt>
</event>
<event>
12    6  0.1553355E-007  0.2099517E+04  0.7818608E-02  0.8561456E-01
          2   -1    0    0  501    0  0.00000000000E+00  0.00000000000E+00  0.22654097944E+04  0.22654097944E+04  0.00000000000E+00 0. -1.
         -1   -1    0    0    0  501 -0.00000000000E+00 -0.00000000000E+00 -0.48644290777E+03  0.48644290777E+03  0.00000000000E+00 0.  1.
         24    2    1    2    0    0 -0.67736274394E+03  0.21022561303E+03  0.10197338172E+03  0.72125186781E+03  0.82405042240E+02 0.  0.
        254    2    1    2    0    0  0.67736274394E+03 -0.21022561303E+03  0.16769935049E+04  0.20306008344E+04  0.89889790175E+03 0.  0.
         23    2    4    4    0    0  0.36299585554E+03 -0.43445580812E+03  0.14806095299E+04  0.15878285809E+04  0.92071612080E+02 0.  0.
         23    2    4    4    0    0  0.31436688840E+03  0.22423019509E+03  0.19638397496E+03  0.44277225348E+03  0.91514380936E+02 0.  0.
          4    1    3    3  502    0 -0.33809931292E+02 -0.55729516780E+01  0.13113685221E+02  0.36689753126E+02  0.00000000000E+00 0. -1.
         -3    1    3    3    0  502 -0.64355281264E+03  0.21579856471E+03  0.88859696503E+02  0.68456211468E+03  0.00000000000E+00 0.  1.
         11    1    5    5    0    0  0.40895772969E+02 -0.49722595491E+02  0.26553499348E+03  0.27322817116E+03  0.00000000000E+00 0.  1.
        -11    1    5    5    0    0  0.32210008257E+03 -0.38473321263E+03  0.12150745365E+04  0.13146004097E+04  0.00000000000E+00 0. -1.
          3    1    6    6  503    0  0.14764665301E+03  0.14874287793E+03  0.72475955368E+02  0.22175829632E+03  0.00000000000E+00 0. -1.
         -3    1    6    6    0  503  0.16672023539E+03  0.75487317161E+02  0.12390801959E+03  0.22101395716E+03  0.00000000000E+00 0.  1.
<mgrwt>
<rscale>  0 0.20995166E+04</rscale>
<asrwt>0</asrwt>
<pdfrwt beam="1">  1        2 0.34852458E+00 0.20995166E+04</pdfrwt>
<pdfrwt beam="2">  1       -1 0.74837372E-01 0.20995166E+04</pdfrwt>
<totfact> 0.89359902E+00</totfact>
</mgrwt>
</event>
<event>
12    6  0.1553355E-007  0.1411023E+04  0.7818608E-02  0.8945878E-01
          2   -1    0    0  501    0  0.00000000000E+00  0.00000000000E+00  0.29473284565E+04  0.29473284565E+04  0.00000000000E+00 0. -1.
         -1   -1    0    0    0  501 -0.00000000000E+00 -0.00000000000E+00 -0.16888050180E+03  0.16888050180E+03  0.00000000000E+00 0.  1.
         24    2    1    2    0    0  0.15045261120E+03  0.38166553100E+03  0.68969971420E+03  0.80639807341E+03  0.79294333152E+02 0.  0.
        254    2    1    2    0    0 -0.15045261120E+03 -0.38166553100E+03  0.20887482405E+04  0.23098108849E+04  0.89668977131E+03 0.  0.
         23    2    4    4    0    0 -0.57115053981E+02 -0.62896581694E+03  0.10033514204E+04  0.11890040600E+04  0.90313086288E+02 0.  0.
         23    2    4    4    0    0 -0.93337557217E+02  0.24730028594E+03  0.10853968200E+04  0.11208068249E+04  0.90842449754E+02 0.  0.
          2    1    3    3  502    0  0.90598582830E+02  0.26153217965E+03  0.39226421803E+03  0.48008166071E+03  0.00000000000E+00 0. -1.
         -1    1    3    3    0  502  0.59854028368E+02  0.12013335135E+03  0.29743549617E+03  0.32631641270E+03  0.00000000000E+00 0.  1.
         11    1    5    5    0    0  0.70003688591E+01 -0.65038802721E+01  0.33221501254E+02  0.34568392620E+02  0.00000000000E+00 0. -1.
        -11    1    5    5    0    0 -0.64115422840E+02 -0.62246193667E+03  0.97012991919E+03  0.11544356674E+04  0.00000000000E+00 0.  1.
          1    1    6    6  503    0 -0.31291905868E+02  0.71524937649E+02  0.17655093147E+03  0.19304204589E+03  0.00000000000E+00 0. -1.
         -1    1    6    6    0  503 -0.62045651349E+02  0.17577534829E+03  0.90884588858E+03  0.92776477897E+03  0.00000000000E+00 0.  1.
<mgrwt>
<rscale>  0 0.14110228E+04</rscale>
<asrwt>0</asrwt>
<pdfrwt beam="1">  1        2 0.45343511E+00 0.14110228E+04</pdfrwt>
<pdfrwt beam="2">  1       -1 0.25981618E-01 0.14110228E+04</pdfrwt>
<totfact> 0.27492599E+01</totfact>
</mgrwt>
</event>
<event>
12    6  0.1553355E-007  0.1239227E+04  0.7818608E-02  0.9079197E-01
          2   -1    0    0  501    0  0.00000000000E+00  0.00000000000E+00  0.13977939733E+04  0.13977939733E+04  0.00000000000E+00 0. -1.
         -1   -1    0    0    0  501 -0.00000000000E+00 -0.00000000000E+00 -0.27466221448E+03  0.27466221448E+03  0.00000000000E+00 0.  1.
         24    2    1    2    0    0 -0.12042740034E+03  0.21849107179E+03  0.84219333390E+02  0.27557534653E+03  0.81288180501E+02 0.  0.
        254    2    1    2    0    0  0.12042740034E+03 -0.21849107179E+03  0.10389124254E+04  0.13968808412E+04  0.89983106733E+03 0.  0.
         23    2    4    4    0    0  0.41583557165E+03 -0.26562663043E+03  0.27698803569E+03  0.57333205298E+03  0.92252596804E+02 0.  0.
         23    2    4    4    0    0 -0.29540817130E+03  0.47135558640E+02  0.76192438971E+03  0.82354878825E+03  0.90642608211E+02 0.  0.
          4    1    3    3  502    0 -0.20280356406E+02  0.10137253009E+03  0.60157150673E+02  0.11961005597E+03  0.00000000000E+00 0. -1.
         -3    1    3    3    0  502 -0.10014704394E+03  0.11711854171E+03  0.24062182718E+02  0.15596529056E+03  0.00000000000E+00 0.  1.
         11    1    5    5    0    0  0.17128952449E+03 -0.14009141136E+03  0.16713936211E+03  0.27731078432E+03  0.00000000000E+00 0.  1.
        -11    1    5    5    0    0  0.24454604716E+03 -0.12553521907E+03  0.10984867358E+03  0.29602126866E+03  0.00000000000E+00 0. -1.
          2    1    6    6  503    0 -0.19865798852E+03  0.45519942816E+01  0.58058900342E+03  0.61365243253E+03  0.00000000000E+00 0. -1.
         -2    1    6    6    0  503 -0.96750182788E+02  0.42583564358E+02  0.18133538629E+03  0.20989635572E+03  0.00000000000E+00 0.  1.
<mgrwt>
<rscale>  0 0.12392275E+04</rscale>
<asrwt>0</asrwt>
<pdfrwt beam="1">  1        2 0.21504522E+00 0.12392275E+04</pdfrwt>
<pdfrwt beam="2">  1       -1 0.42255726E-01 0.12392275E+04</pdfrwt>
<totfact> 0.89577941E+01</totfact>
</mgrwt>
</event>
<event>
12    6  0.1553355E-007  0.2031923E+04  0.7818608E-02  0.8591840E-01
         -1   -1    0    0    0  501 -0.00000000000E+00  0.00000000000E+00  0.70012972239E+03  0.70012972239E+03  0.00000000000E+00 0.  1.
          2   -1    0    0  501    0  0.00000000000E+00 -0.00000000000E+00 -0.14742660192E+04  0.14742660192E+04  0.00000000000E+00 0. -1.
         24    2    1    2    0    0  0.42550935490E+03  0.90543590446E+02 -0.10403336614E+04  0.11305252400E+04  0.80850717221E+02 0.  0.
        254    2    1    2    0    0 -0.42550935490E+03 -0.90543590446E+02  0.26619736459E+03  0.10438705015E+04  0.91079538546E+03 0.  0.
         23    2    4    4    0    0 -0.36175702953E+03 -0.43174552845E+03 -0.40330789641E+02  0.57245646190E+03  0.93848166880E+02 0.  0.
         23    2    4    4    0    0 -0.63752325368E+02  0.34120193800E+03  0.30652815423E+03  0.47141403964E+03  0.88252852351E+02 0.  0.
          4    1    3    3  502    0  0.39004270943E+03  0.62611172182E+02 -0.96460626916E+03  0.10423620909E+04  0.00000000000E+00 0. -1.
         -3    1    3    3    0  502  0.35466645471E+02  0.27932418263E+02 -0.75727392199E+02  0.88163149106E+02  0.00000000000E+00 0.  1.
         11    1    5    5    0    0 -0.32058212771E+03 -0.40621392925E+03 -0.58370029854E+02  0.52075878995E+03  0.00000000000E+00 0.  1.
        -11    1    5    5    0    0 -0.41174901817E+02 -0.25531599196E+02  0.18039240214E+02  0.51697671945E+02  0.00000000000E+00 0. -1.
          1    1    6    6  503    0 -0.20261871016E+02  0.15884793628E+02  0.60868057825E+01  0.26455987796E+02  0.00000000000E+00 0. -1.
         -1    1    6    6    0  503 -0.43490454352E+02  0.32531714437E+03  0.30044134845E+03  0.44495805184E+03  0.00000000000E+00 0.  1.
<mgrwt>
<rscale>  0 0.20319227E+04</rscale>
<asrwt>0</asrwt>
<pdfrwt beam="1">  1        2 0.22681016E+00 0.20319227E+04</pdfrwt>
<pdfrwt beam="2">  1       -1 0.10771226E+00 0.20319227E+04</pdfrwt>
<totfact> 0.11115907E+01</totfact>
</mgrwt>
</event>
<event>
12    6  0.1553355E-007  0.1650629E+04  0.7818608E-02  0.8790034E-01
         -1   -1    0    0    0  501 -0.00000000000E+00  0.00000000000E+00  0.36244714328E+03  0.36244714328E+03  0.00000000000E+00 0.  1.
          2   -1    0    0  501    0  0.00000000000E+00 -0.00000000000E+00 -0.18792925103E+04  0.18792925103E+04  0.00000000000E+00 0. -1.
         24    2    1    2    0    0  0.10763271095E+03 -0.55126711356E+03 -0.73822621045E+03  0.93098796713E+03  0.79249139944E+02 0.  0.
        254    2    1    2    0    0 -0.10763271095E+03  0.55126711356E+03 -0.77861915655E+03  0.13107516864E+04  0.89237994238E+03 0.  0.
         23    2    4    4    0    0 -0.26210751076E+03  0.56727623219E+03 -0.13936433890E+03  0.64723510955E+03  0.94806103584E+02 0.  0.
         23    2    4    4    0    0  0.15447479980E+03 -0.16009118632E+02 -0.63925481765E+03  0.66351657687E+03  0.86537681096E+02 0.  0.
          2    1    3    3  502    0  0.83216526054E+02 -0.29313199266E+03 -0.44800475806E+03  0.54181142344E+03  0.00000000000E+00 0. -1.
         -1    1    3    3    0  502  0.24416184901E+02 -0.25813512090E+03 -0.29022145239E+03  0.38917654368E+03  0.00000000000E+00 0.  1.
         11    1    5    5    0    0 -0.24675753801E+03  0.53370078876E+03 -0.10597616355E+03  0.59745858578E+03  0.00000000000E+00 0. -1.
        -11    1    5    5    0    0 -0.15349972752E+02  0.33575443432E+02 -0.33388175357E+02  0.49776523772E+02  0.00000000000E+00 0.  1.
          1    1    6    6  503    0  0.13701838001E+03 -0.44275355557E+02 -0.53887915322E+03  0.55778587769E+03  0.00000000000E+00 0. -1.
         -1    1    6    6    0  503  0.17456419790E+02  0.28266236925E+02 -0.10037566442E+03  0.10573069918E+03  0.00000000000E+00 0.  1.
<mgrwt>
<rscale>  0 0.16506292E+04</rscale>
<asrwt>0</asrwt>
<pdfrwt beam="1">  1        2 0.28912193E+00 0.16506292E+04</pdfrwt>
<pdfrwt beam="2">  1       -1 0.55761098E-01 0.16506292E+04</pdfrwt>
<totfact> 0.27596959E+01</totfact>
</mgrwt>
</event>
<event>
12    6  0.1553355E-007  0.1973751E+04  0.7818608E-02  0.8618992E-01
         -1   -1    0    0    0  501 -0.00000000000E+00  0.00000000000E+00  0.62574640149E+03  0.62574640149E+03  0.00000000000E+00 0.  1.
          2   -1    0    0  501    0  0.00000000000E+00 -0.00000000000E+00 -0.15564191456E+04  0.15564191456E+04  0.00000000000E+00 0. -1.
         24    2    1    2    0    0  0.46114175814E+03  0.61445123220E+03 -0.45936534365E+03  0.89923774956E+03  0.86081202500E+02 0.  0.
        254    2    1    2    0    0 -0.46114175814E+03 -0.61445123220E+03 -0.47130740049E+03  0.12829277976E+04  0.91300111180E+03 0.  0.
         23    2    4    4    0    0 -0.46209398997E+02 -0.71237921252E+03 -0.13180822056E+03  0.73154741100E+03  0.90381173626E+02 0.  0.
         23    2    4    4    0    0 -0.41493235914E+03  0.97927980317E+02 -0.33949917992E+03  0.55138038656E+03  0.83677270062E+02 0.  0.
          4    1    3    3  502    0  0.19726424795E+03  0.30524106195E+03 -0.17665850667E+03  0.40409592599E+03  0.00000000000E+00 0. -1.
         -3    1    3    3    0  502  0.26387751019E+03  0.30921017025E+03 -0.28270683699E+03  0.49514182357E+03  0.00000000000E+00 0.  1.
         11    1    5    5    0    0 -0.16615743525E+02 -0.69628354108E+02 -0.38816978149E+02  0.81430635643E+02  0.00000000000E+00 0. -1.
        -11    1    5    5    0    0 -0.29593655471E+02 -0.64275085841E+03 -0.92991242414E+02  0.65011677536E+03  0.00000000000E+00 0.  1.
          3    1    6    6  503    0 -0.34166833724E+02 -0.79559946888E+01 -0.90747338458E+01  0.36235634017E+02  0.00000000000E+00 0. -1.
         -3    1    6    6    0  503 -0.38076552541E+03  0.10588397501E+03 -0.33042444608E+03  0.51514475254E+03  0.00000000000E+00 0.  1.
<mgrwt>
<rscale>  0 0.19737514E+04</rscale>
<asrwt>0</asrwt>
<pdfrwt beam="1">  1        2 0.23944909E+00 0.19737514E+04</pdfrwt>
<pdfrwt beam="2">  1       -1 0.96268680E-01 0.19737514E+04</pdfrwt>
<totfact> 0.13004318E+01</totfact>
</mgrwt>
</event>
<event>
12    6  0.1553355E-007  0.1202036E+04  0.7818608E-02  0.9111076E-01
         -1   -1    0    0    0  501 -0.00000000000E+00  0.00000000000E+00  0.58519352638E+03  0.58519352638E+03  0.00000000000E+00 0.  1.
          4   -1    0    0  501    0  0.00000000000E+00 -0.00000000000E+00 -0.61727071716E+03  0.61727071716E+03  0.00000000000E+00 0. -1.
         24    2    1    2    0    0 -0.47323698508E+02 -0.23169438714E+03 -0.95990021905E+02  0.26713835012E+03  0.78911294027E+02 0.  0.
        254    2    1    2    0    0  0.47323698508E+02  0.23169438714E+03  0.63912831120E+02  0.93532589342E+03  0.90267815718E+03 0.  0.
         23    2    4    4    0    0  0.29469266639E+03  0.17290563454E+03  0.38021411655E+03  0.51967880920E+03  0.93611773973E+02 0.  0.
         23    2    4    4    0    0 -0.24736896788E+03  0.58788752599E+02 -0.31630128543E+03  0.41564708423E+03  0.89824672317E+02 0.  0.
          2    1    3    3  502    0 -0.27188516893E+02 -0.13875256930E+03 -0.97976006580E+02  0.17201973376E+03  0.00000000000E+00 0. -1.
         -1    1    3    3    0  502 -0.20135181615E+02 -0.92941817840E+02  0.19859846751E+01  0.95118616355E+02  0.00000000000E+00 0.  1.
         11    1    5    5    0    0  0.22970386758E+03  0.11312603667E+03  0.22384323219E+03  0.34009874970E+03  0.00000000000E+00 0. -1.
        -11    1    5    5    0    0  0.64988798812E+02  0.59779597876E+02  0.15637088436E+03  0.17958005950E+03  0.00000000000E+00 0.  1.
          2    1    6    6  503    0 -0.52056001447E+01 -0.13477958074E+02 -0.64971879189E+01  0.15841940461E+02  0.00000000000E+00 0.  1.
         -2    1    6    6    0  503 -0.24216336774E+03  0.72266710673E+02 -0.30980409751E+03  0.39980514376E+03  0.00000000000E+00 0. -1.
<mgrwt>
<rscale>  0 0.12020363E+04</rscale>
<asrwt>0</asrwt>
<pdfrwt beam="1">  1        4 0.94964726E-01 0.12020363E+04</pdfrwt>
<pdfrwt beam="2">  1       -1 0.90029773E-01 0.12020363E+04</pdfrwt>
<totfact> 0.45987937E+00</totfact>
</mgrwt>
</event>
<event>
12    6  0.1553355E-007  0.1207783E+04  0.7818608E-02  0.9106071E-01
          2   -1    0    0  501    0  0.00000000000E+00  0.00000000000E+00  0.10875556751E+04  0.10875556751E+04  0.00000000000E+00 0. -1.
         -1   -1    0    0    0  501 -0.00000000000E+00 -0.00000000000E+00 -0.33532528206E+03  0.33532528206E+03  0.00000000000E+00 0.  1.
         24    2    1    2    0    0 -0.26971200870E+02  0.22468802120E+03  0.33624455790E+03  0.41308284396E+03  0.79780202469E+02 0.  0.
        254    2    1    2    0    0  0.26971200870E+02 -0.22468802120E+03  0.41598583518E+03  0.10097981132E+04  0.89187211072E+03 0.  0.
         23    2    4    4    0    0  0.11837586744E+03 -0.33005836093E+03 -0.17005193373E+03  0.40008201420E+03  0.90535022562E+02 0.  0.
         23    2    4    4    0    0 -0.91404666566E+02  0.10537033973E+03  0.58603776891E+03  0.60971609904E+03  0.94104905705E+02 0.  0.
          2    1    3    3  502    0  0.33437106515E+01  0.92892638677E+02  0.20282213013E+03  0.22310768519E+03  0.00000000000E+00 0. -1.
         -1    1    3    3    0  502 -0.30314911522E+02  0.13179538253E+03  0.13342242777E+03  0.18997515877E+03  0.00000000000E+00 0.  1.
         11    1    5    5    0    0  0.13029445321E+03 -0.30197577880E+03 -0.14060382385E+03  0.35768065477E+03  0.00000000000E+00 0. -1.
        -11    1    5    5    0    0 -0.11918585772E+02 -0.28082582136E+02 -0.29448109875E+02  0.42401359429E+02  0.00000000000E+00 0.  1.
          1    1    6    6  503    0 -0.73749048613E+02  0.12274983251E+03  0.51162109047E+03  0.53128390128E+03  0.00000000000E+00 0. -1.
         -1    1    6    6    0  503 -0.17655617952E+02 -0.17379492783E+02  0.74416678440E+02  0.78432197756E+02  0.00000000000E+00 0.  1.
<mgrwt>
<rscale>  0 0.12077829E+04</rscale>
<asrwt>0</asrwt>
<pdfrwt beam="1">  1        2 0.16731626E+00 0.12077829E+04</pdfrwt>
<pdfrwt beam="2">  1       -1 0.51588505E-01 0.12077829E+04</pdfrwt>
<totfact> 0.94274953E+01</totfact>
</mgrwt>
</event>
<event>
12    6  0.1553355E-007  0.2121810E+04  0.7818608E-02  0.8551696E-01
         -1   -1    0    0    0  501 -0.00000000000E+00  0.00000000000E+00  0.72715173964E+03  0.72715173964E+03  0.00000000000E+00 0.  1.
          2   -1    0    0  501    0  0.00000000000E+00 -0.00000000000E+00 -0.15478463206E+04  0.15478463206E+04  0.00000000000E+00 0. -1.
         24    2    1    2    0    0 -0.26193271149E+03 -0.70846846589E+03  0.11848856195E+03  0.76860450418E+03  0.78594096595E+02 0.  0.
        254    2    1    2    0    0  0.26193271149E+03  0.70846846589E+03 -0.93918314290E+03  0.15063935561E+04  0.90367043622E+03 0.  0.
         23    2    4    4    0    0 -0.10377392811E+03 -0.49278408702E+02  0.92909592377E+02  0.17168573792E+03  0.87443756373E+02 0.  0.
         23    2    4    4    0    0  0.36570663961E+03  0.75774687459E+03 -0.10320927353E+04  0.13347078181E+04  0.91147536258E+02 0.  0.
          2    1    3    3  502    0 -0.69545997066E+02 -0.29641980842E+03  0.38913552275E+02  0.30694561909E+03  0.00000000000E+00 0. -1.
         -1    1    3    3    0  502 -0.19238671443E+03 -0.41204865747E+03  0.79575009676E+02  0.46165888509E+03  0.00000000000E+00 0.  1.
         11    1    5    5    0    0 -0.39315933404E+02 -0.53159691625E+02  0.83376409750E+02  0.10641109498E+03  0.00000000000E+00 0. -1.
        -11    1    5    5    0    0 -0.64457994710E+02  0.38812829235E+01  0.95331826279E+01  0.65274642934E+02  0.00000000000E+00 0.  1.
          4    1    6    6  503    0  0.34981048397E+03  0.74362777150E+03 -0.98337085592E+03  0.12815490149E+04  0.00000000000E+00 0. -1.
         -4    1    6    6    0  503  0.15896155638E+02  0.14119103093E+02 -0.48721879363E+02  0.53158803267E+02  0.00000000000E+00 0.  1.
<mgrwt>
<rscale>  0 0.21218097E+04</rscale>
<asrwt>0</asrwt>
<pdfrwt beam="1">  1        2 0.23813020E+00 0.21218097E+04</pdfrwt>
<pdfrwt beam="2">  1       -1 0.11186950E+00 0.21218097E+04</pdfrwt>
<totfact> 0.91665333E+00</totfact>
</mgrwt>
</event>
<event>
12    6  0.1553355E-007  0.1422795E+04  0.7818608E-02  0.8937482E-01
          2   -1    0    0  501    0  0.00000000000E+00  0.00000000000E+00  0.11980746853E+04  0.11980746853E+04  0.00000000000E+00 0. -1.
         -1   -1    0    0    0  501 -0.00000000000E+00 -0.00000000000E+00 -0.42241623072E+03  0.42241623072E+03  0.00000000000E+00 0.  1.
         24    2    1    2    0    0 -0.24108099771E+03 -0.33591220934E+03  0.16385821649E+03  0.45142658706E+03  0.77326506158E+02 0.  0.
        254    2    1    2    0    0  0.24108099771E+03  0.33591220934E+03  0.61180023807E+03  0.11690643289E+04  0.90634144451E+03 0.  0.
         23    2    4    4    0    0 -0.13834247504E+03  0.35471786626E+03 -0.56032558839E+02  0.39539265346E+03  0.90732010431E+02 0.  0.
         23    2    4    4    0    0  0.37942347275E+03 -0.18805656925E+02  0.66783279691E+03  0.77367167547E+03  0.90837175170E+02 0.  0.
          2    1    3    3  502    0 -0.12117640282E+03 -0.17056306054E+03  0.12435837422E+03  0.24339367999E+03  0.00000000000E+00 0. -1.
         -1    1    3    3    0  502 -0.11990459489E+03 -0.16534914880E+03  0.39499842265E+02  0.20803290706E+03  0.00000000000E+00 0.  1.
         11    1    5    5    0    0 -0.77801760298E+02  0.90726057494E+02 -0.30498255721E+02  0.12334697003E+03  0.00000000000E+00 0. -1.
        -11    1    5    5    0    0 -0.60540714743E+02  0.26399180877E+03 -0.25534303118E+02  0.27204568343E+03  0.00000000000E+00 0.  1.
          2    1    6    6  503    0  0.15475546180E+03 -0.21899579154E+02  0.19291647867E+03  0.24828534445E+03  0.00000000000E+00 0. -1.
         -2    1    6    6    0  503  0.22466801095E+03  0.30939222289E+01  0.47491631823E+03  0.52538633102E+03  0.00000000000E+00 0.  1.
<mgrwt>
<rscale>  0 0.14227947E+04</rscale>
<asrwt>0</asrwt>
<pdfrwt beam="1">  1        2 0.18431918E+00 0.14227947E+04</pdfrwt>
<pdfrwt beam="2">  1       -1 0.64987113E-01 0.14227947E+04</pdfrwt>
<totfact> 0.50514994E+01</totfact>
</mgrwt>
</event>
<event>
12    6  0.1553355E-007  0.1830268E+04  0.7818608E-02  0.8690367E-01
         -1   -1    0    0    0  501 -0.00000000000E+00  0.00000000000E+00  0.21800527120E+04  0.21800527120E+04  0.00000000000E+00 0.  1.
          2   -1    0    0  501    0  0.00000000000E+00 -0.00000000000E+00 -0.38415128714E+03  0.38415128714E+03  0.00000000000E+00 0. -1.
         24    2    1    2    0    0 -0.29889812748E+03 -0.62552840921E+03  0.78414595032E+03  0.10497058307E+04  0.79822166451E+02 0.  0.
        254    2    1    2    0    0  0.29889812748E+03  0.62552840921E+03  0.10117554746E+04  0.15144981685E+04  0.88849855410E+03 0.  0.
         23    2    4    4    0    0  0.27660330746E+03 -0.15446817264E+03  0.39853780191E+03  0.51777134633E+03  0.94260179650E+02 0.  0.
         23    2    4    4    0    0  0.22294820018E+02  0.77999658186E+03  0.61321767267E+03  0.99672682215E+03  0.92394357042E+02 0.  0.
          4    1    3    3  502    0 -0.21893396250E+02 -0.12729533382E+02  0.30262899926E+02  0.39461436003E+02  0.00000000000E+00 0. -1.
         -3    1    3    3    0  502 -0.27700473123E+03 -0.61279887583E+03  0.75388305040E+03  0.10102443947E+04  0.00000000000E+00 0.  1.
         11    1    5    5    0    0  0.20671960808E+03 -0.98299373304E+02  0.34280402235E+03  0.41220184485E+03  0.00000000000E+00 0.  1.
        -11    1    5    5    0    0  0.69883699375E+02 -0.56168799341E+02  0.55733779558E+02  0.10556950147E+03  0.00000000000E+00 0. -1.
          1    1    6    6  503    0 -0.16344117856E+02  0.87601843681E+02  0.43112316969E+02  0.98994368927E+02  0.00000000000E+00 0. -1.
         -1    1    6    6    0  503  0.38638937875E+02  0.69239473818E+03  0.57010535570E+03  0.89773245322E+03  0.00000000000E+00 0.  1.
<mgrwt>
<rscale>  0 0.18302678E+04</rscale>
<asrwt>0</asrwt>
<pdfrwt beam="1">  1        2 0.59100200E-01 0.18302678E+04</pdfrwt>
<pdfrwt beam="2">  1       -1 0.33539272E+00 0.18302678E+04</pdfrwt>
<totfact> 0.17424559E+00</totfact>
</mgrwt>
</event>
<event>
12    6  0.1553355E-007  0.1426901E+04  0.7818608E-02  0.8934573E-01
         -1   -1    0    0    0  501 -0.00000000000E+00  0.00000000000E+00  0.20851568374E+04  0.20851568374E+04  0.00000000000E+00 0.  1.
          2   -1    0    0  501    0  0.00000000000E+00 -0.00000000000E+00 -0.24411180425E+03  0.24411180425E+03  0.00000000000E+00 0. -1.
         24    2    1    2    0    0  0.16579178681E+03 -0.85767138262E+02  0.10569755535E+04  0.10760838677E+04  0.76917169208E+02 0.  0.
        254    2    1    2    0    0 -0.16579178681E+03  0.85767138262E+02  0.78406947960E+03  0.12531847740E+04  0.95961669967E+03 0.  0.
         23    2    4    4    0    0 -0.10000415354E+03 -0.31736978171E+03 -0.21246973539E+02  0.34569454883E+03  0.91262687531E+02 0.  0.
         23    2    4    4    0    0 -0.65787633267E+02  0.40313691997E+03  0.80531645313E+03  0.90749022514E+03  0.90313510037E+02 0.  0.
          2    1    3    3  502    0  0.73825856576E+02 -0.77315235979E+02  0.47966730965E+03  0.49143527627E+03  0.00000000000E+00 0. -1.
         -1    1    3    3    0  502  0.91965930232E+02 -0.84519022827E+01  0.57730824386E+03  0.58464859138E+03  0.00000000000E+00 0.  1.
         11    1    5    5    0    0 -0.49286125853E+02 -0.17357364720E+03 -0.56727392612E+02  0.18914261888E+03  0.00000000000E+00 0. -1.
        -11    1    5    5    0    0 -0.50718027688E+02 -0.14379613451E+03  0.35480419073E+02  0.15655192995E+03  0.00000000000E+00 0.  1.
          3    1    6    6  503    0 -0.32806255123E+02  0.18464711422E+03  0.46871762580E+03  0.50484355983E+03  0.00000000000E+00 0. -1.
         -3    1    6    6    0  503 -0.32981378144E+02  0.21848980575E+03  0.33659882734E+03  0.40264666531E+03  0.00000000000E+00 0.  1.
<mgrwt>
<rscale>  0 0.14269007E+04</rscale>
<asrwt>0</asrwt>
<pdfrwt beam="1">  1        2 0.37555664E-01 0.14269007E+04</pdfrwt>
<pdfrwt beam="2">  1       -1 0.32079335E+00 0.14269007E+04</pdfrwt>
<totfact> 0.37383856E+00</totfact>
</mgrwt>
</event>
<event>
12    6  0.1553355E-007  0.1486487E+04  0.7818608E-02  0.8893489E-01
         -1   -1    0    0    0  501 -0.00000000000E+00  0.00000000000E+00  0.27742487090E+03  0.27742487090E+03  0.00000000000E+00 0.  1.
          2   -1    0    0  501    0  0.00000000000E+00 -0.00000000000E+00 -0.19912081628E+04  0.19912081628E+04  0.00000000000E+00 0. -1.
         24    2    1    2    0    0  0.32538867528E+03 -0.33352823909E+03 -0.69378886702E+03  0.83947009580E+03  0.79045388642E+02 0.  0.
        254    2    1    2    0    0 -0.32538867528E+03  0.33352823909E+03 -0.10199944248E+04  0.14291629379E+04  0.88600180586E+03 0.  0.
         23    2    4    4    0    0 -0.60570870913E+03  0.24420551495E+03 -0.85605645853E+03  0.10806443444E+04  0.91870370696E+02 0.  0.
         23    2    4    4    0    0  0.28032003384E+03  0.89322724136E+02 -0.16393796631E+03  0.34851859348E+03  0.89619656224E+02 0.  0.
          4    1    3    3  502    0  0.31920135746E+03 -0.30729237792E+03 -0.62987302366E+03  0.77010268021E+03  0.00000000000E+00 0. -1.
         -1    1    3    3    0  502  0.61873178292E+01 -0.26235861165E+02 -0.63915843364E+02  0.69367415592E+02  0.00000000000E+00 0.  1.
         11    1    5    5    0    0 -0.57874555795E+03  0.25191092114E+03 -0.82566019182E+03  0.10392883553E+04  0.00000000000E+00 0. -1.
        -11    1    5    5    0    0 -0.26963151178E+02 -0.77054061885E+01 -0.30396266711E+02  0.41355989118E+02  0.00000000000E+00 0.  1.
          3    1    6    6  503    0  0.20414981003E+03  0.27167387277E+02 -0.86526046337E+02  0.22338748524E+03  0.00000000000E+00 0. -1.
         -3    1    6    6    0  503  0.76170223819E+02  0.62155336858E+02 -0.77411919974E+02  0.12513110824E+03  0.00000000000E+00 0.  1.
<mgrwt>
<rscale>  0 0.14864867E+04</rscale>
<asrwt>0</asrwt>
<pdfrwt beam="1">  1        2 0.30633971E+00 0.14864867E+04</pdfrwt>
<pdfrwt beam="2">  1       -1 0.42680750E-01 0.14864867E+04</pdfrwt>
<totfact> 0.40246668E+01</totfact>
</mgrwt>
</event>
<event>
12    6  0.1553355E-007  0.1977481E+04  0.7818608E-02  0.8617222E-01
          2   -1    0    0  501    0  0.00000000000E+00  0.00000000000E+00  0.19797423095E+04  0.19797423095E+04  0.00000000000E+00 0. -1.
         -1   -1    0    0    0  501 -0.00000000000E+00 -0.00000000000E+00 -0.49380565412E+03  0.49380565412E+03  0.00000000000E+00 0.  1.
         24    2    1    2    0    0 -0.10328000468E+03  0.22640190579E+03 -0.32925756221E+03  0.42129828874E+03  0.84599784347E+02 0.  0.
        254    2    1    2    0    0  0.10328000468E+03 -0.22640190579E+03  0.18151942175E+04  0.20522496748E+04  0.92459401801E+03 0.  0.
         23    2    4    4    0    0  0.20212460654E+03  0.23164461768E+03  0.13436802030E+04  0.13813878001E+04  0.90786457646E+02 0.  0.
         23    2    4    4    0    0 -0.98844601853E+02 -0.45804652347E+03  0.47151401453E+03  0.67086187471E+03  0.90295714562E+02 0.  0.
          2    1    3    3  502    0 -0.27251387973E+01  0.10075829921E+03 -0.10828445239E+03  0.14793641834E+03  0.00000000000E+00 0. -1.
         -1    1    3    3    0  502 -0.10055486589E+03  0.12564360658E+03 -0.22097310981E+03  0.27336187040E+03  0.00000000000E+00 0.  1.
         11    1    5    5    0    0  0.57006470872E+02  0.40021276930E+02  0.47440114054E+03  0.47948710355E+03  0.00000000000E+00 0. -1.
        -11    1    5    5    0    0  0.14511813566E+03  0.19162334075E+03  0.86927906248E+03  0.90190069658E+03  0.00000000000E+00 0.  1.
          2    1    6    6  503    0 -0.41587945286E+02 -0.25820087763E+03  0.20182399837E+03  0.33034856851E+03  0.00000000000E+00 0. -1.
         -2    1    6    6    0  503 -0.57256656567E+02 -0.19984564584E+03  0.26969001616E+03  0.34051330619E+03  0.00000000000E+00 0.  1.
<mgrwt>
<rscale>  0 0.19774812E+04</rscale>
<asrwt>0</asrwt>
<pdfrwt beam="1">  1        2 0.30457574E+00 0.19774812E+04</pdfrwt>
<pdfrwt beam="2">  1       -1 0.75970102E-01 0.19774812E+04</pdfrwt>
<totfact> 0.12645761E+01</totfact>
</mgrwt>
</event>
<event>
12    6  0.1553355E-007  0.1307428E+04  0.7818608E-02  0.9023696E-01
         -1   -1    0    0    0  501 -0.00000000000E+00  0.00000000000E+00  0.26246648173E+03  0.26246648173E+03  0.00000000000E+00 0.  1.
          2   -1    0    0  501    0  0.00000000000E+00 -0.00000000000E+00 -0.16281766711E+04  0.16281766711E+04  0.00000000000E+00 0. -1.
         24    2    1    2    0    0  0.15379610822E+03  0.17672002068E+03 -0.71331890324E+03  0.75526452832E+03  0.81959998802E+02 0.  0.
        254    2    1    2    0    0 -0.15379610822E+03 -0.17672002068E+03 -0.65239128617E+03  0.11353786245E+04  0.89921466970E+03 0.  0.
         23    2    4    4    0    0 -0.72212632543E+02 -0.29617308348E+02  0.21565018806E+03  0.24646388437E+03  0.90264020713E+02 0.  0.
         23    2    4    4    0    0 -0.81583475682E+02 -0.14710271233E+03 -0.86804147424E+03  0.88891474018E+03  0.91533288123E+02 0.  0.
          2    1    3    3  502    0  0.68607661481E+02  0.99917025575E+02 -0.48287429374E+03  0.49785339888E+03  0.00000000000E+00 0. -1.
         -1    1    3    3    0  502  0.85188446743E+02  0.76802995101E+02 -0.23044460950E+03  0.25741112944E+03  0.00000000000E+00 0.  1.
         11    1    5    5    0    0 -0.13509203130E+02 -0.90195118384E+00  0.16016430368E+03  0.16073554759E+03  0.00000000000E+00 0. -1.
        -11    1    5    5    0    0 -0.58703429413E+02 -0.28715357164E+02  0.55485884384E+02  0.85728336784E+02  0.00000000000E+00 0.  1.
          2    1    6    6  503    0 -0.30705958093E+02  0.48219796758E+01 -0.15678018436E+03  0.15983157872E+03  0.00000000000E+00 0. -1.
         -2    1    6    6    0  503 -0.50877517589E+02 -0.15192469200E+03 -0.71126128988E+03  0.72908316145E+03  0.00000000000E+00 0.  1.
<mgrwt>
<rscale>  0 0.13074277E+04</rscale>
<asrwt>0</asrwt>
<pdfrwt beam="1">  1        2 0.25048872E+00 0.13074277E+04</pdfrwt>
<pdfrwt beam="2">  1       -1 0.40379459E-01 0.13074277E+04</pdfrwt>
<totfact> 0.71844595E+01</totfact>
</mgrwt>
</event>
<event>
12    6  0.1553355E-007  0.2876416E+04  0.7818608E-02  0.8279929E-01
         -1   -1    0    0    0  501 -0.00000000000E+00  0.00000000000E+00  0.67035924702E+03  0.67035924702E+03  0.00000000000E+00 0.  1.
          2   -1    0    0  501    0  0.00000000000E+00 -0.00000000000E+00 -0.30855736862E+04  0.30855736862E+04  0.00000000000E+00 0. -1.
         24    2    1    2    0    0 -0.63168122813E+03  0.11119804696E+04 -0.13582484853E+04  0.18669726441E+04  0.72292235376E+02 0.  0.
        254    2    1    2    0    0  0.63168122813E+03 -0.11119804696E+04 -0.10569659539E+04  0.18889602891E+04  0.90303499802E+03 0.  0.
         23    2    4    4    0    0  0.17493491897E+03  0.62895758784E+02 -0.43233550193E+03  0.47920632125E+03  0.90369296536E+02 0.  0.
         23    2    4    4    0    0  0.45674630916E+03 -0.11748762283E+04 -0.62463045196E+03  0.14097539679E+04  0.91058803086E+02 0.  0.
          4    1    3    3  502    0 -0.34855273793E+03  0.63223001516E+03 -0.71592056358E+03  0.10167330311E+04  0.00000000000E+00 0. -1.
         -3    1    3    3    0  502 -0.28312849020E+03  0.47975045440E+03 -0.64232792172E+03  0.85023961298E+03  0.00000000000E+00 0.  1.
         11    1    5    5    0    0  0.15476142280E+03  0.23290923993E+02 -0.28294569036E+03  0.32334475227E+03  0.00000000000E+00 0. -1.
        -11    1    5    5    0    0  0.20173496171E+02  0.39604834791E+02 -0.14938981156E+03  0.15586156898E+03  0.00000000000E+00 0.  1.
          4    1    6    6  503    0  0.35772195472E+02 -0.10229074339E+03 -0.83332086140E+02  0.13670143646E+03  0.00000000000E+00 0. -1.
         -4    1    6    6    0  503  0.42097411369E+03 -0.10725854850E+04 -0.54129836582E+03  0.12730525314E+04  0.00000000000E+00 0.  1.
<mgrwt>
<rscale>  0 0.28764164E+04</rscale>
<asrwt>0</asrwt>
<pdfrwt beam="1">  1        2 0.47470364E+00 0.28764164E+04</pdfrwt>
<pdfrwt beam="2">  1       -1 0.10313219E+00 0.28764164E+04</pdfrwt>
<totfact> 0.13400897E+00</totfact>
</mgrwt>
</event>
<event>
12    6  0.1553355E-007  0.1265735E+04  0.7818608E-02  0.9057188E-01
          2   -1    0    0  501    0  0.00000000000E+00  0.00000000000E+00  0.46336521706E+03  0.46336521706E+03  0.00000000000E+00 0. -1.
         -1   -1    0    0    0  501 -0.00000000000E+00 -0.00000000000E+00 -0.86437495186E+03  0.86437495186E+03  0.00000000000E+00 0.  1.
         24    2    1    2    0    0 -0.14347963533E+03  0.93374717370E+01 -0.36602026936E+03  0.40158814441E+03  0.81416251548E+02 0.  0.
        254    2    1    2    0    0  0.14347963533E+03 -0.93374717370E+01 -0.34989465440E+02  0.92615202451E+03  0.91425363859E+03 0.  0.
         23    2    4    4    0    0  0.20163374552E+03 -0.80883490624E+01  0.41114223162E+03  0.46703078276E+03  0.91423348765E+02 0.  0.
         23    2    4    4    0    0 -0.58154110195E+02 -0.12491226745E+01 -0.44613169706E+03  0.45912124175E+03  0.91517007493E+02 0.  0.
          4    1    3    3  502    0 -0.32015179294E+02 -0.27625180914E+02 -0.56742979200E+02  0.70766432821E+02  0.00000000000E+00 0. -1.
         -1    1    3    3    0  502 -0.11146445604E+03  0.36962652651E+02 -0.30927729016E+03  0.33082171159E+03  0.00000000000E+00 0.  1.
         11    1    5    5    0    0  0.64312607465E+02 -0.20300032676E+02  0.22821095955E+03  0.23796731890E+03  0.00000000000E+00 0.  1.
        -11    1    5    5    0    0  0.13732113806E+03  0.12211683614E+02  0.18293127207E+03  0.22906346386E+03  0.00000000000E+00 0. -1.
          4    1    6    6  503    0 -0.28472798303E+02 -0.33013712711E+02 -0.86437021237E+02  0.96808905120E+02  0.00000000000E+00 0. -1.
         -4    1    6    6    0  503 -0.29681311892E+02  0.31764590037E+02 -0.35969467582E+03  0.36231233663E+03  0.00000000000E+00 0.  1.
<mgrwt>
<rscale>  0 0.12657350E+04</rscale>
<asrwt>0</asrwt>
<pdfrwt beam="1">  1        2 0.71286957E-01 0.12657350E+04</pdfrwt>
<pdfrwt beam="2">  1       -1 0.13298076E+00 0.12657350E+04</pdfrwt>
<totfact> 0.36191408E+01</totfact>
</mgrwt>
</event>
<event>
12    6  0.1553355E-007  0.1165323E+04  0.7818608E-02  0.9143762E-01
          2   -1    0    0  501    0  0.00000000000E+00  0.00000000000E+00  0.13017481487E+04  0.13017481487E+04  0.00000000000E+00 0. -1.
         -1   -1    0    0    0  501 -0.00000000000E+00 -0.00000000000E+00 -0.26079900743E+03  0.26079900743E+03  0.00000000000E+00 0.  1.
         24    2    1    2    0    0  0.66044060795E+01 -0.21349827892E+03  0.26649200951E+03  0.35052197814E+03  0.78883032046E+02 0.  0.
        254    2    1    2    0    0 -0.66044060795E+01  0.21349827892E+03  0.77445713172E+03  0.12120251780E+04  0.90752192802E+03 0.  0.
         23    2    4    4    0    0  0.11140292609E+02  0.51773855209E+03  0.21393390013E+03  0.56772485028E+03  0.91468451206E+02 0.  0.
         23    2    4    4    0    0 -0.17744698689E+02 -0.30424027317E+03  0.56052323160E+03  0.64430032767E+03  0.89775280169E+02 0.  0.
          4    1    3    3  502    0 -0.27173115111E+02 -0.51566535344E+02  0.10050162353E+03  0.11618116063E+03  0.00000000000E+00 0. -1.
         -3    1    3    3    0  502  0.33777521191E+02 -0.16193174357E+03  0.16599038599E+03  0.23434081752E+03  0.00000000000E+00 0.  1.
         11    1    5    5    0    0 -0.82052561268E+01  0.19205282830E+03  0.34242417025E+02  0.19525408628E+03  0.00000000000E+00 0.  1.
        -11    1    5    5    0    0  0.19345548736E+02  0.32568572379E+03  0.17969148310E+03  0.37247076400E+03  0.00000000000E+00 0. -1.
          1    1    6    6  503    0 -0.19604285439E+02 -0.28675716018E+03  0.55638010122E+03  0.62623702698E+03  0.00000000000E+00 0. -1.
         -1    1    6    6    0  503  0.18595867506E+01 -0.17483112989E+02  0.41431303745E+01  0.18063300695E+02  0.00000000000E+00 0.  1.
<mgrwt>
<rscale>  0 0.11653233E+04</rscale>
<asrwt>0</asrwt>
<pdfrwt beam="1">  1        2 0.20026894E+00 0.11653233E+04</pdfrwt>
<pdfrwt beam="2">  1       -1 0.40122925E-01 0.11653233E+04</pdfrwt>
<totfact> 0.11251476E+02</totfact>
</mgrwt>
</event>
<event>
12    6  0.1553355E-007  0.1478127E+04  0.7818608E-02  0.8899130E-01
         -1   -1    0    0    0  501 -0.00000000000E+00  0.00000000000E+00  0.27175009581E+03  0.27175009581E+03  0.00000000000E+00 0.  1.
          2   -1    0    0  501    0  0.00000000000E+00 -0.00000000000E+00 -0.20099897728E+04  0.20099897728E+04  0.00000000000E+00 0. -1.
         24    2    1    2    0    0 -0.27867282461E+03 -0.12609127710E+03 -0.10783947927E+04  0.11236829023E+04  0.78551782884E+02 0.  0.
        254    2    1    2    0    0  0.27867282461E+03  0.12609127710E+03 -0.65984488426E+03  0.11580569663E+04  0.90118983161E+03 0.  0.
         23    2    4    4    0    0  0.14751310039E+03 -0.17296692736E+03  0.14548770722E+03  0.28474673850E+03  0.90754390445E+02 0.  0.
         23    2    4    4    0    0  0.13115972421E+03  0.29905820446E+03 -0.80533259148E+03  0.87331022781E+03  0.86437770657E+02 0.  0.
          2    1    3    3  502    0 -0.24964133073E+03 -0.11108073613E+03 -0.84676558521E+03  0.88975933838E+03  0.00000000000E+00 0. -1.
         -1    1    3    3    0  502 -0.29031493874E+02 -0.15010540968E+02 -0.23162920752E+03  0.23392356391E+03  0.00000000000E+00 0.  1.
         11    1    5    5    0    0  0.14062179328E+03 -0.12415812596E+03  0.14210648360E+03  0.23533801577E+03  0.00000000000E+00 0. -1.
        -11    1    5    5    0    0  0.68913071130E+01 -0.48808801405E+02  0.33812236203E+01  0.49408722727E+02  0.00000000000E+00 0.  1.
          4    1    6    6  503    0  0.11488043969E+03  0.26381711026E+03 -0.61401414145E+03  0.67809317132E+03  0.00000000000E+00 0. -1.
         -4    1    6    6    0  503  0.16279284524E+02  0.35241094197E+02 -0.19131845003E+03  0.19521705649E+03  0.00000000000E+00 0.  1.
<mgrwt>
<rscale>  0 0.14781271E+04</rscale>
<asrwt>0</asrwt>
<pdfrwt beam="1">  1        2 0.30922919E+00 0.14781271E+04</pdfrwt>
<pdfrwt beam="2">  1       -1 0.41807708E-01 0.14781271E+04</pdfrwt>
<totfact> 0.40848824E+01</totfact>
</mgrwt>
</event>
<event>
12    6  0.1553355E-007  0.1980332E+04  0.7818608E-02  0.8615872E-01
         -1   -1    0    0    0  501 -0.00000000000E+00  0.00000000000E+00  0.12001433307E+04  0.12001433307E+04  0.00000000000E+00 0.  1.
          2   -1    0    0  501    0  0.00000000000E+00 -0.00000000000E+00 -0.81692614679E+03  0.81692614679E+03  0.00000000000E+00 0. -1.
         24    2    1    2    0    0  0.50056766595E+03 -0.45270739054E+03 -0.25130130012E+03  0.72488345713E+03  0.82411851922E+02 0.  0.
        254    2    1    2    0    0 -0.50056766595E+03  0.45270739054E+03  0.63451848399E+03  0.12921860203E+04  0.90089901484E+03 0.  0.
         23    2    4    4    0    0  0.22000884242E+03  0.50928225567E+02 -0.63731788525E+01  0.24353380734E+03  0.90942415863E+02 0.  0.
         23    2    4    4    0    0 -0.72057650837E+03  0.40177916498E+03  0.64089166284E+03  0.10486522130E+04  0.90952396742E+02 0.  0.
          4    1    3    3  502    0  0.39571791797E+03 -0.34505213058E+03 -0.22964722865E+03  0.57305452886E+03  0.00000000000E+00 0. -1.
         -3    1    3    3    0  502  0.10484974798E+03 -0.10765525996E+03 -0.21654071463E+02  0.15182892827E+03  0.00000000000E+00 0.  1.
         11    1    5    5    0    0  0.24385650520E+01  0.20960918252E+02  0.98964304164E+01  0.23307638843E+02  0.00000000000E+00 0. -1.
        -11    1    5    5    0    0  0.21757027737E+03  0.29967307316E+02 -0.16269609269E+02  0.22022616849E+03  0.00000000000E+00 0.  1.
          3    1    6    6  503    0 -0.31721008535E+03  0.20592107024E+03  0.24601846266E+03  0.45116605522E+03  0.00000000000E+00 0. -1.
         -3    1    6    6    0  503 -0.40336642302E+03  0.19585809474E+03  0.39487320019E+03  0.59748615777E+03  0.00000000000E+00 0.  1.
<mgrwt>
<rscale>  0 0.19803318E+04</rscale>
<asrwt>0</asrwt>
<pdfrwt beam="1">  1        2 0.12568095E+00 0.19803318E+04</pdfrwt>
<pdfrwt beam="2">  1       -1 0.18463743E+00 0.19803318E+04</pdfrwt>
<totfact> 0.68577397E+00</totfact>
</mgrwt>
</event>
<event>
12    6  0.1553355E-007  0.2066927E+04  0.7818608E-02  0.8575954E-01
          2   -1    0    0  501    0  0.00000000000E+00  0.00000000000E+00  0.93197603676E+03  0.93197603676E+03  0.00000000000E+00 0. -1.
         -1   -1    0    0    0  501 -0.00000000000E+00 -0.00000000000E+00 -0.11460029794E+04  0.11460029794E+04  0.00000000000E+00 0.  1.
         24    2    1    2    0    0  0.36209619106E+03 -0.22612154715E+02  0.66902677475E+03  0.76546086475E+03  0.81905732414E+02 0.  0.
        254    2    1    2    0    0 -0.36209619106E+03  0.22612154715E+02 -0.88305371743E+03  0.13125181514E+04  0.90071919536E+03 0.  0.
         23    2    4    4    0    0 -0.13245264768E+03 -0.35042684551E+03 -0.80517836881E+02  0.39417768042E+03  0.92467528112E+02 0.  0.
         23    2    4    4    0    0 -0.22964354338E+03  0.37303900023E+03 -0.80253588055E+03  0.91834047102E+03  0.85971672322E+02 0.  0.
          2    1    3    3  502    0  0.24374518637E+03  0.14950571816E+02  0.39143788214E+03  0.46136628730E+03  0.00000000000E+00 0. -1.
         -1    1    3    3    0  502  0.11835100470E+03 -0.37562726531E+02  0.27758889261E+03  0.30409457745E+03  0.00000000000E+00 0.  1.
         11    1    5    5    0    0 -0.13638669071E+03 -0.24555276478E+03 -0.60860218398E+02  0.28740469008E+03  0.00000000000E+00 0.  1.
        -11    1    5    5    0    0  0.39340430260E+01 -0.10487408073E+03 -0.19657618483E+02  0.10677299035E+03  0.00000000000E+00 0. -1.
          2    1    6    6  503    0 -0.11997957530E+03  0.25477023612E+03 -0.56397462740E+03  0.63037318475E+03  0.00000000000E+00 0.  1.
         -2    1    6    6    0  503 -0.10966396808E+03  0.11826876410E+03 -0.23856125315E+03  0.28796728627E+03  0.00000000000E+00 0. -1.
<mgrwt>
<rscale>  0 0.20669275E+04</rscale>
<asrwt>0</asrwt>
<pdfrwt beam="1">  1        2 0.14338093E+00 0.20669275E+04</pdfrwt>
<pdfrwt beam="2">  1       -1 0.17630815E+00 0.20669275E+04</pdfrwt>
<totfact> 0.65097507E+00</totfact>
</mgrwt>
</event>
<event>
12    6  0.1553355E-007  0.2340803E+04  0.7818608E-02  0.8462005E-01
         -1   -1    0    0    0  501 -0.00000000000E+00  0.00000000000E+00  0.11692624313E+04  0.11692624313E+04  0.00000000000E+00 0.  1.
          2   -1    0    0  501    0  0.00000000000E+00 -0.00000000000E+00 -0.11715417331E+04  0.11715417331E+04  0.00000000000E+00 0. -1.
         24    2    1    2    0    0  0.83619662236E+03 -0.40047244036E+03 -0.35807352515E+03  0.99889439762E+03  0.99851897572E+02 0.  0.
        254    2    1    2    0    0 -0.83619662236E+03  0.40047244036E+03  0.35579422334E+03  0.13419097669E+04  0.90251278457E+03 0.  0.
         23    2    4    4    0    0  0.12654984770E+03  0.26968595012E+03  0.13748941248E+03  0.34184535211E+03  0.95966299131E+02 0.  0.
         23    2    4    4    0    0 -0.96274647005E+03  0.13078649024E+03  0.21830481086E+03  0.10000644148E+04  0.92119333369E+02 0.  0.
          4    1    3    3  502    0  0.82586753677E+03 -0.38347200091E+03 -0.35949628997E+03  0.97895124816E+03  0.00000000000E+00 0. -1.
         -3    1    3    3    0  502  0.10329085588E+02 -0.17000439450E+02  0.14227648195E+01  0.19943149458E+02  0.00000000000E+00 0.  1.
         11    1    5    5    0    0  0.23579969613E+02  0.19278603803E+02  0.47697056813E+02  0.56592303012E+02  0.00000000000E+00 0.  1.
        -11    1    5    5    0    0  0.10296987809E+03  0.25040734632E+03  0.89792355663E+02  0.28525304909E+03  0.00000000000E+00 0. -1.
          4    1    6    6  503    0 -0.95855989409E+03  0.13668483020E+03  0.21391846070E+03  0.99160522447E+03  0.00000000000E+00 0. -1.
         -4    1    6    6    0  503 -0.41865759676E+01 -0.58983399599E+01  0.43863501588E+01  0.84591902881E+01  0.00000000000E+00 0.  1.
<mgrwt>
<rscale>  0 0.23408031E+04</rscale>
<asrwt>0</asrwt>
<pdfrwt beam="1">  1        2 0.18023719E+00 0.23408031E+04</pdfrwt>
<pdfrwt beam="2">  1       -1 0.17988653E+00 0.23408031E+04</pdfrwt>
<totfact> 0.42312706E+00</totfact>
</mgrwt>
</event>
<event>
12    6  0.1553355E-007  0.2405920E+04  0.7818608E-02  0.8437291E-01
          2   -1    0    0  501    0  0.00000000000E+00  0.00000000000E+00  0.18631586673E+04  0.18631586673E+04  0.00000000000E+00 0. -1.
         -1   -1    0    0    0  501 -0.00000000000E+00 -0.00000000000E+00 -0.77669839200E+03  0.77669839200E+03  0.00000000000E+00 0.  1.
         24    2    1    2    0    0 -0.47669357078E+03  0.43317738223E+03 -0.41926040533E+03  0.77292692431E+03  0.82203028824E+02 0.  0.
        254    2    1    2    0    0  0.47669357078E+03 -0.43317738223E+03  0.15057206806E+04  0.18669301349E+04  0.89630014832E+03 0.  0.
         23    2    4    4    0    0  0.42796267689E+03  0.18693851854E+03  0.65930838398E+03  0.81219405781E+03  0.82907055439E+02 0.  0.
         23    2    4    4    0    0  0.48730893889E+02 -0.62011590077E+03  0.84641229661E+03  0.10547360771E+04  0.95582352556E+02 0.  0.
          2    1    3    3  502    0 -0.87832767221E+02  0.50599894139E+02 -0.91319181916E+02  0.13643363687E+03  0.00000000000E+00 0. -1.
         -1    1    3    3    0  502 -0.38886080356E+03  0.38257748809E+03 -0.32794122341E+03  0.63649328744E+03  0.00000000000E+00 0.  1.
         11    1    5    5    0    0  0.42076802231E+03  0.19378673014E+03  0.65220984319E+03  0.79998544045E+03  0.00000000000E+00 0. -1.
        -11    1    5    5    0    0  0.71946545853E+01 -0.68482115994E+01  0.70985407843E+01  0.12208617366E+02  0.00000000000E+00 0.  1.
          2    1    6    6  503    0 -0.24645575982E+02 -0.23907915912E+03  0.35211881584E+03  0.42632605974E+03  0.00000000000E+00 0.  1.
         -2    1    6    6    0  503  0.73376469871E+02 -0.38103674166E+03  0.49429348077E+03  0.62841001739E+03  0.00000000000E+00 0. -1.
<mgrwt>
<rscale>  0 0.24059197E+04</rscale>
<asrwt>0</asrwt>
<pdfrwt beam="1">  1        2 0.28663979E+00 0.24059197E+04</pdfrwt>
<pdfrwt beam="2">  1       -1 0.11949206E+00 0.24059197E+04</pdfrwt>
<totfact> 0.50937689E+00</totfact>
</mgrwt>
</event>
<event>
12    6  0.1553355E-007  0.1774612E+04  0.7818608E-02  0.8719918E-01
          2   -1    0    0  501    0  0.00000000000E+00  0.00000000000E+00  0.11220171874E+04  0.11220171874E+04  0.00000000000E+00 0. -1.
         -1   -1    0    0    0  501 -0.00000000000E+00 -0.00000000000E+00 -0.70169313932E+03  0.70169313932E+03  0.00000000000E+00 0.  1.
         24    2    1    2    0    0  0.52278580425E+03  0.31768187835E+03  0.12856513228E+03  0.62987318641E+03  0.77359322409E+02 0.  0.
        254    2    1    2    0    0 -0.52278580425E+03 -0.31768187835E+03  0.29175891582E+03  0.11938371403E+04  0.98280063071E+03 0.  0.
         23    2    4    4    0    0 -0.14246303315E+03 -0.37586460359E+03 -0.28068168147E+03  0.49865769115E+03  0.91144778129E+02 0.  0.
         23    2    4    4    0    0 -0.38032277110E+03  0.58182725246E+02  0.57244059730E+03  0.69517944918E+03  0.86922893432E+02 0.  0.
          2    1    3    3  502    0  0.38309000104E+02  0.44001891742E+02  0.26831432269E+02  0.64215821441E+02  0.00000000000E+00 0. -1.
         -1    1    3    3    0  502  0.48447680415E+03  0.27367998661E+03  0.10173370001E+03  0.56565736497E+03  0.00000000000E+00 0.  1.
         11    1    5    5    0    0 -0.76170433796E+02 -0.13313201559E+03 -0.62541391381E+02  0.16564267022E+03  0.00000000000E+00 0. -1.
        -11    1    5    5    0    0 -0.66292599355E+02 -0.24273258800E+03 -0.21814029009E+03  0.33301502093E+03  0.00000000000E+00 0.  1.
          3    1    6    6  503    0 -0.84759968101E+02 -0.10076025537E+02  0.17960921901E+03  0.19885987538E+03  0.00000000000E+00 0. -1.
         -3    1    6    6    0  503 -0.29556280300E+03  0.68258750783E+02  0.39283137828E+03  0.49631957380E+03  0.00000000000E+00 0.  1.
<mgrwt>
<rscale>  0 0.17746118E+04</rscale>
<asrwt>0</asrwt>
<pdfrwt beam="1">  1        2 0.17261803E+00 0.17746118E+04</pdfrwt>
<pdfrwt beam="2">  1       -1 0.10795279E+00 0.17746118E+04</pdfrwt>
<totfact> 0.18178104E+01</totfact>
</mgrwt>
</event>
<event>
12    6  0.1553355E-007  0.1207275E+04  0.7818608E-02  0.9106513E-01
         -1   -1    0    0    0  501 -0.00000000000E+00  0.00000000000E+00  0.48458951042E+03  0.48458951042E+03  0.00000000000E+00 0.  1.
          2   -1    0    0  501    0  0.00000000000E+00 -0.00000000000E+00 -0.75193142394E+03  0.75193142394E+03  0.00000000000E+00 0. -1.
         24    2    1    2    0    0  0.18504820076E+03 -0.23370519967E+03 -0.75729336312E+02  0.31896668702E+03  0.84521346968E+02 0.  0.
        254    2    1    2    0    0 -0.18504820076E+03  0.23370519967E+03 -0.19161257721E+03  0.91755424734E+03  0.84636248742E+03 0.  0.
         23    2    4    4    0    0 -0.10573931463E+03 -0.17838119488E+03 -0.38612564389E+03  0.44819844681E+03  0.93745301260E+02 0.  0.
         23    2    4    4    0    0 -0.79308886124E+02  0.41208639454E+03  0.19451306668E+03  0.46935580053E+03  0.79714731373E+02 0.  0.
          4    1    3    3  502    0  0.13665885730E+02 -0.32610488333E+02 -0.38275306462E+02  0.52107575906E+02  0.00000000000E+00 0. -1.
         -3    1    3    3    0  502  0.17138231503E+03 -0.20109471133E+03 -0.37454029850E+02  0.26685911111E+03  0.00000000000E+00 0.  1.
         11    1    5    5    0    0  0.56962157296E+01 -0.41521568625E+02 -0.32705433862E+02  0.53161385787E+02  0.00000000000E+00 0. -1.
        -11    1    5    5    0    0 -0.11143553036E+03 -0.13685962625E+03 -0.35342021003E+03  0.39503706102E+03  0.00000000000E+00 0.  1.
          3    1    6    6  503    0  0.10002411852E+02  0.53886149451E+02  0.45564719226E+02  0.71273480227E+02  0.00000000000E+00 0. -1.
         -3    1    6    6    0  503 -0.89311297975E+02  0.35820024509E+03  0.14894834746E+03  0.39808232031E+03  0.00000000000E+00 0.  1.
<mgrwt>
<rscale>  0 0.12072748E+04</rscale>
<asrwt>0</asrwt>
<pdfrwt beam="1">  1        2 0.11568176E+00 0.12072748E+04</pdfrwt>
<pdfrwt beam="2">  1       -1 0.74552233E-01 0.12072748E+04</pdfrwt>
<totfact> 0.76237017E+01</totfact>
</mgrwt>
</event>
<event>
12    6  0.1553355E-007  0.1557403E+04  0.7818608E-02  0.8847153E-01
          2   -1    0    0  501    0  0.00000000000E+00  0.00000000000E+00  0.30504990148E+04  0.30504990148E+04  0.00000000000E+00 0. -1.
         -1   -1    0    0    0  501 -0.00000000000E+00 -0.00000000000E+00 -0.19877924846E+03  0.19877924846E+03  0.00000000000E+00 0.  1.
         24    2    1    2    0    0  0.33418148008E+01 -0.49911205852E+03  0.75898668699E+03  0.91266035597E+03  0.88114241991E+02 0.  0.
        254    2    1    2    0    0 -0.33418148008E+01  0.49911205852E+03  0.20927330793E+04  0.23366179073E+04  0.91166193767E+03 0.  0.
         23    2    4    4    0    0  0.58875264748E+02  0.39874484070E+03  0.21416433045E+04  0.21811148454E+04  0.90344785133E+02 0.  0.
         23    2    4    4    0    0 -0.62217079549E+02  0.10036721782E+03 -0.48910225189E+02  0.15550306189E+03  0.88568892545E+02 0.  0.
          4    1    3    3  502    0 -0.33306402503E+02 -0.88176818101E+02  0.14413691227E+03  0.17222054807E+03  0.00000000000E+00 0. -1.
         -3    1    3    3    0  502  0.36648217304E+02 -0.41093524042E+03  0.61484977472E+03  0.74043980790E+03  0.00000000000E+00 0.  1.
         11    1    5    5    0    0  0.13876833332E+02  0.31100198997E+03  0.15028082642E+04  0.15347141373E+04  0.00000000000E+00 0.  1.
        -11    1    5    5    0    0  0.44998431416E+02  0.87742850731E+02  0.63883504028E+03  0.64640070805E+03  0.00000000000E+00 0. -1.
          2    1    6    6  503    0 -0.34675597187E+02  0.79697324044E+02 -0.72979080206E+02  0.11349011696E+03  0.00000000000E+00 0.  1.
         -2    1    6    6    0  503 -0.27541482361E+02  0.20669893780E+02  0.24068855016E+02  0.42012944926E+02  0.00000000000E+00 0. -1.
<mgrwt>
<rscale>  0 0.15574028E+04</rscale>
<asrwt>0</asrwt>
<pdfrwt beam="1">  1        2 0.46930751E+00 0.15574028E+04</pdfrwt>
<pdfrwt beam="2">  1       -1 0.30581425E-01 0.15574028E+04</pdfrwt>
<totfact> 0.17609830E+01</totfact>
</mgrwt>
</event>
<event>
12    6  0.1553355E-007  0.1433993E+04  0.7818608E-02  0.8929574E-01
          2   -1    0    0  501    0  0.00000000000E+00  0.00000000000E+00  0.19069207948E+04  0.19069207948E+04  0.00000000000E+00 0. -1.
         -1   -1    0    0    0  501 -0.00000000000E+00 -0.00000000000E+00 -0.26958844171E+03  0.26958844171E+03  0.00000000000E+00 0.  1.
         24    2    1    2    0    0 -0.83954311063E+02  0.41667350128E+03  0.50876303532E+03  0.66755395136E+03  0.78251638052E+02 0.  0.
        254    2    1    2    0    0  0.83954311063E+02 -0.41667350128E+03  0.11285693178E+04  0.15089552852E+04  0.90697972116E+03 0.  0.
         23    2    4    4    0    0  0.47018932983E+03 -0.17229448949E+03  0.41677719210E+03  0.65816027052E+03  0.93318362817E+02 0.  0.
         23    2    4    4    0    0 -0.38623501877E+03 -0.24437901178E+03  0.71179212569E+03  0.85079501465E+03  0.91134711505E+02 0.  0.
          4    1    3    3  502    0 -0.88301794504E+02  0.27216062660E+03  0.36353068907E+03  0.46262638866E+03  0.00000000000E+00 0. -1.
         -3    1    3    3    0  502  0.43474834406E+01  0.14451287467E+03  0.14523234624E+03  0.20492756270E+03  0.00000000000E+00 0.  1.
         11    1    5    5    0    0  0.31395777208E+03 -0.15924732689E+03  0.27377391604E+03  0.44596115400E+03  0.00000000000E+00 0. -1.
        -11    1    5    5    0    0  0.15623155775E+03 -0.13047162608E+02  0.14300327606E+03  0.21219911652E+03  0.00000000000E+00 0.  1.
          4    1    6    6  503    0 -0.27290199350E+03 -0.16944576658E+03  0.41856681730E+03  0.52762254161E+03  0.00000000000E+00 0. -1.
         -4    1    6    6    0  503 -0.11333302527E+03 -0.74933245202E+02  0.29322530839E+03  0.32317247305E+03  0.00000000000E+00 0.  1.
<mgrwt>
<rscale>  0 0.14339928E+04</rscale>
<asrwt>0</asrwt>
<pdfrwt beam="1">  1        2 0.29337242E+00 0.14339928E+04</pdfrwt>
<pdfrwt beam="2">  1       -1 0.41475146E-01 0.14339928E+04</pdfrwt>
<totfact> 0.47449880E+01</totfact>
</mgrwt>
</event>
<event>
12    6  0.1553355E-007  0.1636659E+04  0.7818608E-02  0.8798338E-01
         -1   -1    0    0    0  501 -0.00000000000E+00  0.00000000000E+00  0.10264352339E+04  0.10264352339E+04  0.00000000000E+00 0.  1.
          2   -1    0    0  501    0  0.00000000000E+00 -0.00000000000E+00 -0.65241659339E+03  0.65241659339E+03  0.00000000000E+00 0. -1.
         24    2    1    2    0    0  0.48985784538E+02  0.48219976899E+03  0.43474888755E+03  0.65593988210E+03  0.79588374839E+02 0.  0.
        254    2    1    2    0    0 -0.48985784538E+02 -0.48219976899E+03 -0.60730247045E+02  0.10229119452E+04  0.89874604887E+03 0.  0.
         23    2    4    4    0    0 -0.15235874539E+03 -0.26253346281E+03 -0.45235959580E+03  0.55254591642E+03  0.92416337546E+02 0.  0.
         23    2    4    4    0    0  0.10337296085E+03 -0.21966630618E+03  0.39162934875E+03  0.47036602875E+03  0.94506079655E+02 0.  0.
          4    1    3    3  502    0  0.73152525863E+01  0.91757927960E+02  0.12802850251E+03  0.15768426592E+03  0.00000000000E+00 0. -1.
         -3    1    3    3    0  502  0.41670531951E+02  0.39044184103E+03  0.30672038503E+03  0.49825561618E+03  0.00000000000E+00 0.  1.
         11    1    5    5    0    0 -0.12662272299E+03 -0.24567233787E+03 -0.43954018318E+03  0.51921458397E+03  0.00000000000E+00 0. -1.
        -11    1    5    5    0    0 -0.25736022397E+02 -0.16861124937E+02 -0.12819412619E+02  0.33331332450E+02  0.00000000000E+00 0.  1.
          3    1    6    6  503    0  0.11300992074E+03 -0.15597150611E+03  0.32427988104E+03  0.37716812452E+03  0.00000000000E+00 0. -1.
         -3    1    6    6    0  503 -0.96369598914E+01 -0.63694800075E+02  0.67349467709E+02  0.93197904232E+02  0.00000000000E+00 0.  1.
<mgrwt>
<rscale>  0 0.16366593E+04</rscale>
<asrwt>0</asrwt>
<pdfrwt beam="1">  1        2 0.10037178E+00 0.16366593E+04</pdfrwt>
<pdfrwt beam="2">  1       -1 0.15791311E+00 0.16366593E+04</pdfrwt>
<totfact> 0.14818566E+01</totfact>
</mgrwt>
</event>
<event>
12    6  0.1553355E-007  0.2243457E+04  0.7818608E-02  0.8500555E-01
         -1   -1    0    0    0  501 -0.00000000000E+00  0.00000000000E+00  0.19425382579E+04  0.19425382579E+04  0.00000000000E+00 0.  1.
          2   -1    0    0  501    0  0.00000000000E+00 -0.00000000000E+00 -0.64774801765E+03  0.64774801765E+03  0.00000000000E+00 0. -1.
         24    2    1    2    0    0 -0.21539098327E+03  0.19740161094E+03 -0.47315921702E+03  0.56160284180E+03  0.78469328982E+02 0.  0.
        254    2    1    2    0    0  0.21539098327E+03 -0.19740161094E+03  0.17679494572E+04  0.20286834337E+04  0.95107860832E+03 0.  0.
         23    2    4    4    0    0  0.56919838761E+03 -0.54328702670E+02  0.83090838123E+03  0.10128123697E+04  0.91878973884E+02 0.  0.
         23    2    4    4    0    0 -0.35380740434E+03 -0.14307290827E+03  0.93704107601E+03  0.10158710640E+04  0.91096125726E+02 0.  0.
          4    1    3    3  502    0 -0.15531911305E+03  0.16428268600E+03 -0.41077893508E+03  0.46888395292E+03  0.00000000000E+00 0. -1.
         -1    1    3    3    0  502 -0.60071870218E+02  0.33118924941E+02 -0.62380281942E+02  0.92718888884E+02  0.00000000000E+00 0.  1.
         11    1    5    5    0    0  0.10318186573E+03  0.12323134600E+02  0.20276798598E+03  0.22784471291E+03  0.00000000000E+00 0. -1.
        -11    1    5    5    0    0  0.46601652187E+03 -0.66651837271E+02  0.62814039525E+03  0.78496765679E+03  0.00000000000E+00 0.  1.
          2    1    6    6  503    0 -0.85599089959E+02 -0.66980529375E+02  0.33987949155E+03  0.35683562643E+03  0.00000000000E+00 0. -1.
         -2    1    6    6    0  503 -0.26820831438E+03 -0.76092378899E+02  0.59716158446E+03  0.65903543757E+03  0.00000000000E+00 0.  1.
<mgrwt>
<rscale>  0 0.22434574E+04</rscale>
<asrwt>0</asrwt>
<pdfrwt beam="1">  1        2 0.99653542E-01 0.22434574E+04</pdfrwt>
<pdfrwt beam="2">  1       -1 0.29885204E+00 0.22434574E+04</pdfrwt>
<totfact> 0.15775103E+00</totfact>
</mgrwt>
</event>
<event>
12    6  0.1553355E-007  0.2288014E+04  0.7818608E-02  0.8482662E-01
         -1   -1    0    0    0  501 -0.00000000000E+00  0.00000000000E+00  0.11787399892E+04  0.11787399892E+04  0.00000000000E+00 0.  1.
          2   -1    0    0  501    0  0.00000000000E+00 -0.00000000000E+00 -0.11102978401E+04  0.11102978401E+04  0.00000000000E+00 0. -1.
         24    2    1    2    0    0  0.64897621272E+03 -0.39861031628E+03  0.62515092546E+03  0.98851261963E+03  0.79266705799E+02 0.  0.
        254    2    1    2    0    0 -0.64897621272E+03  0.39861031628E+03 -0.55670877635E+03  0.13005252097E+04  0.89519877706E+03 0.  0.
         23    2    4    4    0    0  0.17884866690E+03  0.52111177821E+01  0.38310788794E+02  0.20406089180E+03  0.90327900584E+02 0.  0.
         23    2    4    4    0    0 -0.82782487962E+03  0.39339919850E+03 -0.59501956514E+03  0.10964643179E+04  0.90159618521E+02 0.  0.
          4    1    3    3  502    0  0.11433707969E+03 -0.36607442750E+02  0.99845090855E+02  0.15614773397E+03  0.00000000000E+00 0. -1.
         -3    1    3    3    0  502  0.53463913303E+03 -0.36200287353E+03  0.52530583461E+03  0.83236488566E+03  0.00000000000E+00 0.  1.
         11    1    5    5    0    0  0.11673693447E+03 -0.35322274068E+02  0.44042184077E+02  0.12967223640E+03  0.00000000000E+00 0. -1.
        -11    1    5    5    0    0  0.62111732430E+02  0.40533391850E+02 -0.57313952835E+01  0.74388655400E+02  0.00000000000E+00 0.  1.
          4    1    6    6  503    0 -0.77872836250E+03  0.35273970085E+03 -0.53248670803E+03  0.10071669441E+04  0.00000000000E+00 0. -1.
         -4    1    6    6    0  503 -0.49096517115E+02  0.40659497650E+02 -0.62532857107E+02  0.89297373757E+02  0.00000000000E+00 0.  1.
<mgrwt>
<rscale>  0 0.22880144E+04</rscale>
<asrwt>0</asrwt>
<pdfrwt beam="1">  1        2 0.17081505E+00 0.22880144E+04</pdfrwt>
<pdfrwt beam="2">  1       -1 0.18134461E+00 0.22880144E+04</pdfrwt>
<totfact> 0.45213573E+00</totfact>
</mgrwt>
</event>
<event>
12    6  0.1553355E-007  0.1442408E+04  0.7818608E-02  0.8923681E-01
          2   -1    0    0  501    0  0.00000000000E+00  0.00000000000E+00  0.10253187037E+04  0.10253187037E+04  0.00000000000E+00 0. -1.
         -1   -1    0    0    0  501 -0.00000000000E+00 -0.00000000000E+00 -0.50729124303E+03  0.50729124303E+03  0.00000000000E+00 0.  1.
         24    2    1    2    0    0  0.24820775501E+03  0.27075347485E+03 -0.89048302529E+02  0.38537432952E+03  0.75294354895E+02 0.  0.
        254    2    1    2    0    0 -0.24820775501E+03 -0.27075347485E+03  0.60707576317E+03  0.11472356172E+04  0.90149544941E+03 0.  0.
         23    2    4    4    0    0 -0.94247345430E+02 -0.25429198933E+03 -0.18112428449E+03  0.33856585173E+03  0.90960714428E+02 0.  0.
         23    2    4    4    0    0 -0.15396040958E+03 -0.16461485518E+02  0.78820004766E+03  0.80866976545E+03  0.93341770901E+02 0.  0.
          2    1    3    3  502    0  0.55348589126E+01  0.38587646565E+02 -0.12243472853E+02  0.40860050882E+02  0.00000000000E+00 0. -1.
         -1    1    3    3    0  502  0.24267289610E+03  0.23216582828E+03 -0.76804829677E+02  0.34451427864E+03  0.00000000000E+00 0.  1.
         11    1    5    5    0    0 -0.19009889382E+02 -0.17623837217E+03 -0.10396265322E+03  0.20549835276E+03  0.00000000000E+00 0. -1.
        -11    1    5    5    0    0 -0.75237456048E+02 -0.78053617157E+02 -0.77161631263E+02  0.13306749897E+03  0.00000000000E+00 0.  1.
          1    1    6    6  503    0 -0.79494622021E+02 -0.44045871270E+02  0.28210884984E+03  0.29638629669E+03  0.00000000000E+00 0. -1.
         -1    1    6    6    0  503 -0.74465787557E+02  0.27584385752E+02  0.50609119782E+03  0.51228346876E+03  0.00000000000E+00 0.  1.
<mgrwt>
<rscale>  0 0.14424080E+04</rscale>
<asrwt>0</asrwt>
<pdfrwt beam="1">  1        2 0.15774134E+00 0.14424080E+04</pdfrwt>
<pdfrwt beam="2">  1       -1 0.78044807E-01 0.14424080E+04</pdfrwt>
<totfact> 0.44172951E+01</totfact>
</mgrwt>
</event>
<event>
12    6  0.1553355E-007  0.1523527E+04  0.7818608E-02  0.8868957E-01
          2   -1    0    0  501    0  0.00000000000E+00  0.00000000000E+00  0.14237096564E+04  0.14237096564E+04  0.00000000000E+00 0. -1.
         -1   -1    0    0    0  501 -0.00000000000E+00 -0.00000000000E+00 -0.40758548865E+03  0.40758548865E+03  0.00000000000E+00 0.  1.
         24    2    1    2    0    0  0.21590379744E+03 -0.44555004197E+03  0.26872116935E+03  0.56841689765E+03  0.75877618745E+02 0.  0.
        254    2    1    2    0    0 -0.21590379744E+03  0.44555004197E+03  0.74740299844E+03  0.12628782474E+04  0.88944979406E+03 0.  0.
         23    2    4    4    0    0 -0.15162928545E+03 -0.23772021197E+03  0.92537771744E+02  0.31006650938E+03  0.89864685246E+02 0.  0.
         23    2    4    4    0    0 -0.64274511988E+02  0.68327025395E+03  0.65486522669E+03  0.95281173806E+03  0.89511397262E+02 0.  0.
          2    1    3    3  502    0  0.75135544485E+02 -0.21999022091E+03  0.15394899827E+03  0.27882134317E+03  0.00000000000E+00 0. -1.
         -1    1    3    3    0  502  0.14076825295E+03 -0.22555982107E+03  0.11477217108E+03  0.28959555448E+03  0.00000000000E+00 0.  1.
         11    1    5    5    0    0 -0.15325835433E+03 -0.17593190507E+03  0.82306446290E+02  0.24741566138E+03  0.00000000000E+00 0.  1.
        -11    1    5    5    0    0  0.16290688783E+01 -0.61788306903E+02  0.10231325453E+02  0.62650848006E+02  0.00000000000E+00 0. -1.
          3    1    6    6  503    0 -0.67239125686E+02  0.25267554556E+03  0.24344266457E+03  0.35725391849E+03  0.00000000000E+00 0. -1.
         -3    1    6    6    0  503  0.29646136982E+01  0.43059470839E+03  0.41142256213E+03  0.59555781957E+03  0.00000000000E+00 0.  1.
<mgrwt>
<rscale>  0 0.15235267E+04</rscale>
<asrwt>0</asrwt>
<pdfrwt beam="1">  1        2 0.21903225E+00 0.15235267E+04</pdfrwt>
<pdfrwt beam="2">  1       -1 0.62705460E-01 0.15235267E+04</pdfrwt>
<totfact> 0.39767724E+01</totfact>
</mgrwt>
</event>
<event>
12    6  0.1553355E-007  0.2051857E+04  0.7818608E-02  0.8582752E-01
         -1   -1    0    0    0  501 -0.00000000000E+00  0.00000000000E+00  0.24725870168E+04  0.24725870168E+04  0.00000000000E+00 0.  1.
          2   -1    0    0  501    0  0.00000000000E+00 -0.00000000000E+00 -0.42567939990E+03  0.42567939990E+03  0.00000000000E+00 0. -1.
         24    2    1    2    0    0 -0.61760538120E+03 -0.54436217359E+03  0.81822099684E+03  0.11635450739E+04  0.81147744567E+02 0.  0.
        254    2    1    2    0    0  0.61760538120E+03  0.54436217359E+03  0.12286866201E+04  0.17347213428E+04  0.90654329401E+03 0.  0.
         23    2    4    4    0    0  0.14017868206E+03 -0.22864686478E+03  0.14719128368E+03  0.31916173886E+03  0.90936735614E+02 0.  0.
         23    2    4    4    0    0  0.47742669914E+03  0.77300903837E+03  0.10814953364E+04  0.14155596039E+04  0.93260941535E+02 0.  0.
          2    1    3    3  502    0 -0.60102588567E+03 -0.53331337250E+03  0.81271621516E+03  0.11428748466E+04  0.00000000000E+00 0. -1.
         -1    1    3    3    0  502 -0.16579495525E+02 -0.11048801085E+02  0.55047816841E+01  0.20670227349E+02  0.00000000000E+00 0.  1.
         11    1    5    5    0    0  0.75254084236E+02 -0.16924962027E+03  0.13739823380E+03  0.23062282152E+03  0.00000000000E+00 0.  1.
        -11    1    5    5    0    0  0.64924597821E+02 -0.59397244512E+02  0.97930498829E+01  0.88538917341E+02  0.00000000000E+00 0. -1.
          1    1    6    6  503    0  0.24464062506E+03  0.37169220013E+03  0.46010401303E+03  0.64007798733E+03  0.00000000000E+00 0. -1.
         -1    1    6    6    0  503  0.23278607408E+03  0.40131683824E+03  0.62139132335E+03  0.77548161659E+03  0.00000000000E+00 0.  1.
<mgrwt>
<rscale>  0 0.20518571E+04</rscale>
<asrwt>0</asrwt>
<pdfrwt beam="1">  1        2 0.65489139E-01 0.20518571E+04</pdfrwt>
<pdfrwt beam="2">  1       -1 0.38039800E+00 0.20518571E+04</pdfrwt>
<totfact> 0.76294364E-01</totfact>
</mgrwt>
</event>
<event>
12    6  0.1553355E-007  0.1278703E+04  0.7818608E-02  0.9046626E-01
          2   -1    0    0  501    0  0.00000000000E+00  0.00000000000E+00  0.10537042785E+04  0.10537042785E+04  0.00000000000E+00 0. -1.
         -1   -1    0    0    0  501 -0.00000000000E+00 -0.00000000000E+00 -0.38793647232E+03  0.38793647232E+03  0.00000000000E+00 0.  1.
         24    2    1    2    0    0  0.15122637063E+03  0.90750938958E+02  0.45713558851E+03  0.49638677275E+03  0.79509331415E+02 0.  0.
        254    2    1    2    0    0 -0.15122637063E+03 -0.90750938958E+02  0.20863221767E+03  0.94525397807E+03  0.90491576001E+03 0.  0.
         23    2    4    4    0    0  0.31005072645E+03  0.10935982409E+03  0.26267717422E+03  0.43065068335E+03  0.91486005035E+02 0.  0.
         23    2    4    4    0    0 -0.46127709709E+03 -0.20011076305E+03 -0.54044956548E+02  0.51460329472E+03  0.95261827722E+02 0.  0.
          4    1    3    3  502    0  0.13694447431E+03  0.92220124982E+02  0.33567176678E+03  0.37407736568E+03  0.00000000000E+00 0. -1.
         -3    1    3    3    0  502  0.14281896322E+02 -0.14691860237E+01  0.12146382173E+03  0.12230940708E+03  0.00000000000E+00 0.  1.
         11    1    5    5    0    0 -0.34521326033E+00  0.15102657460E+02  0.36789401232E+01  0.15548119983E+02  0.00000000000E+00 0. -1.
        -11    1    5    5    0    0  0.31039593971E+03  0.94257166630E+02  0.25899823409E+03  0.41510256337E+03  0.00000000000E+00 0.  1.
          1    1    6    6  503    0 -0.38759682448E+02 -0.50208178214E+01  0.19111058151E+02  0.43505794312E+02  0.00000000000E+00 0. -1.
         -1    1    6    6    0  503 -0.42251741464E+03 -0.19508994523E+03 -0.73156014698E+02  0.47109750041E+03  0.00000000000E+00 0.  1.
<mgrwt>
<rscale>  0 0.12787030E+04</rscale>
<asrwt>0</asrwt>
<pdfrwt beam="1">  1        2 0.16210835E+00 0.12787030E+04</pdfrwt>
<pdfrwt beam="2">  1       -1 0.59682535E-01 0.12787030E+04</pdfrwt>
<totfact> 0.74195201E+01</totfact>
</mgrwt>
</event>
<event>
12    6  0.1553355E-007  0.1561126E+04  0.7818608E-02  0.8844792E-01
         -1   -1    0    0    0  501 -0.00000000000E+00  0.00000000000E+00  0.99421456327E+03  0.99421456327E+03  0.00000000000E+00 0.  1.
          2   -1    0    0  501    0  0.00000000000E+00 -0.00000000000E+00 -0.61282391020E+03  0.61282391020E+03  0.00000000000E+00 0. -1.
         24    2    1    2    0    0 -0.43815691127E+03  0.27510189500E+03  0.13645746258E+03  0.54097066927E+03  0.79787808591E+02 0.  0.
        254    2    1    2    0    0  0.43815691127E+03 -0.27510189500E+03  0.24493319049E+03  0.10660678042E+04  0.89935852908E+03 0.  0.
         23    2    4    4    0    0  0.60832330425E+03 -0.84095163090E+02  0.41350333361E+03  0.74606133794E+03  0.92158961181E+02 0.  0.
         23    2    4    4    0    0 -0.17016639298E+03 -0.19100673191E+03 -0.16857014312E+03  0.32000646625E+03  0.92455785969E+02 0.  0.
          4    1    3    3  502    0 -0.40008880437E+03  0.23882557738E+03  0.14435054627E+03  0.48779687166E+03  0.00000000000E+00 0. -1.
         -3    1    3    3    0  502 -0.38068106893E+02  0.36276317611E+02 -0.78930836924E+01  0.53173797608E+02  0.00000000000E+00 0.  1.
         11    1    5    5    0    0  0.26818667129E+03 -0.80878884345E+02  0.16895784233E+03  0.32712724906E+03  0.00000000000E+00 0. -1.
        -11    1    5    5    0    0  0.34013663296E+03 -0.32162787443E+01  0.24454549127E+03  0.41893408889E+03  0.00000000000E+00 0.  1.
          2    1    6    6  503    0 -0.15900689061E+03 -0.11997297573E+03 -0.11201973791E+03  0.22852817736E+03  0.00000000000E+00 0.  1.
         -2    1    6    6    0  503 -0.11159502374E+02 -0.71033756173E+02 -0.56550405205E+02  0.91478288890E+02  0.00000000000E+00 0. -1.
<mgrwt>
<rscale>  0 0.15611258E+04</rscale>
<asrwt>0</asrwt>
<pdfrwt beam="1">  1        2 0.94280601E-01 0.15611258E+04</pdfrwt>
<pdfrwt beam="2">  1       -1 0.15295609E+00 0.15611258E+04</pdfrwt>
<totfact> 0.17577644E+01</totfact>
</mgrwt>
</event>
<event>
12    6  0.1553355E-007  0.1276704E+04  0.7818608E-02  0.9048245E-01
          2   -1    0    0  501    0  0.00000000000E+00  0.00000000000E+00  0.92570000099E+03  0.92570000099E+03  0.00000000000E+00 0. -1.
         -1   -1    0    0    0  501 -0.00000000000E+00 -0.00000000000E+00 -0.44020045398E+03  0.44020045398E+03  0.00000000000E+00 0.  1.
         24    2    1    2    0    0 -0.11649799235E+03 -0.17659393363E+03 -0.12569702348E+03  0.25816896106E+03  0.78065812783E+02 0.  0.
        254    2    1    2    0    0  0.11649799235E+03  0.17659393363E+03  0.61119657049E+03  0.11077314939E+04  0.89930562947E+03 0.  0.
         23    2    4    4    0    0  0.65045817359E+02 -0.46258884386E+02 -0.21466814781E+03  0.24600244470E+03  0.89799478681E+02 0.  0.
         23    2    4    4    0    0  0.51452174994E+02  0.22285281801E+03  0.82586471831E+03  0.86172904921E+03  0.90629556407E+02 0.  0.
          2    1    3    3  502    0 -0.35856935959E+02 -0.13872928434E+02 -0.21215414117E+01  0.38505570216E+02  0.00000000000E+00 0. -1.
         -1    1    3    3    0  502 -0.80641056394E+02 -0.16272100519E+03 -0.12357548207E+03  0.21966339084E+03  0.00000000000E+00 0.  1.
         11    1    5    5    0    0  0.48612463129E+02  0.19483990743E+02 -0.94946566164E+02  0.10843268831E+03  0.00000000000E+00 0.  1.
        -11    1    5    5    0    0  0.16433354230E+02 -0.65742875128E+02 -0.11972158165E+03  0.13756975639E+03  0.00000000000E+00 0. -1.
          3    1    6    6  503    0  0.97512014794E+01  0.86929458613E+02  0.17656804861E+03  0.19704845215E+03  0.00000000000E+00 0. -1.
         -3    1    6    6    0  503  0.41700973514E+02  0.13592335940E+03  0.64929666970E+03  0.66468059706E+03  0.00000000000E+00 0.  1.
<mgrwt>
<rscale>  0 0.12767044E+04</rscale>
<asrwt>0</asrwt>
<pdfrwt beam="1">  1        2 0.14241539E+00 0.12767044E+04</pdfrwt>
<pdfrwt beam="2">  1       -1 0.67723147E-01 0.12767044E+04</pdfrwt>
<totfact> 0.69705439E+01</totfact>
</mgrwt>
</event>
<event>
12    6  0.1553355E-007  0.2579770E+04  0.7818608E-02  0.8375106E-01
          2   -1    0    0  501    0  0.00000000000E+00  0.00000000000E+00  0.19543910125E+04  0.19543910125E+04  0.00000000000E+00 0. -1.
         -1   -1    0    0    0  501 -0.00000000000E+00 -0.00000000000E+00 -0.85131538295E+03  0.85131538295E+03  0.00000000000E+00 0.  1.
         24    2    1    2    0    0 -0.11196602311E+04  0.38010193440E+02  0.56872213667E+03  0.12586040807E+04  0.74535598475E+02 0.  0.
        254    2    1    2    0    0  0.11196602311E+04 -0.38010193440E+02  0.53435349289E+03  0.15471023147E+04  0.92353024263E+03 0.  0.
         23    2    4    4    0    0  0.88498222662E+03 -0.42458882063E+03  0.42455277193E+03  0.10733275385E+04  0.91201648672E+02 0.  0.
         23    2    4    4    0    0  0.23467800445E+03  0.38657862719E+03  0.10980072097E+03  0.47377477623E+03  0.88823079725E+02 0.  0.
          4    1    3    3  502    0 -0.46280168904E+03  0.21480749513E+01  0.27329254515E+03  0.53747449506E+03  0.00000000000E+00 0. -1.
         -3    1    3    3    0  502 -0.65685854203E+03  0.35862118488E+02  0.29542959152E+03  0.72112958567E+03  0.00000000000E+00 0.  1.
         11    1    5    5    0    0  0.18860585208E+03 -0.64767250299E+02  0.11770638736E+03  0.23156372293E+03  0.00000000000E+00 0.  1.
        -11    1    5    5    0    0  0.69637637454E+03 -0.35982157033E+03  0.30684638457E+03  0.84176381558E+03  0.00000000000E+00 0. -1.
          3    1    6    6  503    0  0.21997380161E+03  0.37602504707E+03  0.12144596178E+03  0.45225261862E+03  0.00000000000E+00 0. -1.
         -3    1    6    6    0  503  0.14704202836E+02  0.10553580126E+02 -0.11645240812E+02  0.21522157608E+02  0.00000000000E+00 0.  1.
<mgrwt>
<rscale>  0 0.25797699E+04</rscale>
<asrwt>0</asrwt>
<pdfrwt beam="1">  1        2 0.30067554E+00 0.25797699E+04</pdfrwt>
<pdfrwt beam="2">  1       -1 0.13097160E+00 0.25797699E+04</pdfrwt>
<totfact> 0.35538842E+00</totfact>
</mgrwt>
</event>
<event>
12    6  0.1553355E-007  0.2332508E+04  0.7818608E-02  0.8465213E-01
          2   -1    0    0  501    0  0.00000000000E+00  0.00000000000E+00  0.40547548717E+04  0.40547548717E+04  0.00000000000E+00 0. -1.
         -1   -1    0    0    0  501 -0.00000000000E+00 -0.00000000000E+00 -0.33544533871E+03  0.33544533871E+03  0.00000000000E+00 0.  1.
         24    2    1    2    0    0 -0.60506676282E+03 -0.45139240046E+03  0.44386082925E+03  0.87923319226E+03  0.78598244029E+02 0.  0.
        254    2    1    2    0    0  0.60506676282E+03  0.45139240046E+03  0.32754487038E+04  0.35109670182E+04  0.10141322917E+04 0.  0.
         23    2    4    4    0    0 -0.63858196473E+02  0.56659917879E+03  0.16057210928E+04  0.17062879861E+04  0.89252254954E+02 0.  0.
         23    2    4    4    0    0  0.66892495929E+03 -0.11520677833E+03  0.16697276110E+04  0.18046790321E+04  0.90238079631E+02 0.  0.
          2    1    3    3  502    0 -0.32232758664E+03 -0.28872436397E+03  0.24826201954E+03  0.49888962888E+03  0.00000000000E+00 0. -1.
         -1    1    3    3    0  502 -0.28273917618E+03 -0.16266803648E+03  0.19559880971E+03  0.38034356337E+03  0.00000000000E+00 0.  1.
         11    1    5    5    0    0 -0.49982362900E+02  0.15080484473E+03  0.37940868443E+03  0.41132868562E+03  0.00000000000E+00 0. -1.
        -11    1    5    5    0    0 -0.13875833573E+02  0.41579433406E+03  0.12263124084E+04  0.12949593005E+04  0.00000000000E+00 0.  1.
          1    1    6    6  503    0  0.42541315184E+03 -0.30421250383E+02  0.10106338911E+04  0.10969424161E+04  0.00000000000E+00 0. -1.
         -1    1    6    6    0  503  0.24351180745E+03 -0.84785527948E+02  0.65909371986E+03  0.70773661603E+03  0.00000000000E+00 0.  1.
<mgrwt>
<rscale>  0 0.23325082E+04</rscale>
<asrwt>0</asrwt>
<pdfrwt beam="1">  1        2 0.62380841E+00 0.23325082E+04</pdfrwt>
<pdfrwt beam="2">  1       -1 0.51606978E-01 0.23325082E+04</pdfrwt>
<totfact> 0.12063538E+00</totfact>
</mgrwt>
</event>
<event>
12    6  0.1553355E-007  0.2066752E+04  0.7818608E-02  0.8576032E-01
         -1   -1    0    0    0  501 -0.00000000000E+00  0.00000000000E+00  0.97926060594E+03  0.97926060594E+03  0.00000000000E+00 0.  1.
          2   -1    0    0  501    0  0.00000000000E+00 -0.00000000000E+00 -0.10904818467E+04  0.10904818467E+04  0.00000000000E+00 0. -1.
         24    2    1    2    0    0  0.19561290616E+03  0.15993644867E+03 -0.83781038304E+03  0.87873066471E+03  0.79982913806E+02 0.  0.
        254    2    1    2    0    0 -0.19561290616E+03 -0.15993644867E+03  0.72658914226E+03  0.11910117880E+04  0.90924871224E+03 0.  0.
         23    2    4    4    0    0 -0.58265729874E+02  0.32388168938E+03  0.55466846649E+03  0.65153897185E+03  0.92475294687E+02 0.  0.
         23    2    4    4    0    0 -0.13734717628E+03 -0.48381813805E+03  0.17192067577E+03  0.53947281610E+03  0.92357798861E+02 0.  0.
          2    1    3    3  502    0  0.19120804592E+03  0.12214629131E+03 -0.72542391689E+03  0.76007900412E+03  0.00000000000E+00 0. -1.
         -1    1    3    3    0  502  0.44048602342E+01  0.37790157359E+02 -0.11238646615E+03  0.11865166059E+03  0.00000000000E+00 0.  1.
         11    1    5    5    0    0 -0.81353402976E+01  0.24032914455E+03  0.43674375309E+03  0.49856733482E+03  0.00000000000E+00 0. -1.
        -11    1    5    5    0    0 -0.50130389577E+02  0.83552544829E+02  0.11792471340E+03  0.15297163704E+03  0.00000000000E+00 0.  1.
          1    1    6    6  503    0 -0.10859368748E+03 -0.38398710797E+03  0.94981020228E+02  0.41019517580E+03  0.00000000000E+00 0. -1.
         -1    1    6    6    0  503 -0.28753488802E+02 -0.99831030083E+02  0.76939655542E+02  0.12927764030E+03  0.00000000000E+00 0.  1.
<mgrwt>
<rscale>  0 0.20667520E+04</rscale>
<asrwt>0</asrwt>
<pdfrwt beam="1">  1        2 0.16776644E+00 0.20667520E+04</pdfrwt>
<pdfrwt beam="2">  1       -1 0.15065548E+00 0.20667520E+04</pdfrwt>
<totfact> 0.80247730E+00</totfact>
</mgrwt>
</event>
<event>
12    6  0.1553355E-007  0.2060314E+04  0.7818608E-02  0.8578930E-01
         -1   -1    0    0    0  501 -0.00000000000E+00  0.00000000000E+00  0.36232628219E+03  0.36232628219E+03  0.00000000000E+00 0.  1.
          2   -1    0    0  501    0  0.00000000000E+00 -0.00000000000E+00 -0.29289154167E+04  0.29289154167E+04  0.00000000000E+00 0. -1.
         24    2    1    2    0    0  0.41813204192E+03 -0.71666870490E+03 -0.90713827828E+03  0.12319017486E+04  0.78953310959E+02 0.  0.
        254    2    1    2    0    0 -0.41813204192E+03  0.71666870490E+03 -0.16594508563E+04  0.20593399503E+04  0.89367524830E+03 0.  0.
         23    2    4    4    0    0 -0.21137264852E+03  0.16165623772E+03  0.14331356235E+02  0.28141151425E+03  0.90420776648E+02 0.  0.
         23    2    4    4    0    0 -0.20675939341E+03  0.55501246718E+03 -0.16737822125E+04  0.17779284360E+04  0.93243462408E+02 0.  0.
          4    1    3    3  502    0  0.10372527060E+03 -0.18455411854E+03 -0.18272758843E+03  0.27965787313E+03  0.00000000000E+00 0. -1.
         -3    1    3    3    0  502  0.31440677132E+03 -0.53211458636E+03 -0.72441068985E+03  0.95224387551E+03  0.00000000000E+00 0.  1.
         11    1    5    5    0    0 -0.33068359963E+02 -0.65260801404E+01  0.13482016954E+02  0.36302492115E+02  0.00000000000E+00 0.  1.
        -11    1    5    5    0    0 -0.17830428855E+03  0.16818231786E+03  0.84933928051E+00  0.24510902214E+03  0.00000000000E+00 0. -1.
          2    1    6    6  503    0 -0.18209719307E+03  0.52120464048E+03 -0.14786568262E+04  0.15783661409E+04  0.00000000000E+00 0. -1.
         -2    1    6    6    0  503 -0.24662200338E+02  0.33807826705E+02 -0.19512538627E+03  0.19956229514E+03  0.00000000000E+00 0.  1.
<mgrwt>
<rscale>  0 0.20603136E+04</rscale>
<asrwt>0</asrwt>
<pdfrwt beam="1">  1        2 0.45060239E+00 0.20603136E+04</pdfrwt>
<pdfrwt beam="2">  1       -1 0.55742503E-01 0.20603136E+04</pdfrwt>
<totfact> 0.66152623E+00</totfact>
</mgrwt>
</event>
<event>
12    6  0.1553355E-007  0.1690304E+04  0.7818608E-02  0.8766914E-01
          2   -1    0    0  501    0  0.00000000000E+00  0.00000000000E+00  0.77582140230E+03  0.77582140230E+03  0.00000000000E+00 0. -1.
         -1   -1    0    0    0  501 -0.00000000000E+00 -0.00000000000E+00 -0.92067801944E+03  0.92067801944E+03  0.00000000000E+00 0.  1.
         24    2    1    2    0    0  0.11076419169E+03  0.28124464643E+03  0.46688509684E+03  0.56185835995E+03  0.79598151310E+02 0.  0.
        254    2    1    2    0    0 -0.11076419169E+03 -0.28124464643E+03 -0.61174171398E+03  0.11346410618E+04  0.90654021266E+03 0.  0.
         23    2    4    4    0    0  0.20947638911E+02 -0.39366378718E+03 -0.77889855534E+03  0.87745752688E+03  0.88536834452E+02 0.  0.
         23    2    4    4    0    0 -0.13171183060E+03  0.11241914075E+03  0.16715684137E+03  0.25718353491E+03  0.90641554953E+02 0.  0.
          2    1    3    3  502    0  0.39706671019E+02  0.13479501137E+03  0.28507060154E+03  0.31782316259E+03  0.00000000000E+00 0. -1.
         -1    1    3    3    0  502  0.71057520671E+02  0.14644963506E+03  0.18181449530E+03  0.24403519736E+03  0.00000000000E+00 0.  1.
         11    1    5    5    0    0  0.31866212491E+02 -0.38673440338E+03 -0.76831147036E+03  0.86074471810E+03  0.00000000000E+00 0. -1.
        -11    1    5    5    0    0 -0.10918573581E+02 -0.69293837964E+01 -0.10587084987E+02  0.16712808781E+02  0.00000000000E+00 0.  1.
          1    1    6    6  503    0 -0.13800884922E+03  0.10567689596E+03  0.17380718535E+03  0.24581087543E+03  0.00000000000E+00 0. -1.
         -1    1    6    6    0  503  0.62970186221E+01  0.67422447940E+01 -0.66503439828E+01  0.11372659473E+02  0.00000000000E+00 0.  1.
<mgrwt>
<rscale>  0 0.16903038E+04</rscale>
<asrwt>0</asrwt>
<pdfrwt beam="1">  1        2 0.11935714E+00 0.16903038E+04</pdfrwt>
<pdfrwt beam="2">  1       -1 0.14164277E+00 0.16903038E+04</pdfrwt>
<totfact> 0.15857583E+01</totfact>
</mgrwt>
</event>
<event>
12    6  0.1553355E-007  0.1684202E+04  0.7818608E-02  0.8770426E-01
         -1   -1    0    0    0  501 -0.00000000000E+00  0.00000000000E+00  0.30380912152E+03  0.30380912152E+03  0.00000000000E+00 0.  1.
          2   -1    0    0  501    0  0.00000000000E+00 -0.00000000000E+00 -0.23341439249E+04  0.23341439249E+04  0.00000000000E+00 0. -1.
         24    2    1    2    0    0  0.12486339400E+03 -0.46911211424E+03 -0.17126142417E+03  0.52095852552E+03  0.80064143194E+02 0.  0.
        254    2    1    2    0    0 -0.12486339400E+03  0.46911211424E+03 -0.18590733792E+04  0.21169945209E+04  0.88873782935E+03 0.  0.
         23    2    4    4    0    0 -0.64961023271E+02  0.17884792259E+02 -0.15609680837E+04  0.15650498967E+04  0.90664328315E+02 0.  0.
         23    2    4    4    0    0 -0.59902370729E+02  0.45122732198E+03 -0.29810529545E+03  0.55194462416E+03  0.92637523953E+02 0.  0.
          4    1    3    3  502    0  0.17657134032E+02 -0.34628063117E+02  0.65398960402E+01  0.39416333895E+02  0.00000000000E+00 0. -1.
         -3    1    3    3    0  502  0.10720625997E+03 -0.43448405112E+03 -0.17780132021E+03  0.48154219163E+03  0.00000000000E+00 0.  1.
         11    1    5    5    0    0  0.14876741591E+02 -0.87522620001E+01 -0.87854441883E+02  0.89533918093E+02  0.00000000000E+00 0.  1.
        -11    1    5    5    0    0 -0.79837764862E+02  0.26637054259E+02 -0.14731136418E+04  0.14755159786E+04  0.00000000000E+00 0. -1.
          4    1    6    6  503    0  0.10153662628E+02  0.26936588476E+03 -0.16822534537E+03  0.31774336116E+03  0.00000000000E+00 0. -1.
         -4    1    6    6    0  503 -0.70056033357E+02  0.18186143722E+03 -0.12987995008E+03  0.23420126300E+03  0.00000000000E+00 0.  1.
<mgrwt>
<rscale>  0 0.16842021E+04</rscale>
<asrwt>0</asrwt>
<pdfrwt beam="1">  1        2 0.35909906E+00 0.16842021E+04</pdfrwt>
<pdfrwt beam="2">  1       -1 0.46739865E-01 0.16842021E+04</pdfrwt>
<totfact> 0.21474299E+01</totfact>
</mgrwt>
</event>
<event>
12    6  0.1553355E-007  0.1175278E+04  0.7818608E-02  0.9134775E-01
          2   -1    0    0  501    0  0.00000000000E+00  0.00000000000E+00  0.11738491448E+03  0.11738491448E+03  0.00000000000E+00 0. -1.
         -1   -1    0    0    0  501 -0.00000000000E+00 -0.00000000000E+00 -0.29417735791E+04  0.29417735791E+04  0.00000000000E+00 0.  1.
         24    2    1    2    0    0 -0.69077843937E+02  0.16490607727E+03 -0.21820782457E+03  0.29326053659E+03  0.80133169017E+02 0.  0.
        254    2    1    2    0    0  0.69077843937E+02 -0.16490607727E+03 -0.26061808400E+04  0.27658979569E+04  0.90887137404E+03 0.  0.
         23    2    4    4    0    0 -0.10615021081E+03  0.34309254144E+03 -0.12600038237E+04  0.13135704860E+04  0.94220097453E+02 0.  0.
         23    2    4    4    0    0  0.17522805475E+03 -0.50799861871E+03 -0.13461770163E+04  0.14523274709E+04  0.91077196754E+02 0.  0.
          2    1    3    3  502    0 -0.18711479881E+02  0.75700410285E+02 -0.39836922849E+02  0.87565130153E+02  0.00000000000E+00 0. -1.
         -1    1    3    3    0  502 -0.50366364056E+02  0.89205666984E+02 -0.17837090172E+03  0.20569540644E+03  0.00000000000E+00 0.  1.
         11    1    5    5    0    0  0.17860171732E+01 -0.16960823973E+01  0.32101317085E+00  0.24838684139E+01  0.00000000000E+00 0. -1.
        -11    1    5    5    0    0 -0.10793622799E+03  0.34478862384E+03 -0.12603248369E+04  0.13110866176E+04  0.00000000000E+00 0.  1.
          3    1    6    6  503    0  0.23382787992E+02 -0.18492523465E+03 -0.51683579852E+03  0.54942091316E+03  0.00000000000E+00 0. -1.
         -3    1    6    6    0  503  0.15184526676E+03 -0.32307338406E+03 -0.82934121779E+03  0.90290655776E+03  0.00000000000E+00 0.  1.
<mgrwt>
<rscale>  0 0.11752784E+04</rscale>
<asrwt>0</asrwt>
<pdfrwt beam="1">  1        2 0.18059219E-01 0.11752784E+04</pdfrwt>
<pdfrwt beam="2">  1       -1 0.45258051E+00 0.11752784E+04</pdfrwt>
<totfact> 0.11525835E+00</totfact>
</mgrwt>
</event>
<event>
12    6  0.1553355E-007  0.1935795E+04  0.7818608E-02  0.8637241E-01
         -1   -1    0    0    0  501 -0.00000000000E+00  0.00000000000E+00  0.41454399087E+03  0.41454399087E+03  0.00000000000E+00 0.  1.
          2   -1    0    0  501    0  0.00000000000E+00 -0.00000000000E+00 -0.22598938924E+04  0.22598938924E+04  0.00000000000E+00 0. -1.
         24    2    1    2    0    0  0.60703209804E+03  0.86949244274E+02 -0.13153730517E+04  0.14534622600E+04  0.79360802729E+02 0.  0.
        254    2    1    2    0    0 -0.60703209804E+03 -0.86949244274E+02 -0.52997684975E+03  0.12209756232E+04  0.91315818565E+03 0.  0.
         23    2    4    4    0    0  0.32934370241E+02 -0.36895322376E+03 -0.94720347241E+02  0.39295464946E+03  0.90720770980E+02 0.  0.
         23    2    4    4    0    0 -0.63996646828E+03  0.28200397949E+03 -0.43525650251E+03  0.82802097373E+03  0.84185420217E+02 0.  0.
          4    1    3    3  502    0  0.54716586691E+03  0.58298779773E+02 -0.12045710765E+04  0.13243038594E+04  0.00000000000E+00 0. -1.
         -3    1    3    3    0  502  0.59866231132E+02  0.28650464501E+02 -0.11080197527E+03  0.12915840069E+03  0.00000000000E+00 0.  1.
         11    1    5    5    0    0 -0.31631271287E+02 -0.12146177392E+03 -0.27402775691E+02  0.12846949818E+03  0.00000000000E+00 0. -1.
        -11    1    5    5    0    0  0.64565641528E+02 -0.24749144984E+03 -0.67317571551E+02  0.26448515128E+03  0.00000000000E+00 0.  1.
          4    1    6    6  503    0 -0.61663446875E+03  0.26919418928E+03 -0.39639427216E+03  0.78091740830E+03  0.00000000000E+00 0.  1.
         -4    1    6    6    0  503 -0.23331999535E+02  0.12809790208E+02 -0.38862230354E+02  0.47103565423E+02  0.00000000000E+00 0. -1.
<mgrwt>
<rscale>  0 0.19357949E+04</rscale>
<asrwt>0</asrwt>
<pdfrwt beam="1">  1        2 0.34767598E+00 0.19357949E+04</pdfrwt>
<pdfrwt beam="2">  1       -1 0.63776000E-01 0.19357949E+04</pdfrwt>
<totfact> 0.12667144E+01</totfact>
</mgrwt>
</event>
<event>
12    6  0.1912212E-007  0.2305181E+04  0.7818608E-02  0.8475881E-01
          2   -1    0    0  501    0  0.00000000000E+00  0.00000000000E+00  0.12157754724E+04  0.12157754724E+04  0.00000000000E+00 0. -1.
         -1   -1    0    0    0  501 -0.00000000000E+00 -0.00000000000E+00 -0.10926889656E+04  0.10926889656E+04  0.00000000000E+00 0.  1.
         24    2    1    2    0    0  0.40134400956E+03 -0.53435475295E+03 -0.64502046769E+03  0.93248209711E+03  0.82821746354E+02 0.  0.
        254    2    1    2    0    0 -0.40134400956E+03  0.53435475295E+03  0.76810697449E+03  0.13759823408E+04  0.92559551748E+03 0.  0.
         23    2    4    4    0    0 -0.34652479068E+03 -0.17366509841E+03  0.42264500174E+03  0.58097716762E+03  0.93094977525E+02 0.  0.
         23    2    4    4    0    0 -0.54819218882E+02  0.70801985136E+03  0.34546197276E+03  0.79500517321E+03  0.91607827845E+02 0.  0.
          4    1    3    3  502    0  0.16699123488E+02 -0.53363291401E+01 -0.29578820148E+02  0.34383771394E+02  0.00000000000E+00 0. -1.
         -3    1    3    3    0  502  0.38464488607E+03 -0.52901842381E+03 -0.61544164754E+03  0.89809832571E+03  0.00000000000E+00 0.  1.
         11    1    5    5    0    0 -0.27857262845E+03 -0.17733542466E+03  0.35936002968E+03  0.48804732669E+03  0.00000000000E+00 0. -1.
        -11    1    5    5    0    0 -0.67952162233E+02  0.36703262469E+01  0.63284972060E+02  0.92929840932E+02  0.00000000000E+00 0.  1.
          1    1    6    6  503    0 -0.45657437077E+02  0.67701874913E+03  0.30703205364E+03  0.74478699653E+03  0.00000000000E+00 0. -1.
         -1    1    6    6    0  503 -0.91617818051E+01  0.31001102228E+02  0.38429919119E+02  0.50218176677E+02  0.00000000000E+00 0.  1.
<mgrwt>
<rscale>  0 0.23051806E+04</rscale>
<asrwt>0</asrwt>
<pdfrwt beam="1">  1        2 0.18704238E+00 0.23051806E+04</pdfrwt>
<pdfrwt beam="2">  1       -1 0.16810599E+00 0.23051806E+04</pdfrwt>
<totfact> 0.48652399E+00</totfact>
</mgrwt>
</event>
<event>
12    6  0.1553355E-007  0.1352071E+04  0.7818608E-02  0.8989262E-01
          2   -1    0    0  501    0  0.00000000000E+00  0.00000000000E+00  0.44212023392E+03  0.44212023392E+03  0.00000000000E+00 0. -1.
         -1   -1    0    0    0  501 -0.00000000000E+00 -0.00000000000E+00 -0.10337103356E+04  0.10337103356E+04  0.00000000000E+00 0.  1.
         24    2    1    2    0    0 -0.35259532280E+03 -0.11601577933E+02 -0.34968288307E+02  0.36304264546E+03  0.78224823162E+02 0.  0.
        254    2    1    2    0    0  0.35259532280E+03  0.11601577933E+02 -0.55662181336E+03  0.11127879240E+04  0.89666663957E+03 0.  0.
         23    2    4    4    0    0  0.11589851952E+03 -0.23374731584E+03 -0.68163681257E+03  0.73557934035E+03  0.91531127052E+02 0.  0.
         23    2    4    4    0    0  0.23669680328E+03  0.24534889377E+03  0.12501499920E+03  0.37720858370E+03  0.10215727692E+03 0.  0.
          2    1    3    3  502    0 -0.33044324256E+03 -0.18290853355E+02 -0.13106165161E+02  0.33120848938E+03  0.00000000000E+00 0. -1.
         -1    1    3    3    0  502 -0.22152080244E+02  0.66892754226E+01 -0.21862123146E+02  0.31834156079E+02  0.00000000000E+00 0.  1.
         11    1    5    5    0    0  0.13718205973E+02 -0.69262028160E+02 -0.98942848328E+02  0.12155288954E+03  0.00000000000E+00 0.  1.
        -11    1    5    5    0    0  0.10218031355E+03 -0.16448528768E+03 -0.58269396424E+03  0.61402645081E+03  0.00000000000E+00 0. -1.
          2    1    6    6  503    0  0.20356184167E+03  0.14504512557E+03  0.80712132781E+02  0.26265939963E+03  0.00000000000E+00 0. -1.
         -2    1    6    6    0  503  0.33134961608E+02  0.10030376820E+03  0.44302866424E+02  0.11454918406E+03  0.00000000000E+00 0.  1.
<mgrwt>
<rscale>  0 0.13520714E+04</rscale>
<asrwt>0</asrwt>
<pdfrwt beam="1">  1        2 0.68018498E-01 0.13520714E+04</pdfrwt>
<pdfrwt beam="2">  1       -1 0.15903236E+00 0.13520714E+04</pdfrwt>
<totfact> 0.23566307E+01</totfact>
</mgrwt>
</event>
<event>
12    6  0.1553355E-007  0.1224167E+04  0.7818608E-02  0.9091962E-01
          2   -1    0    0  501    0  0.00000000000E+00  0.00000000000E+00  0.96467034684E+03  0.96467034684E+03  0.00000000000E+00 0. -1.
         -1   -1    0    0    0  501 -0.00000000000E+00 -0.00000000000E+00 -0.38836722804E+03  0.38836722804E+03  0.00000000000E+00 0.  1.
         24    2    1    2    0    0 -0.12617017983E+03 -0.16170309370E+03  0.28389240497E+03  0.35895574795E+03  0.78660832653E+02 0.  0.
        254    2    1    2    0    0  0.12617017983E+03  0.16170309370E+03  0.29241071383E+03  0.99408182694E+03  0.92770030090E+03 0.  0.
         23    2    4    4    0    0  0.20902612619E+02 -0.35341781772E+03 -0.35967627225E+02  0.36751673886E+03  0.91835777526E+02 0.  0.
         23    2    4    4    0    0  0.10526756721E+03  0.51512091142E+03  0.32837834105E+03  0.62656508808E+03  0.91217655297E+02 0.  0.
          2    1    3    3  502    0 -0.85102820498E+02 -0.12313426977E+03  0.25488991832E+03  0.29558993371E+03  0.00000000000E+00 0. -1.
         -1    1    3    3    0  502 -0.41067359333E+02 -0.38568823932E+02  0.29002486645E+02  0.63365814235E+02  0.00000000000E+00 0.  1.
         11    1    5    5    0    0  0.41885212963E+02 -0.28772633734E+03 -0.55137348449E+02  0.29594077694E+03  0.00000000000E+00 0.  1.
        -11    1    5    5    0    0 -0.20982600344E+02 -0.65691480386E+02  0.19169721224E+02  0.71575961917E+02  0.00000000000E+00 0. -1.
          4    1    6    6  503    0  0.11187442629E+03  0.35004213998E+03  0.20925714510E+03  0.42288762076E+03  0.00000000000E+00 0. -1.
         -4    1    6    6    0  503 -0.66068590770E+01  0.16507877144E+03  0.11912119595E+03  0.20367746732E+03  0.00000000000E+00 0.  1.
<mgrwt>
<rscale>  0 0.12241672E+04</rscale>
<asrwt>0</asrwt>
<pdfrwt beam="1">  1        2 0.14841082E+00 0.12241672E+04</pdfrwt>
<pdfrwt beam="2">  1       -1 0.59748805E-01 0.12241672E+04</pdfrwt>
<totfact> 0.84765195E+01</totfact>
</mgrwt>
</event>
<event>
12    6  0.1553355E-007  0.3108121E+04  0.7818608E-02  0.8213513E-01
         -1   -1    0    0    0  501 -0.00000000000E+00  0.00000000000E+00  0.11580988072E+04  0.11580988072E+04  0.00000000000E+00 0.  1.
          2   -1    0    0  501    0  0.00000000000E+00 -0.00000000000E+00 -0.20854041469E+04  0.20854041469E+04  0.00000000000E+00 0. -1.
         24    2    1    2    0    0 -0.99516040906E+03  0.51731485691E+03 -0.13066162458E+04  0.17238573460E+04  0.80493693672E+02 0.  0.
        254    2    1    2    0    0  0.99516040906E+03 -0.51731485691E+03  0.37931090612E+03  0.15196456081E+04  0.95262117858E+03 0.  0.
         23    2    4    4    0    0 -0.16508614498E+03 -0.11567606189E+01  0.11228854771E+03  0.21877050041E+03  0.89426173713E+02 0.  0.
         23    2    4    4    0    0  0.11602465540E+04 -0.51615809629E+03  0.26702235841E+03  0.13008751077E+04  0.91563417724E+02 0.  0.
          2    1    3    3  502    0 -0.37455828654E+03  0.21147612842E+03 -0.44607670660E+03  0.61967773163E+03  0.00000000000E+00 0. -1.
         -1    1    3    3    0  502 -0.62060212252E+03  0.30583872849E+03 -0.86053953921E+03  0.11041796144E+04  0.00000000000E+00 0.  1.
         11    1    5    5    0    0 -0.31179412677E+02  0.24780193008E+02  0.61410507812E+02  0.73194700697E+02  0.00000000000E+00 0. -1.
        -11    1    5    5    0    0 -0.13390673230E+03 -0.25936953626E+02  0.50878039902E+02  0.14557579972E+03  0.00000000000E+00 0.  1.
          1    1    6    6  503    0  0.10654717485E+04 -0.49465161015E+03  0.23076577066E+03  0.11971479036E+04  0.00000000000E+00 0.  1.
         -1    1    6    6    0  503  0.94774805564E+02 -0.21506486141E+02  0.36256587751E+02  0.10372720410E+03  0.00000000000E+00 0. -1.
<mgrwt>
<rscale>  0 0.31081210E+04</rscale>
<asrwt>0</asrwt>
<pdfrwt beam="1">  1        2 0.32083141E+00 0.31081210E+04</pdfrwt>
<pdfrwt beam="2">  1       -1 0.17816905E+00 0.31081210E+04</pdfrwt>
<totfact> 0.12394123E+00</totfact>
</mgrwt>
</event>
<event>
12    6  0.1553355E-007  0.1316664E+04  0.7818608E-02  0.9016454E-01
          2   -1    0    0  501    0  0.00000000000E+00  0.00000000000E+00  0.12816884715E+04  0.12816884715E+04  0.00000000000E+00 0. -1.
         -1   -1    0    0    0  501 -0.00000000000E+00 -0.00000000000E+00 -0.33814835947E+03  0.33814835947E+03  0.00000000000E+00 0.  1.
         24    2    1    2    0    0 -0.17556668020E+02  0.15139483716E+03 -0.12332815996E+03  0.21318304123E+03  0.83717027653E+02 0.  0.
        254    2    1    2    0    0  0.17556668020E+02 -0.15139483716E+03  0.10668682720E+04  0.14066537897E+04  0.90401235672E+03 0.  0.
         23    2    4    4    0    0 -0.40438144124E+02  0.65163512184E+02 -0.13517796777E+03  0.18041509067E+03  0.91624206134E+02 0.  0.
         23    2    4    4    0    0  0.57994812144E+02 -0.21655834934E+03  0.12020462398E+04  0.12262386991E+04  0.92115512657E+02 0.  0.
          4    1    3    3  502    0 -0.12253370564E+02  0.99637555312E+02 -0.27410284696E+02  0.10406301565E+03  0.00000000000E+00 0. -1.
         -3    1    3    3    0  502 -0.53032974553E+01  0.51757281845E+02 -0.95917875261E+02  0.10912002558E+03  0.00000000000E+00 0.  1.
         11    1    5    5    0    0 -0.59339520035E+02  0.76923106160E+02 -0.10748155832E+03  0.14488142834E+03  0.00000000000E+00 0. -1.
        -11    1    5    5    0    0  0.18901375912E+02 -0.11759593976E+02 -0.27696409454E+02  0.35533662328E+02  0.00000000000E+00 0.  1.
          1    1    6    6  503    0  0.40721040089E+02 -0.21785058661E+03  0.11557677651E+04  0.11768246293E+04  0.00000000000E+00 0. -1.
         -1    1    6    6    0  503  0.17273772055E+02  0.12922372691E+01  0.46278474644E+02  0.49414069794E+02  0.00000000000E+00 0.  1.
<mgrwt>
<rscale>  0 0.13166637E+04</rscale>
<asrwt>0</asrwt>
<pdfrwt beam="1">  1        2 0.19718284E+00 0.13166637E+04</pdfrwt>
<pdfrwt beam="2">  1       -1 0.52022825E-01 0.13166637E+04</pdfrwt>
<totfact> 0.70341457E+01</totfact>
</mgrwt>
</event>
<event>
12    6  0.1553355E-007  0.1082042E+04  0.7818608E-02  0.9222873E-01
          2   -1    0    0  501    0  0.00000000000E+00  0.00000000000E+00  0.12844934351E+04  0.12844934351E+04  0.00000000000E+00 0. -1.
         -1   -1    0    0    0  501 -0.00000000000E+00 -0.00000000000E+00 -0.22787500511E+03  0.22787500511E+03  0.00000000000E+00 0.  1.
         24    2    1    2    0    0  0.48596209427E+02  0.47470348143E+02  0.33067618074E+03  0.34644532090E+03  0.77862688993E+02 0.  0.
        254    2    1    2    0    0 -0.48596209427E+02 -0.47470348143E+02  0.72594224924E+03  0.11659231193E+04  0.90981841340E+03 0.  0.
         23    2    4    4    0    0 -0.27951933551E+02 -0.24020632182E+03  0.86833836518E+03  0.90623651653E+03  0.93662798515E+02 0.  0.
         23    2    4    4    0    0 -0.20644275876E+02  0.19273597367E+03 -0.14239611594E+03  0.25968660277E+03  0.97913922132E+02 0.  0.
          4    1    3    3  502    0  0.21805354153E+02 -0.30630823472E+01  0.22677604514E+03  0.22784255659E+03  0.00000000000E+00 0. -1.
         -3    1    3    3    0  502  0.26790855274E+02  0.50533430490E+02  0.10390013560E+03  0.11860276431E+03  0.00000000000E+00 0.  1.
         11    1    5    5    0    0 -0.55949024608E+02 -0.94265849227E+02  0.32775808070E+03  0.34560338996E+03  0.00000000000E+00 0.  1.
        -11    1    5    5    0    0  0.27997091058E+02 -0.14594047259E+03  0.54058028448E+03  0.56063312658E+03  0.00000000000E+00 0. -1.
          4    1    6    6  503    0 -0.33298032814E+02  0.31905637781E+02 -0.25552107477E+01  0.46187204002E+02  0.00000000000E+00 0. -1.
         -4    1    6    6    0  503  0.12653756938E+02  0.16083033589E+03 -0.13984090519E+03  0.21349939877E+03  0.00000000000E+00 0.  1.
<mgrwt>
<rscale>  0 0.10820424E+04</rscale>
<asrwt>0</asrwt>
<pdfrwt beam="1">  1        2 0.19761437E+00 0.10820424E+04</pdfrwt>
<pdfrwt beam="2">  1       -1 0.35057694E-01 0.10820424E+04</pdfrwt>
<totfact> 0.14778665E+02</totfact>
</mgrwt>
</event>
<event>
12    6  0.1645333E-007  0.2245287E+04  0.7818608E-02  0.8499812E-01
         -1   -1    0    0    0  501 -0.00000000000E+00  0.00000000000E+00  0.79190774885E+03  0.79190774885E+03  0.00000000000E+00 0.  1.
          2   -1    0    0  501    0  0.00000000000E+00 -0.00000000000E+00 -0.15915093896E+04  0.15915093896E+04  0.00000000000E+00 0. -1.
         24    2    1    2    0    0  0.24876019397E+03 -0.64809612186E+03  0.32072140184E+03  0.76893315881E+03  0.80534265044E+02 0.  0.
        254    2    1    2    0    0 -0.24876019397E+03  0.64809612186E+03 -0.11203230426E+04  0.16144839796E+04  0.93248302049E+03 0.  0.
         23    2    4    4    0    0  0.94253609492E+02  0.64257434652E+03 -0.30152626448E+03  0.72199806907E+03  0.92615278739E+02 0.  0.
         23    2    4    4    0    0 -0.34301380346E+03  0.55217753372E+01 -0.81879677810E+03  0.89248591057E+03  0.91727735031E+02 0.  0.
          2    1    3    3  502    0  0.10623898160E+03 -0.25530733965E+03  0.17069655655E+03  0.32497057299E+03  0.00000000000E+00 0. -1.
         -1    1    3    3    0  502  0.14252121237E+03 -0.39278878220E+03  0.15002484529E+03  0.44396258582E+03  0.00000000000E+00 0.  1.
         11    1    5    5    0    0  0.10465009035E+03  0.55291591604E+03 -0.23480328489E+03  0.60975424083E+03  0.00000000000E+00 0.  1.
        -11    1    5    5    0    0 -0.10396480863E+02  0.89658430482E+02 -0.66722979591E+02  0.11224382823E+03  0.00000000000E+00 0. -1.
          3    1    6    6  503    0  0.65545042442E+00  0.10652257337E+02 -0.16313921405E+02  0.19494723215E+02  0.00000000000E+00 0. -1.
         -3    1    6    6    0  503 -0.34366925389E+03 -0.51304820001E+01 -0.80248285670E+03  0.87299118736E+03  0.00000000000E+00 0.  1.
<mgrwt>
<rscale>  0 0.22452872E+04</rscale>
<asrwt>0</asrwt>
<pdfrwt beam="1">  1        2 0.24484760E+00 0.22452872E+04</pdfrwt>
<pdfrwt beam="2">  1       -1 0.12183196E+00 0.22452872E+04</pdfrwt>
<totfact> 0.69748381E+00</totfact>
</mgrwt>
</event>
<event>
12    6  0.1553355E-007  0.2222886E+04  0.7818608E-02  0.8508962E-01
         -1   -1    0    0    0  501 -0.00000000000E+00  0.00000000000E+00  0.85602471705E+03  0.85602471705E+03  0.00000000000E+00 0.  1.
          2   -1    0    0  501    0  0.00000000000E+00 -0.00000000000E+00 -0.14430724774E+04  0.14430724774E+04  0.00000000000E+00 0. -1.
         24    2    1    2    0    0  0.47468299547E+03  0.79740876051E+03 -0.87401452297E+02  0.93542645623E+03  0.78733497532E+02 0.  0.
        254    2    1    2    0    0 -0.47468299547E+03 -0.79740876051E+03 -0.49964630805E+03  0.13636707382E+04  0.86531310612E+03 0.  0.
         23    2    4    4    0    0 -0.40147330626E+03 -0.34476795489E+03 -0.67666263413E+03  0.86384932656E+03  0.91200768742E+02 0.  0.
         23    2    4    4    0    0 -0.73209689211E+02 -0.45264080561E+03  0.17701632608E+03  0.49982141166E+03  0.90792655825E+02 0.  0.
          2    1    3    3  502    0  0.39126924288E+03  0.63978216321E+03 -0.40546256707E+02  0.75103717333E+03  0.00000000000E+00 0. -1.
         -1    1    3    3    0  502  0.83413752590E+02  0.15762659730E+03 -0.46855195590E+02  0.18438928290E+03  0.00000000000E+00 0.  1.
         11    1    5    5    0    0 -0.12377539769E+03 -0.16465483536E+03 -0.26235249668E+03  0.33355718609E+03  0.00000000000E+00 0.  1.
        -11    1    5    5    0    0 -0.27769790857E+03 -0.18011311953E+03 -0.41431013745E+03  0.53029214047E+03  0.00000000000E+00 0. -1.
          2    1    6    6  503    0 -0.32535873700E+02 -0.31450374438E+03  0.79864368510E+02  0.32611271926E+03  0.00000000000E+00 0. -1.
         -2    1    6    6    0  503 -0.40673815511E+02 -0.13813706123E+03  0.97151957570E+02  0.17370869240E+03  0.00000000000E+00 0.  1.
<mgrwt>
<rscale>  0 0.22228862E+04</rscale>
<asrwt>0</asrwt>
<pdfrwt beam="1">  1        2 0.22201115E+00 0.22228862E+04</pdfrwt>
<pdfrwt beam="2">  1       -1 0.13169611E+00 0.22228862E+04</pdfrwt>
<totfact> 0.69753328E+00</totfact>
</mgrwt>
</event>
<event>
12    6  0.1553355E-007  0.1279892E+04  0.7818608E-02  0.9045665E-01
         -1   -1    0    0    0  501 -0.00000000000E+00  0.00000000000E+00  0.61626866814E+03  0.61626866814E+03  0.00000000000E+00 0.  1.
          2   -1    0    0  501    0  0.00000000000E+00 -0.00000000000E+00 -0.66453258969E+03  0.66453258969E+03  0.00000000000E+00 0. -1.
         24    2    1    2    0    0 -0.27810367415E+03 -0.15311248116E+03  0.18194745545E+02  0.32797955942E+03  0.80339636379E+02 0.  0.
        254    2    1    2    0    0  0.27810367415E+03  0.15311248116E+03 -0.66458667093E+02  0.95282169841E+03  0.89591704363E+03 0.  0.
         23    2    4    4    0    0 -0.19551549000E+02  0.47815014498E+03  0.45073148936E+02  0.48908377019E+03  0.90341138422E+02 0.  0.
         23    2    4    4    0    0  0.29765522315E+03 -0.32503766383E+03 -0.11153181603E+03  0.46373792822E+03  0.91462589691E+02 0.  0.
          2    1    3    3  502    0 -0.19069215354E+03 -0.69762382973E+02 -0.12247210285E+02  0.20342143854E+03  0.00000000000E+00 0. -1.
         -1    1    3    3    0  502 -0.87411520610E+02 -0.83350098183E+02  0.30441955830E+02  0.12455812088E+03  0.00000000000E+00 0.  1.
         11    1    5    5    0    0 -0.33963439524E+02  0.37148934711E+03  0.67619090243E+02  0.37911764876E+03  0.00000000000E+00 0. -1.
        -11    1    5    5    0    0  0.14411890523E+02  0.10666079787E+03 -0.22545941307E+02  0.10996612142E+03  0.00000000000E+00 0.  1.
          4    1    6    6  503    0  0.26154057112E+03 -0.25335084576E+03 -0.11909951311E+03  0.38311201418E+03  0.00000000000E+00 0. -1.
         -4    1    6    6    0  503  0.36114652031E+02 -0.71686818070E+02  0.75676970800E+01  0.80625914043E+02  0.00000000000E+00 0.  1.
<mgrwt>
<rscale>  0 0.12798916E+04</rscale>
<asrwt>0</asrwt>
<pdfrwt beam="1">  1        2 0.10223578E+00 0.12798916E+04</pdfrwt>
<pdfrwt beam="2">  1       -1 0.94810564E-01 0.12798916E+04</pdfrwt>
<totfact> 0.52783968E+01</totfact>
</mgrwt>
</event>
<event>
12    6  0.1553355E-007  0.1207352E+04  0.7818608E-02  0.9106445E-01
          2   -1    0    0  501    0  0.00000000000E+00  0.00000000000E+00  0.17474802310E+04  0.17474802310E+04  0.00000000000E+00 0. -1.
         -1   -1    0    0    0  501 -0.00000000000E+00 -0.00000000000E+00 -0.20854311430E+03  0.20854311430E+03  0.00000000000E+00 0.  1.
         24    2    1    2    0    0  0.19205214618E+03  0.14380530758E+03  0.15680616266E+03  0.29805006716E+03  0.81741522780E+02 0.  0.
        254    2    1    2    0    0 -0.19205214618E+03 -0.14380530758E+03  0.13821309540E+04  0.16579732781E+04  0.88375642773E+03 0.  0.
         23    2    4    4    0    0 -0.14001129123E+03 -0.19948027782E+03  0.14821004392E+04  0.15041720184E+04  0.80723020862E+02 0.  0.
         23    2    4    4    0    0 -0.52040854956E+02  0.55674970237E+02 -0.99969485168E+02  0.15380125975E+03  0.88617022299E+02 0.  0.
          2    1    3    3  502    0 -0.12040181424E+01  0.62902786083E+01 -0.72344734987E+01  0.96620324705E+01  0.00000000000E+00 0. -1.
         -1    1    3    3    0  502  0.19325616433E+03  0.13751502897E+03  0.16404063615E+03  0.28838803469E+03  0.00000000000E+00 0.  1.
         11    1    5    5    0    0 -0.13194821678E+03 -0.20417345126E+03  0.14611969087E+04  0.14812810457E+04  0.00000000000E+00 0. -1.
        -11    1    5    5    0    0 -0.80630744505E+01  0.46931734411E+01  0.20903530434E+02  0.22890972700E+02  0.00000000000E+00 0.  1.
          3    1    6    6  503    0  0.42116573303E+01  0.52220764800E+02 -0.76571037313E+02  0.92778607927E+02  0.00000000000E+00 0. -1.
         -3    1    6    6    0  503 -0.56252512286E+02  0.34542054375E+01 -0.23398447855E+02  0.61022651825E+02  0.00000000000E+00 0.  1.
<mgrwt>
<rscale>  0 0.12073524E+04</rscale>
<asrwt>0</asrwt>
<pdfrwt beam="1">  1        2 0.26884310E+00 0.12073524E+04</pdfrwt>
<pdfrwt beam="2">  1       -1 0.32083557E-01 0.12073524E+04</pdfrwt>
<totfact> 0.93978553E+01</totfact>
</mgrwt>
</event>
<event>
12    6  0.1553355E-007  0.2364889E+04  0.7818608E-02  0.8452767E-01
          2   -1    0    0  501    0  0.00000000000E+00  0.00000000000E+00  0.10434758229E+04  0.10434758229E+04  0.00000000000E+00 0. -1.
         -1   -1    0    0    0  501 -0.00000000000E+00 -0.00000000000E+00 -0.13399213306E+04  0.13399213306E+04  0.00000000000E+00 0.  1.
         24    2    1    2    0    0  0.39621448939E+03 -0.71840968924E+02 -0.10664919605E+04  0.11427692350E+04  0.79808372872E+02 0.  0.
        254    2    1    2    0    0 -0.39621448939E+03  0.71840968924E+02  0.77004645280E+03  0.12406279184E+04  0.88545979363E+03 0.  0.
         23    2    4    4    0    0 -0.16082582331E+03 -0.13965219701E+03 -0.14141724414E+03  0.27155397430E+03  0.91515257994E+02 0.  0.
         23    2    4    4    0    0 -0.23538866608E+03  0.21149316594E+03  0.91146369694E+03  0.96907394414E+03  0.90559676552E+02 0.  0.
          4    1    3    3  502    0  0.10336424628E+03 -0.10260661719E+02 -0.18914804569E+03  0.21579256654E+03  0.00000000000E+00 0. -1.
         -3    1    3    3    0  502  0.29285024311E+03 -0.61580307205E+02 -0.87734391478E+03  0.92697666849E+03  0.00000000000E+00 0.  1.
         11    1    5    5    0    0 -0.26904780507E+02 -0.76265453057E+02 -0.30339706016E+02  0.86375831720E+02  0.00000000000E+00 0.  1.
        -11    1    5    5    0    0 -0.13392104280E+03 -0.63386743953E+02 -0.11107753813E+03  0.18517814258E+03  0.00000000000E+00 0. -1.
          2    1    6    6  503    0 -0.75306760548E+02  0.12778433974E+03  0.39519764826E+03  0.42211506353E+03  0.00000000000E+00 0.  1.
         -2    1    6    6    0  503 -0.16008190553E+03  0.83708826194E+02  0.51626604868E+03  0.54695888062E+03  0.00000000000E+00 0. -1.
<mgrwt>
<rscale>  0 0.23648894E+04</rscale>
<asrwt>0</asrwt>
<pdfrwt beam="1">  1        2 0.16053474E+00 0.23648894E+04</pdfrwt>
<pdfrwt beam="2">  1       -1 0.20614174E+00 0.23648894E+04</pdfrwt>
<totfact> 0.33184684E+00</totfact>
</mgrwt>
</event>
<event>
12    6  0.1553355E-007  0.1492785E+04  0.7818608E-02  0.8889265E-01
          2   -1    0    0  501    0  0.00000000000E+00  0.00000000000E+00  0.86857827613E+03  0.86857827613E+03  0.00000000000E+00 0. -1.
         -1   -1    0    0    0  501 -0.00000000000E+00 -0.00000000000E+00 -0.64139514509E+03  0.64139514509E+03  0.00000000000E+00 0.  1.
         24    2    1    2    0    0  0.44674963711E+02 -0.26298359910E+03  0.46255532863E+03  0.53929037654E+03  0.75633672427E+02 0.  0.
        254    2    1    2    0    0 -0.44674963711E+02  0.26298359910E+03 -0.23537219759E+03  0.97068304469E+03  0.90314410593E+03 0.  0.
         23    2    4    4    0    0  0.90190014416E+01 -0.30677299356E+03  0.51678153773E+02  0.32361920476E+03  0.88700316475E+02 0.  0.
         23    2    4    4    0    0 -0.53693965153E+02  0.56975659266E+03 -0.28705035136E+03  0.64706383993E+03  0.93744823657E+02 0.  0.
          4    1    3    3  502    0  0.12398603010E+02 -0.16099553865E+03  0.20913425835E+03  0.26421662862E+03  0.00000000000E+00 0. -1.
         -3    1    3    3    0  502  0.32276360701E+02 -0.10198806045E+03  0.25342107028E+03  0.27507374792E+03  0.00000000000E+00 0.  1.
         11    1    5    5    0    0  0.20721030945E+02 -0.33777510934E+02  0.29640554168E+02  0.49485794120E+02  0.00000000000E+00 0.  1.
        -11    1    5    5    0    0 -0.11702029503E+02 -0.27299548263E+03  0.22037599605E+02  0.27413341064E+03  0.00000000000E+00 0. -1.
          1    1    6    6  503    0 -0.46467348543E+01  0.27968846871E+03 -0.93594964686E+02  0.29496991218E+03  0.00000000000E+00 0. -1.
         -1    1    6    6    0  503 -0.49047230298E+02  0.29006812394E+03 -0.19345538667E+03  0.35209392775E+03  0.00000000000E+00 0.  1.
<mgrwt>
<rscale>  0 0.14927852E+04</rscale>
<asrwt>0</asrwt>
<pdfrwt beam="1">  1        2 0.13362743E+00 0.14927852E+04</pdfrwt>
<pdfrwt beam="2">  1       -1 0.98676177E-01 0.14927852E+04</pdfrwt>
<totfact> 0.33414772E+01</totfact>
</mgrwt>
</event>
<event>
12    6  0.1553355E-007  0.1657879E+04  0.7818608E-02  0.8785759E-01
         -1   -1    0    0    0  501 -0.00000000000E+00  0.00000000000E+00  0.46672304458E+03  0.46672304458E+03  0.00000000000E+00 0.  1.
          2   -1    0    0  501    0  0.00000000000E+00 -0.00000000000E+00 -0.14722658249E+04  0.14722658249E+04  0.00000000000E+00 0. -1.
         24    2    1    2    0    0 -0.57759753372E+03  0.19419745548E+03 -0.41060547545E+03  0.73932699605E+03  0.81706719079E+02 0.  0.
        254    2    1    2    0    0  0.57759753372E+03 -0.19419745548E+03 -0.59493730483E+03  0.11996618734E+04  0.84492996818E+03 0.  0.
         23    2    4    4    0    0  0.49382133496E+03  0.21748653061E+03 -0.53385621502E+03  0.76440265001E+03  0.90272095147E+02 0.  0.
         23    2    4    4    0    0  0.83776198758E+02 -0.41168398609E+03 -0.61081089807E+02  0.43525922339E+03  0.96008000362E+02 0.  0.
          2    1    3    3  502    0 -0.49016131882E+02  0.30076952129E+00 -0.15162669241E+02  0.51308656048E+02  0.00000000000E+00 0. -1.
         -1    1    3    3    0  502 -0.52858140184E+03  0.19389668596E+03 -0.39544280621E+03  0.68801834000E+03  0.00000000000E+00 0.  1.
         11    1    5    5    0    0  0.40581708802E+03  0.18940793116E+03 -0.48409335846E+03  0.65947649922E+03  0.00000000000E+00 0. -1.
        -11    1    5    5    0    0  0.88004246940E+02  0.28078599450E+02 -0.49762856566E+02  0.10492615079E+03  0.00000000000E+00 0.  1.
          1    1    6    6  503    0  0.85491746241E+02 -0.38439577045E+03 -0.31604733329E+02  0.39505418133E+03  0.00000000000E+00 0. -1.
         -1    1    6    6    0  503 -0.17155474827E+01 -0.27288215632E+02 -0.29476356478E+02  0.40205042056E+02  0.00000000000E+00 0.  1.
<mgrwt>
<rscale>  0 0.16578786E+04</rscale>
<asrwt>0</asrwt>
<pdfrwt beam="1">  1        2 0.22650244E+00 0.16578786E+04</pdfrwt>
<pdfrwt beam="2">  1       -1 0.71803544E-01 0.16578786E+04</pdfrwt>
<totfact> 0.28030496E+01</totfact>
</mgrwt>
</event>
<event>
12    6  0.1553355E-007  0.1363833E+04  0.7818608E-02  0.8980422E-01
          2   -1    0    0  501    0  0.00000000000E+00  0.00000000000E+00  0.18868807193E+04  0.18868807193E+04  0.00000000000E+00 0. -1.
         -1   -1    0    0    0  501 -0.00000000000E+00 -0.00000000000E+00 -0.24644377642E+03  0.24644377642E+03  0.00000000000E+00 0.  1.
         24    2    1    2    0    0  0.14588978038E+03 -0.29388584469E+03  0.15816344028E+03  0.37276839340E+03  0.79296176109E+02 0.  0.
        254    2    1    2    0    0 -0.14588978038E+03  0.29388584469E+03  0.14822735026E+04  0.17605561024E+04  0.89149892609E+03 0.  0.
         23    2    4    4    0    0 -0.17271280837E+03 -0.15625256174E+03  0.48508055464E+02  0.25503407113E+03  0.91895422995E+02 0.  0.
         23    2    4    4    0    0  0.26823027982E+02  0.45013840643E+03  0.14337654472E+04  0.15055220312E+04  0.87000972765E+02 0.  0.
          4    1    3    3  502    0  0.33476014682E+01 -0.26347471185E+02  0.38698336217E+02  0.46935667668E+02  0.00000000000E+00 0. -1.
         -3    1    3    3    0  502  0.14254217891E+03 -0.26753837351E+03  0.11946510406E+03  0.32583272573E+03  0.00000000000E+00 0.  1.
         11    1    5    5    0    0 -0.17440791304E+03 -0.16453906602E+03  0.40091667640E+02  0.24310196666E+03  0.00000000000E+00 0. -1.
        -11    1    5    5    0    0  0.16951046788E+01  0.82865042804E+01  0.84163878244E+01  0.11932104470E+02  0.00000000000E+00 0.  1.
          3    1    6    6  503    0  0.58523809632E+02  0.30553613198E+03  0.98781740940E+03  0.10356450157E+04  0.00000000000E+00 0. -1.
         -3    1    6    6    0  503 -0.31700781649E+02  0.14460227445E+03  0.44594803778E+03  0.46987701554E+03  0.00000000000E+00 0.  1.
<mgrwt>
<rscale>  0 0.13638328E+04</rscale>
<asrwt>0</asrwt>
<pdfrwt beam="1">  1        2 0.29028933E+00 0.13638328E+04</pdfrwt>
<pdfrwt beam="2">  1       -1 0.37914428E-01 0.13638328E+04</pdfrwt>
<totfact> 0.57668635E+01</totfact>
</mgrwt>
</event>
<event>
12    6  0.1553355E-007  0.1101252E+04  0.7818608E-02  0.9203972E-01
          2   -1    0    0  501    0  0.00000000000E+00  0.00000000000E+00  0.77505783570E+03  0.77505783570E+03  0.00000000000E+00 0. -1.
         -1   -1    0    0    0  501 -0.00000000000E+00 -0.00000000000E+00 -0.39118261585E+03  0.39118261585E+03  0.00000000000E+00 0.  1.
         24    2    1    2    0    0  0.21775948594E+02  0.15907654455E+03  0.34057212628E+02  0.18256698345E+03  0.79945423571E+02 0.  0.
        254    2    1    2    0    0 -0.21775948594E+02 -0.15907654455E+03  0.34981800723E+03  0.98367346810E+03  0.90524102575E+03 0.  0.
         23    2    4    4    0    0  0.28066969508E+03 -0.29145406477E+03  0.46601691011E+03  0.62256239781E+03  0.81799933068E+02 0.  0.
         23    2    4    4    0    0 -0.30244564367E+03  0.13237752022E+03 -0.11619890288E+03  0.36111107029E+03  0.88892321484E+02 0.  0.
          4    1    3    3  502    0  0.31769653698E+02  0.13453276384E+03  0.55017468695E+02  0.14877935779E+03  0.00000000000E+00 0. -1.
         -3    1    3    3    0  502 -0.99937051034E+01  0.24543780715E+02 -0.20960256068E+02  0.33787625662E+02  0.00000000000E+00 0.  1.
         11    1    5    5    0    0  0.27549664066E+03 -0.28565145699E+03  0.42766941695E+03  0.58343490133E+03  0.00000000000E+00 0. -1.
        -11    1    5    5    0    0  0.51730544204E+01 -0.58026077817E+01  0.38347493162E+02  0.39127496481E+02  0.00000000000E+00 0.  1.
          1    1    6    6  503    0 -0.30307927012E+03  0.13882807079E+03 -0.10750692964E+03  0.35026849292E+03  0.00000000000E+00 0. -1.
         -1    1    6    6    0  503  0.63362644919E+00 -0.64505505629E+01 -0.86919732464E+01  0.10842577367E+02  0.00000000000E+00 0.  1.
<mgrwt>
<rscale>  0 0.11012523E+04</rscale>
<asrwt>0</asrwt>
<pdfrwt beam="1">  1        2 0.11923967E+00 0.11012523E+04</pdfrwt>
<pdfrwt beam="2">  1       -1 0.60181941E-01 0.11012523E+04</pdfrwt>
<totfact> 0.11399776E+02</totfact>
</mgrwt>
</event>
<event>
12    6  0.1553355E-007  0.1390640E+04  0.7818608E-02  0.8960622E-01
          2   -1    0    0  501    0  0.00000000000E+00  0.00000000000E+00  0.10920663954E+04  0.10920663954E+04  0.00000000000E+00 0. -1.
         -1   -1    0    0    0  501 -0.00000000000E+00 -0.00000000000E+00 -0.44271122368E+03  0.44271122368E+03  0.00000000000E+00 0.  1.
         24    2    1    2    0    0 -0.30439572476E+03 -0.61022635814E+02  0.46944551955E+03  0.56806392787E+03  0.77052001840E+02 0.  0.
        254    2    1    2    0    0  0.30439572476E+03  0.61022635814E+02  0.17990965218E+03  0.96671369122E+03  0.89765659275E+03 0.  0.
         23    2    4    4    0    0  0.14815403773E+03 -0.21818490972E+03 -0.28338077652E+03  0.39623121488E+03  0.84499925588E+02 0.  0.
         23    2    4    4    0    0  0.15624168703E+03  0.27920754553E+03  0.46329042870E+03  0.57048247633E+03  0.91890784269E+02 0.  0.
          2    1    3    3  502    0 -0.80425909473E+02  0.14721328327E+01  0.73887704672E+02  0.10922402204E+03  0.00000000000E+00 0. -1.
         -3    1    3    3    0  502 -0.22396981529E+03 -0.62494768647E+02  0.39555781488E+03  0.45883990583E+03  0.00000000000E+00 0.  1.
         11    1    5    5    0    0  0.81329364869E+02 -0.18418787627E+03 -0.21796744234E+03  0.29673126777E+03  0.00000000000E+00 0.  1.
        -11    1    5    5    0    0  0.66824672865E+02 -0.33997033446E+02 -0.65413334178E+02  0.99499947110E+02  0.00000000000E+00 0. -1.
          4    1    6    6  503    0  0.39042283061E+02  0.13928331451E+03  0.25800921914E+03  0.29579198557E+03  0.00000000000E+00 0. -1.
         -4    1    6    6    0  503  0.11719940397E+03  0.13992423102E+03  0.20528120956E+03  0.27469049076E+03  0.00000000000E+00 0.  1.
<mgrwt>
<rscale>  0 0.13906402E+04</rscale>
<asrwt>0</asrwt>
<pdfrwt beam="1">  1        2 0.16801021E+00 0.13906402E+04</pdfrwt>
<pdfrwt beam="2">  1       -1 0.68109420E-01 0.13906402E+04</pdfrwt>
<totfact> 0.53422126E+01</totfact>
</mgrwt>
</event>
<event>
12    6  0.1553355E-007  0.2523892E+04  0.7818608E-02  0.8394523E-01
         -1   -1    0    0    0  501 -0.00000000000E+00  0.00000000000E+00  0.64903231889E+03  0.64903231889E+03  0.00000000000E+00 0.  1.
          2   -1    0    0  501    0  0.00000000000E+00 -0.00000000000E+00 -0.24536643463E+04  0.24536643463E+04  0.00000000000E+00 0. -1.
         24    2    1    2    0    0  0.29819891996E+03 -0.81446303175E+03  0.42922166834E+02  0.87239910026E+03  0.83458083884E+02 0.  0.
        254    2    1    2    0    0 -0.29819891996E+03  0.81446303175E+03 -0.18475541943E+04  0.22302975649E+04  0.89916522480E+03 0.  0.
         23    2    4    4    0    0  0.16735061884E+02  0.10838366998E+03  0.71194866159E+02  0.15958853161E+03  0.91502504012E+02 0.  0.
         23    2    4    4    0    0 -0.31493398184E+03  0.70607936178E+03 -0.19187490604E+04  0.20707090333E+04  0.92230503638E+02 0.  0.
          4    1    3    3  502    0  0.44320427763E+02 -0.96817766987E+02 -0.20856513132E+02  0.10850333848E+03  0.00000000000E+00 0. -1.
         -1    1    3    3    0  502  0.25387849219E+03 -0.71764526477E+03  0.63778679966E+02  0.76389576177E+03  0.00000000000E+00 0.  1.
         11    1    5    5    0    0  0.37918303244E+02  0.10515386361E+03  0.78894496003E+02  0.13681912970E+03  0.00000000000E+00 0.  1.
        -11    1    5    5    0    0 -0.21183241360E+02  0.32298063716E+01 -0.76996298437E+01  0.22769401912E+02  0.00000000000E+00 0. -1.
          2    1    6    6  503    0 -0.19009541219E+03  0.52422202974E+03 -0.14045700413E+04  0.15112120974E+04  0.00000000000E+00 0. -1.
         -2    1    6    6    0  503 -0.12483856965E+03  0.18185733204E+03 -0.51417901909E+03  0.55949693597E+03  0.00000000000E+00 0.  1.
<mgrwt>
<rscale>  0 0.25238918E+04</rscale>
<asrwt>0</asrwt>
<pdfrwt beam="1">  1        2 0.37748683E+00 0.25238918E+04</pdfrwt>
<pdfrwt beam="2">  1       -1 0.99851125E-01 0.25238918E+04</pdfrwt>
<totfact> 0.35844474E+00</totfact>
</mgrwt>
</event>
<event>
12    6  0.1553355E-007  0.2380337E+04  0.7818608E-02  0.8446902E-01
         -1   -1    0    0    0  501 -0.00000000000E+00  0.00000000000E+00  0.94056489394E+03  0.94056489394E+03  0.00000000000E+00 0.  1.
          2   -1    0    0  501    0  0.00000000000E+00 -0.00000000000E+00 -0.15060105668E+04  0.15060105668E+04  0.00000000000E+00 0. -1.
         24    2    1    2    0    0  0.68747281331E+03  0.71150924492E+03 -0.49435573106E+03  0.11093542823E+04  0.86110743225E+02 0.  0.
        254    2    1    2    0    0 -0.68747281331E+03 -0.71150924492E+03 -0.71089941758E+02  0.13372211784E+04  0.89679564314E+03 0.  0.
         23    2    4    4    0    0  0.14135540504E+03 -0.39310961891E+03  0.71638861279E+02  0.43310091292E+03  0.89037920637E+02 0.  0.
         23    2    4    4    0    0 -0.82882821836E+03 -0.31839962601E+03 -0.14272880304E+03  0.90412026551E+03  0.93420586031E+02 0.  0.
          2    1    3    3  502    0  0.32916814468E+03  0.31506380462E+03 -0.27127324196E+03  0.53028863863E+03  0.00000000000E+00 0. -1.
         -1    1    3    3    0  502  0.35830466863E+03  0.39644544030E+03 -0.22308248910E+03  0.57906564364E+03  0.00000000000E+00 0.  1.
         11    1    5    5    0    0  0.12297730536E+03 -0.36897483607E+03  0.42855339333E+02  0.39128305278E+03  0.00000000000E+00 0. -1.
        -11    1    5    5    0    0  0.18378099680E+02 -0.24134782841E+02  0.28783521946E+02  0.41817860135E+02  0.00000000000E+00 0.  1.
          1    1    6    6  503    0 -0.20840659335E+03 -0.10493309791E+03 -0.33270134684E+01  0.23335666309E+03  0.00000000000E+00 0.  1.
         -1    1    6    6    0  503 -0.62042162500E+03 -0.21346652811E+03 -0.13940178957E+03  0.67076360242E+03  0.00000000000E+00 0. -1.
<mgrwt>
<rscale>  0 0.23803367E+04</rscale>
<asrwt>0</asrwt>
<pdfrwt beam="1">  1        2 0.23169393E+00 0.23803367E+04</pdfrwt>
<pdfrwt beam="2">  1       -1 0.14470229E+00 0.23803367E+04</pdfrwt>
<totfact> 0.49643628E+00</totfact>
</mgrwt>
</event>
<event>
12    6  0.1553355E-007  0.3344012E+04  0.7818608E-02  0.8151786E-01
          2   -1    0    0  501    0  0.00000000000E+00  0.00000000000E+00  0.19282058196E+04  0.19282058196E+04  0.00000000000E+00 0. -1.
         -1   -1    0    0    0  501 -0.00000000000E+00 -0.00000000000E+00 -0.14498469792E+04  0.14498469792E+04  0.00000000000E+00 0.  1.
         24    2    1    2    0    0 -0.58540171745E+03  0.14315324428E+04  0.11422427799E+03  0.15528273926E+04  0.79027969167E+02 0.  0.
        254    2    1    2    0    0  0.58540171745E+03 -0.14315324428E+04  0.36413456241E+03  0.18252254062E+04  0.89826137526E+03 0.  0.
         23    2    4    4    0    0  0.67919335315E+03 -0.11682045871E+04  0.56646391910E+03  0.14683084711E+04  0.95093776817E+02 0.  0.
         23    2    4    4    0    0 -0.93791635699E+02 -0.26332785565E+03 -0.20232935669E+03  0.35691693504E+03  0.91181683762E+02 0.  0.
          2    1    3    3  502    0 -0.16817336815E+03  0.50704114658E+03  0.29569913217E+02  0.53502092095E+03  0.00000000000E+00 0. -1.
         -1    1    3    3    0  502 -0.41722834930E+03  0.92449129619E+03  0.84654364774E+02  0.10178064716E+04  0.00000000000E+00 0.  1.
         11    1    5    5    0    0  0.39358326473E+02 -0.12245675817E+03  0.49982991072E+02  0.13799650314E+03  0.00000000000E+00 0. -1.
        -11    1    5    5    0    0  0.63983502668E+03 -0.10457478290E+04  0.51648092803E+03  0.13303119680E+04  0.00000000000E+00 0.  1.
          1    1    6    6  503    0  0.38143255881E+01  0.28002796410E+01  0.40946876941E+01  0.62575644680E+01  0.00000000000E+00 0. -1.
         -1    1    6    6    0  503 -0.97605961287E+02 -0.26612813529E+03 -0.20642404439E+03  0.35065937058E+03  0.00000000000E+00 0.  1.
<mgrwt>
<rscale>  0 0.33440116E+04</rscale>
<asrwt>0</asrwt>
<pdfrwt beam="1">  1        2 0.29664705E+00 0.33440116E+04</pdfrwt>
<pdfrwt beam="2">  1       -1 0.22305338E+00 0.33440116E+04</pdfrwt>
<totfact> 0.72807938E-01</totfact>
</mgrwt>
</event>
<event>
12    6  0.1553355E-007  0.2386094E+04  0.7818608E-02  0.8444728E-01
          4   -1    0    0  501    0  0.00000000000E+00  0.00000000000E+00  0.68297510753E+03  0.68297510753E+03  0.00000000000E+00 0. -1.
         -3   -1    0    0    0  501 -0.00000000000E+00 -0.00000000000E+00 -0.20840596439E+04  0.20840596439E+04  0.00000000000E+00 0.  1.
         24    2    1    2    0    0  0.62869956113E+02 -0.36121558983E+03  0.50386421419E+03  0.62837116871E+03  0.80881676560E+02 0.  0.
        254    2    1    2    0    0 -0.62869956113E+02  0.36121558983E+03 -0.19049487506E+04  0.21386635827E+04  0.90034595799E+03 0.  0.
         23    2    4    4    0    0  0.33505862768E+03  0.15176967575E+03 -0.34532467166E+03  0.51288365492E+03  0.92207354172E+02 0.  0.
         23    2    4    4    0    0 -0.39792858380E+03  0.20944591407E+03 -0.15596240789E+04  0.16257799278E+04  0.92294947967E+02 0.  0.
          4    1    3    3  502    0  0.53713253974E+02 -0.16831601125E+03  0.18674560530E+03  0.25707842071E+03  0.00000000000E+00 0. -1.
         -3    1    3    3    0  502  0.91567021390E+01 -0.19289957857E+03  0.31711860889E+03  0.37129274800E+03  0.00000000000E+00 0.  1.
         11    1    5    5    0    0  0.19144463870E+03  0.36914506329E+02 -0.16675199562E+03  0.25655400700E+03  0.00000000000E+00 0.  1.
        -11    1    5    5    0    0  0.14361398899E+03  0.11485516942E+03 -0.17857267604E+03  0.25632964792E+03  0.00000000000E+00 0. -1.
          1    1    6    6  503    0 -0.36991704544E+03  0.16243175583E+03 -0.13924864956E+04  0.14499108029E+04  0.00000000000E+00 0. -1.
         -1    1    6    6    0  503 -0.28011538357E+02  0.47014158244E+02 -0.16713758331E+03  0.17586912495E+03  0.00000000000E+00 0.  1.
<mgrwt>
<rscale>  0 0.23860938E+04</rscale>
<asrwt>0</asrwt>
<pdfrwt beam="1">  1        4 0.10507309E+00 0.23860938E+04</pdfrwt>
<pdfrwt beam="2">  1       -3 0.32062456E+00 0.23860938E+04</pdfrwt>
<totfact> 0.43981374E-02</totfact>
</mgrwt>
</event>
<event>
12    6  0.1553355E-007  0.1305718E+04  0.7818608E-02  0.9025043E-01
          2   -1    0    0  501    0  0.00000000000E+00  0.00000000000E+00  0.12867479492E+04  0.12867479492E+04  0.00000000000E+00 0. -1.
         -1   -1    0    0    0  501 -0.00000000000E+00 -0.00000000000E+00 -0.33124187946E+03  0.33124187946E+03  0.00000000000E+00 0.  1.
         24    2    1    2    0    0 -0.29593280177E+03  0.58854231089E+02  0.39191844406E+03  0.50121679080E+03  0.81105862353E+02 0.  0.
        254    2    1    2    0    0  0.29593280177E+03 -0.58854231089E+02  0.56358762569E+03  0.11167730379E+04  0.91570244218E+03 0.  0.
         23    2    4    4    0    0 -0.32085138791E+03  0.11570505947E+02  0.20084102378E+03  0.39234551798E+03  0.10255924590E+03 0.  0.
         23    2    4    4    0    0  0.61678418968E+03 -0.70424737037E+02  0.36274660191E+03  0.72442751989E+03  0.88474596079E+02 0.  0.
          4    1    3    3  502    0 -0.27320165349E+03  0.44898499012E+02  0.38397955096E+03  0.47338706598E+03  0.00000000000E+00 0. -1.
         -3    1    3    3    0  502 -0.22731148285E+02  0.13955732077E+02  0.79388931002E+01  0.27829724824E+02  0.00000000000E+00 0.  1.
         11    1    5    5    0    0 -0.34327258955E+02  0.23751791335E+02  0.59344619887E+02  0.72555442308E+02  0.00000000000E+00 0.  1.
        -11    1    5    5    0    0 -0.28652412895E+03 -0.12181285388E+02  0.14149640389E+03  0.31979007567E+03  0.00000000000E+00 0. -1.
          3    1    6    6  503    0  0.17037304146E+03 -0.16036950853E+02  0.14721108715E+03  0.22573272077E+03  0.00000000000E+00 0. -1.
         -3    1    6    6    0  503  0.44641114822E+03 -0.54387786183E+02  0.21553551476E+03  0.49869479912E+03  0.00000000000E+00 0.  1.
<mgrwt>
<rscale>  0 0.13057179E+04</rscale>
<asrwt>0</asrwt>
<pdfrwt beam="1">  1        2 0.19796122E+00 0.13057179E+04</pdfrwt>
<pdfrwt beam="2">  1       -1 0.50960290E-01 0.13057179E+04</pdfrwt>
<totfact> 0.72734702E+01</totfact>
</mgrwt>
</event>
<event>
12    6  0.1553355E-007  0.1595464E+04  0.7818608E-02  0.8823339E-01
         -1   -1    0    0    0  501 -0.00000000000E+00  0.00000000000E+00  0.13535823263E+03  0.13535823263E+03  0.00000000000E+00 0.  1.
          2   -1    0    0  501    0  0.00000000000E+00 -0.00000000000E+00 -0.47014233348E+04  0.47014233348E+04  0.00000000000E+00 0. -1.
         24    2    1    2    0    0 -0.70911995534E+01 -0.25896311291E+03 -0.30281039470E+04  0.30402308219E+04  0.80484516670E+02 0.  0.
        254    2    1    2    0    0  0.70911995534E+01  0.25896311291E+03 -0.15379611551E+04  0.17965507455E+04  0.89171625957E+03 0.  0.
         23    2    4    4    0    0  0.37444719905E+03  0.46671767129E+02 -0.11537310906E+04  0.12171570613E+04  0.89369590224E+02 0.  0.
         23    2    4    4    0    0 -0.36735599950E+03  0.21229134578E+03 -0.38423006447E+03  0.57939368420E+03  0.89700908506E+02 0.  0.
          2    1    3    3  502    0 -0.12894809315E+02 -0.11400151191E+03 -0.17864014953E+04  0.17900818203E+04  0.00000000000E+00 0. -1.
         -1    1    3    3    0  502  0.58036097619E+01 -0.14496160100E+03 -0.12417024517E+04  0.12501490016E+04  0.00000000000E+00 0.  1.
         11    1    5    5    0    0  0.35094301125E+03  0.56863334412E+02 -0.10002570025E+04  0.10615594693E+04  0.00000000000E+00 0. -1.
        -11    1    5    5    0    0  0.23504187802E+02 -0.10191567283E+02 -0.15347408817E+03  0.15559759197E+03  0.00000000000E+00 0.  1.
          4    1    6    6  503    0 -0.30540682013E+03  0.20978746528E+03 -0.31364258778E+03  0.48544389917E+03  0.00000000000E+00 0. -1.
         -4    1    6    6    0  503 -0.61949179364E+02  0.25038805010E+01 -0.70587476690E+02  0.93949785029E+02  0.00000000000E+00 0.  1.
<mgrwt>
<rscale>  0 0.15954640E+04</rscale>
<asrwt>0</asrwt>
<pdfrwt beam="1">  1        2 0.72329599E+00 0.15954640E+04</pdfrwt>
<pdfrwt beam="2">  1       -1 0.20824341E-01 0.15954640E+04</pdfrwt>
<totfact> 0.16551072E+00</totfact>
</mgrwt>
</event>
<event>
12    6  0.1553355E-007  0.1649851E+04  0.7818608E-02  0.8790495E-01
          2   -1    0    0  501    0  0.00000000000E+00  0.00000000000E+00  0.32467253326E+04  0.32467253326E+04  0.00000000000E+00 0. -1.
         -1   -1    0    0    0  501 -0.00000000000E+00 -0.00000000000E+00 -0.20959646398E+03  0.20959646398E+03  0.00000000000E+00 0.  1.
         24    2    1    2    0    0  0.24546734800E+03 -0.24662439907E+03  0.11444721870E+03  0.37450806014E+03  0.77976330329E+02 0.  0.
        254    2    1    2    0    0 -0.24546734800E+03  0.24662439907E+03  0.29226816499E+04  0.30818137364E+04  0.91347143699E+03 0.  0.
         23    2    4    4    0    0  0.26467130344E+03  0.26819916700E+02  0.35600085462E+03  0.45408566765E+03  0.93203960616E+02 0.  0.
         23    2    4    4    0    0 -0.51013865144E+03  0.21980448237E+03  0.25666807953E+04  0.26277280688E+04  0.92461042681E+02 0.  0.
          2    1    3    3  502    0  0.88406668992E+02 -0.14398834909E+03  0.53043492009E+02  0.17709318406E+03  0.00000000000E+00 0. -1.
         -3    1    3    3    0  502  0.15706067901E+03 -0.10263604997E+03  0.61403726695E+02  0.19741487608E+03  0.00000000000E+00 0.  1.
         11    1    5    5    0    0  0.24549923161E+03  0.16275488287E+02  0.26974895087E+03  0.36510171286E+03  0.00000000000E+00 0.  1.
        -11    1    5    5    0    0  0.19172071836E+02  0.10544428412E+02  0.86251903746E+02  0.88983954783E+02  0.00000000000E+00 0. -1.
          3    1    6    6  503    0 -0.29592317961E+02  0.40615060839E+02  0.22930913761E+03  0.23475086590E+03  0.00000000000E+00 0. -1.
         -3    1    6    6    0  503 -0.48054633348E+03  0.17918942153E+03  0.23373716577E+04  0.23929772029E+04  0.00000000000E+00 0.  1.
<mgrwt>
<rscale>  0 0.16498511E+04</rscale>
<asrwt>0</asrwt>
<pdfrwt beam="1">  1        2 0.49949617E+00 0.16498511E+04</pdfrwt>
<pdfrwt beam="2">  1       -1 0.32245612E-01 0.16498511E+04</pdfrwt>
<totfact> 0.11898237E+01</totfact>
</mgrwt>
</event>
<event>
12    6  0.1553355E-007  0.2607549E+04  0.7818608E-02  0.8365641E-01
          2   -1    0    0  501    0  0.00000000000E+00  0.00000000000E+00  0.11041624359E+04  0.11041624359E+04  0.00000000000E+00 0. -1.
         -1   -1    0    0    0  501 -0.00000000000E+00 -0.00000000000E+00 -0.15394730676E+04  0.15394730676E+04  0.00000000000E+00 0.  1.
         24    2    1    2    0    0 -0.76985533231E+03 -0.82802089438E+03 -0.89694728818E+01  0.11341509401E+04  0.89006006374E+02 0.  0.
        254    2    1    2    0    0  0.76985533231E+03  0.82802089438E+03 -0.42634115879E+03  0.15094845634E+04  0.90469941376E+03 0.  0.
         23    2    4    4    0    0  0.17410435968E+03  0.79374273022E+03 -0.38834758820E+03  0.90502333876E+03  0.88958105901E+02 0.  0.
         23    2    4    4    0    0  0.59575097263E+03  0.34278164161E+02 -0.37993570594E+02  0.60446122464E+03  0.88519188672E+02 0.  0.
          2    1    3    3  502    0 -0.49103576739E+03 -0.58499576916E+03  0.94932519311E+01  0.76382347216E+03  0.00000000000E+00 0. -1.
         -1    1    3    3    0  502 -0.27881956492E+03 -0.24302512522E+03 -0.18462724813E+02  0.37032746790E+03  0.00000000000E+00 0.  1.
         11    1    5    5    0    0  0.16652637708E+03  0.76848088328E+03 -0.39162921689E+03  0.87844598340E+03  0.00000000000E+00 0. -1.
        -11    1    5    5    0    0  0.75779826077E+01  0.25261846942E+02  0.32816286894E+01  0.26577355365E+02  0.00000000000E+00 0.  1.
          2    1    6    6  503    0  0.56900089346E+03  0.25425502177E+02 -0.17893229598E+02  0.56984966490E+03  0.00000000000E+00 0. -1.
         -2    1    6    6    0  503  0.26750079167E+02  0.88526619845E+01 -0.20100340996E+02  0.34611559742E+02  0.00000000000E+00 0.  1.
<mgrwt>
<rscale>  0 0.26075493E+04</rscale>
<asrwt>0</asrwt>
<pdfrwt beam="1">  1        2 0.16987114E+00 0.26075493E+04</pdfrwt>
<pdfrwt beam="2">  1       -1 0.23684201E+00 0.26075493E+04</pdfrwt>
<totfact> 0.18558680E+00</totfact>
</mgrwt>
</event>
<event>
12    6  0.1553355E-007  0.1361714E+04  0.7818608E-02  0.8982008E-01
          2   -1    0    0  501    0  0.00000000000E+00  0.00000000000E+00  0.22261624224E+04  0.22261624224E+04  0.00000000000E+00 0. -1.
         -1   -1    0    0    0  501 -0.00000000000E+00 -0.00000000000E+00 -0.20823560334E+03  0.20823560334E+03  0.00000000000E+00 0.  1.
         24    2    1    2    0    0  0.25895119968E+03  0.89570203855E+01  0.10442382442E+04  0.10787951545E+04  0.78927325779E+02 0.  0.
        254    2    1    2    0    0 -0.25895119968E+03 -0.89570203855E+01  0.97368857491E+03  0.13556028712E+04  0.90689235944E+03 0.  0.
         23    2    4    4    0    0  0.18752163321E+03 -0.39779976419E+02  0.85866871677E+03  0.88454779589E+03  0.91465996954E+02 0.  0.
         23    2    4    4    0    0 -0.44647283289E+03  0.30822956033E+02  0.11501985813E+03  0.47105507536E+03  0.91516507407E+02 0.  0.
          4    1    3    3  502    0  0.23588578635E+03 -0.41794242771E+00  0.82229458975E+03  0.85545933347E+03  0.00000000000E+00 0. -1.
         -3    1    3    3    0  502  0.23065413326E+02  0.93749628133E+01  0.22194365446E+03  0.22333582107E+03  0.00000000000E+00 0.  1.
         11    1    5    5    0    0  0.12977319961E+03 -0.63016651995E+02  0.68589935399E+03  0.70090663113E+03  0.00000000000E+00 0. -1.
        -11    1    5    5    0    0  0.57748433599E+02  0.23236675576E+02  0.17276936279E+03  0.18364116475E+03  0.00000000000E+00 0.  1.
          3    1    6    6  503    0 -0.32045659765E+03  0.56470067546E+02  0.58623264300E+02  0.33063270652E+03  0.00000000000E+00 0. -1.
         -3    1    6    6    0  503 -0.12601623525E+03 -0.25647111513E+02  0.56396593834E+02  0.14042236884E+03  0.00000000000E+00 0.  1.
<mgrwt>
<rscale>  0 0.13617140E+04</rscale>
<asrwt>0</asrwt>
<pdfrwt beam="1">  1        2 0.34248651E+00 0.13617140E+04</pdfrwt>
<pdfrwt beam="2">  1       -1 0.32036248E-01 0.13617140E+04</pdfrwt>
<totfact> 0.50516450E+01</totfact>
</mgrwt>
</event>
<event>
12    6  0.1553355E-007  0.1764082E+04  0.7818608E-02  0.8725637E-01
          2   -1    0    0  501    0  0.00000000000E+00  0.00000000000E+00  0.11436970665E+04  0.11436970665E+04  0.00000000000E+00 0. -1.
         -1   -1    0    0    0  501 -0.00000000000E+00 -0.00000000000E+00 -0.68024718077E+03  0.68024718077E+03  0.00000000000E+00 0.  1.
         24    2    1    2    0    0 -0.47987408167E+03  0.18743491942E+03 -0.23409227029E+03  0.57146580956E+03  0.79768397327E+02 0.  0.
        254    2    1    2    0    0  0.47987408167E+03 -0.18743491942E+03  0.69754215599E+03  0.12524784377E+04  0.90372904909E+03 0.  0.
         23    2    4    4    0    0  0.73394062283E+03 -0.21587217495E+03  0.52017189063E+03  0.92981382336E+03  0.93302285834E+02 0.  0.
         23    2    4    4    0    0 -0.25406654117E+03  0.28437255537E+02  0.17737026536E+03  0.32266461431E+03  0.85403497899E+02 0.  0.
          4    1    3    3  502    0 -0.41235718739E+02 -0.19442968256E+01 -0.49271074768E+01  0.41574525592E+02  0.00000000000E+00 0. -1.
         -3    1    3    3    0  502 -0.43863836293E+03  0.18937921624E+03 -0.22916516282E+03  0.52989128397E+03  0.00000000000E+00 0.  1.
         11    1    5    5    0    0  0.63786335933E+03 -0.15497748082E+03  0.45530758272E+03  0.79886962617E+03  0.00000000000E+00 0.  1.
        -11    1    5    5    0    0  0.96077263503E+02 -0.60894694136E+02  0.64864307907E+02  0.13094419719E+03  0.00000000000E+00 0. -1.
          3    1    6    6  503    0 -0.75821215857E+02 -0.22772452447E+02  0.82543678948E+02  0.11437176356E+03  0.00000000000E+00 0. -1.
         -3    1    6    6    0  503 -0.17824532531E+03  0.51209707984E+02  0.94826586414E+02  0.20829285076E+03  0.00000000000E+00 0.  1.
<mgrwt>
<rscale>  0 0.17640824E+04</rscale>
<asrwt>0</asrwt>
<pdfrwt beam="1">  1        2 0.17595339E+00 0.17640824E+04</pdfrwt>
<pdfrwt beam="2">  1       -1 0.10465341E+00 0.17640824E+04</pdfrwt>
<totfact> 0.18976305E+01</totfact>
</mgrwt>
</event>
<event>
12    6  0.1553355E-007  0.3009784E+04  0.7818608E-02  0.8240942E-01
          2   -1    0    0  501    0  0.00000000000E+00  0.00000000000E+00  0.15107736254E+04  0.15107736254E+04  0.00000000000E+00 0. -1.
         -1   -1    0    0    0  501 -0.00000000000E+00 -0.00000000000E+00 -0.14990335193E+04  0.14990335193E+04  0.00000000000E+00 0.  1.
         24    2    1    2    0    0 -0.51252615671E+03  0.83148600697E+03  0.96546879064E+03  0.13757056567E+04  0.79900106889E+02 0.  0.
        254    2    1    2    0    0  0.51252615671E+03 -0.83148600697E+03 -0.95372868446E+03  0.16341014880E+04  0.89812985050E+03 0.  0.
         23    2    4    4    0    0  0.43805716843E+03 -0.90386504695E+03 -0.10572908914E+04  0.14611714739E+04  0.91060096966E+02 0.  0.
         23    2    4    4    0    0  0.74468988279E+02  0.72379039979E+02  0.10356220689E+03  0.17293001409E+03  0.91625888456E+02 0.  0.
          2    1    3    3  502    0 -0.49913457761E+03  0.78584496766E+03  0.93364321299E+03  0.13184753653E+04  0.00000000000E+00 0. -1.
         -1    1    3    3    0  502 -0.13391579095E+02  0.45641039313E+02  0.31825577654E+02  0.57230291396E+02  0.00000000000E+00 0.  1.
         11    1    5    5    0    0  0.70220316014E+02 -0.10833618153E+03 -0.17579237971E+03  0.21810681276E+03  0.00000000000E+00 0.  1.
        -11    1    5    5    0    0  0.36783685241E+03 -0.79552886542E+03 -0.88149851165E+03  0.12430646611E+04  0.00000000000E+00 0. -1.
          1    1    6    6  503    0  0.21109763560E+02  0.68778381340E+02  0.94367635610E+02  0.11866481580E+03  0.00000000000E+00 0. -1.
         -1    1    6    6    0  503  0.53359224720E+02  0.36006586387E+01  0.91945712786E+01  0.54265198298E+02  0.00000000000E+00 0.  1.
<mgrwt>
<rscale>  0 0.30097842E+04</rscale>
<asrwt>0</asrwt>
<pdfrwt beam="1">  1        2 0.23242671E+00 0.30097842E+04</pdfrwt>
<pdfrwt beam="2">  1       -1 0.23062054E+00 0.30097842E+04</pdfrwt>
<totfact> 0.11398328E+00</totfact>
</mgrwt>
</event>
<event>
12    6  0.1553355E-007  0.1475357E+04  0.7818608E-02  0.8901008E-01
         -1   -1    0    0    0  501 -0.00000000000E+00  0.00000000000E+00  0.32285049595E+03  0.32285049595E+03  0.00000000000E+00 0.  1.
          2   -1    0    0  501    0  0.00000000000E+00 -0.00000000000E+00 -0.16855148160E+04  0.16855148160E+04  0.00000000000E+00 0. -1.
         24    2    1    2    0    0 -0.50757490711E+02 -0.65656408417E+02 -0.10420840410E+04  0.10485476066E+04  0.81399312511E+02 0.  0.
        254    2    1    2    0    0  0.50757490711E+02  0.65656408417E+02 -0.32058027909E+03  0.95981770534E+03  0.90088358033E+03 0.  0.
         23    2    4    4    0    0  0.27100054031E+01 -0.27151582602E+03 -0.49045483728E+03  0.56805381696E+03  0.91711524015E+02 0.  0.
         23    2    4    4    0    0  0.48047485308E+02  0.33717223444E+03  0.16987455819E+03  0.39176388838E+03  0.92886501679E+02 0.  0.
          2    1    3    3  502    0  0.10457022582E+02 -0.27248383548E+02 -0.59023368347E+03  0.59095484161E+03  0.00000000000E+00 0. -1.
         -1    1    3    3    0  502 -0.61214513293E+02 -0.38408024869E+02 -0.45185035753E+03  0.45759276504E+03  0.00000000000E+00 0.  1.
         11    1    5    5    0    0  0.51098337470E+01 -0.26560626021E+03 -0.41770897365E+03  0.49502887041E+03  0.00000000000E+00 0. -1.
        -11    1    5    5    0    0 -0.23998283439E+01 -0.59095658136E+01 -0.72745863623E+02  0.73024946549E+02  0.00000000000E+00 0.  1.
          3    1    6    6  503    0  0.54823925612E+02  0.33542766413E+03  0.15152471414E+03  0.37212513981E+03  0.00000000000E+00 0. -1.
         -3    1    6    6    0  503 -0.67764403039E+01  0.17445703131E+01  0.18349844048E+02  0.19638748569E+02  0.00000000000E+00 0.  1.
<mgrwt>
<rscale>  0 0.14753566E+04</rscale>
<asrwt>0</asrwt>
<pdfrwt beam="1">  1        2 0.25930997E+00 0.14753566E+04</pdfrwt>
<pdfrwt beam="2">  1       -1 0.49669308E-01 0.14753566E+04</pdfrwt>
<totfact> 0.44783637E+01</totfact>
</mgrwt>
</event>
<event>
12    6  0.1553355E-007  0.1345207E+04  0.7818608E-02  0.8994465E-01
         -1   -1    0    0    0  501 -0.00000000000E+00  0.00000000000E+00  0.69234684611E+03  0.69234684611E+03  0.00000000000E+00 0.  1.
          2   -1    0    0  501    0  0.00000000000E+00 -0.00000000000E+00 -0.65342272887E+03  0.65342272887E+03  0.00000000000E+00 0. -1.
         24    2    1    2    0    0  0.31674746516E+03  0.54803785070E+02  0.26052758488E+03  0.42123308011E+03  0.78932083192E+02 0.  0.
        254    2    1    2    0    0 -0.31674746516E+03 -0.54803785070E+02 -0.22160346764E+03  0.92453649487E+03  0.83804965362E+03 0.  0.
         23    2    4    4    0    0 -0.51218342857E+03 -0.16016484898E+03 -0.35543102049E+03  0.65020225578E+03  0.91908213701E+02 0.  0.
         23    2    4    4    0    0  0.19543596341E+03  0.10536106391E+03  0.13382755285E+03  0.27433423909E+03  0.89740131762E+02 0.  0.
          4    1    3    3  502    0  0.34874152003E+02 -0.47111676798E+01  0.62243850478E+02  0.71503136303E+02  0.00000000000E+00 0. -1.
         -3    1    3    3    0  502  0.28187331315E+03  0.59514952750E+02  0.19828373440E+03  0.34972994381E+03  0.00000000000E+00 0.  1.
         11    1    5    5    0    0 -0.49677748320E+03 -0.13481950636E+03 -0.33800943367E+03  0.61580398209E+03  0.00000000000E+00 0.  1.
        -11    1    5    5    0    0 -0.15405945371E+02 -0.25345342628E+02 -0.17421586827E+02  0.34398273696E+02  0.00000000000E+00 0. -1.
          4    1    6    6  503    0  0.15511330257E+02  0.47234776628E+02  0.36485524616E+02  0.61667811668E+02  0.00000000000E+00 0. -1.
         -4    1    6    6    0  503  0.17992463315E+03  0.58126287285E+02  0.97342028237E+02  0.21266642742E+03  0.00000000000E+00 0.  1.
<mgrwt>
<rscale>  0 0.13452065E+04</rscale>
<asrwt>0</asrwt>
<pdfrwt beam="1">  1        2 0.10052657E+00 0.13452065E+04</pdfrwt>
<pdfrwt beam="2">  1       -1 0.10651490E+00 0.13452065E+04</pdfrwt>
<totfact> 0.41075497E+01</totfact>
</mgrwt>
</event>
<event>
12    6  0.1553355E-007  0.2311123E+04  0.7818608E-02  0.8473548E-01
         -1   -1    0    0    0  501 -0.00000000000E+00  0.00000000000E+00  0.52716595684E+03  0.52716595684E+03  0.00000000000E+00 0.  1.
          2   -1    0    0  501    0  0.00000000000E+00 -0.00000000000E+00 -0.25330209446E+04  0.25330209446E+04  0.00000000000E+00 0. -1.
         24    2    1    2    0    0 -0.50328122860E+03  0.75312625304E+03 -0.13550478837E+04  0.16319722486E+04  0.81777165539E+02 0.  0.
        254    2    1    2    0    0  0.50328122860E+03 -0.75312625304E+03 -0.65080710399E+03  0.14282146528E+04  0.89205160160E+03 0.  0.
         23    2    4    4    0    0  0.11086949350E+03 -0.22477376807E+03 -0.71282965231E+03  0.76090337474E+03  0.89624444645E+02 0.  0.
         23    2    4    4    0    0  0.39241173510E+03 -0.52835248497E+03  0.62022548318E+02  0.66731127811E+03  0.91182384087E+02 0.  0.
          2    1    3    3  502    0 -0.44078465710E+03  0.67215037061E+03 -0.12431110212E+04  0.14803385578E+04  0.00000000000E+00 0. -1.
         -1    1    3    3    0  502 -0.62496571503E+02  0.80975882431E+02 -0.11193686251E+03  0.15163369076E+03  0.00000000000E+00 0.  1.
         11    1    5    5    0    0 -0.80031400140E+01  0.32732012951E+01 -0.31127813510E+02  0.32306421509E+02  0.00000000000E+00 0.  1.
        -11    1    5    5    0    0  0.11887263352E+03 -0.22804696936E+03 -0.68170183880E+03  0.72859695323E+03  0.00000000000E+00 0. -1.
          2    1    6    6  503    0  0.38519618109E+03 -0.52355515583E+03  0.72151757292E+02  0.65398163216E+03  0.00000000000E+00 0. -1.
         -2    1    6    6    0  503  0.72155540132E+01 -0.47973291374E+01 -0.10129208974E+02  0.13329645944E+02  0.00000000000E+00 0.  1.
<mgrwt>
<rscale>  0 0.23111230E+04</rscale>
<asrwt>0</asrwt>
<pdfrwt beam="1">  1        2 0.38969552E+00 0.23111230E+04</pdfrwt>
<pdfrwt beam="2">  1       -1 0.81102458E-01 0.23111230E+04</pdfrwt>
<totfact> 0.51997424E+00</totfact>
</mgrwt>
</event>
<event>
12    6  0.1553355E-007  0.2858313E+04  0.7818608E-02  0.8285390E-01
          2   -1    0    0  501    0  0.00000000000E+00  0.00000000000E+00  0.10795094525E+04  0.10795094525E+04  0.00000000000E+00 0. -1.
         -1   -1    0    0    0  501 -0.00000000000E+00 -0.00000000000E+00 -0.18920524351E+04  0.18920524351E+04  0.00000000000E+00 0.  1.
         24    2    1    2    0    0  0.33758450699E+02  0.20475076462E+03 -0.16947002023E+04  0.17092471254E+04  0.80339601565E+02 0.  0.
        254    2    1    2    0    0 -0.33758450699E+02 -0.20475076462E+03  0.88215721969E+03  0.12623147622E+04  0.87873470969E+03 0.  0.
         23    2    4    4    0    0 -0.15223739407E+02  0.24722241490E+03  0.72971302528E+03  0.77603201669E+03  0.91618267802E+02 0.  0.
         23    2    4    4    0    0 -0.18534711292E+02 -0.45197317952E+03  0.15244419440E+03  0.48628274551E+03  0.92781386297E+02 0.  0.
          4    1    3    3  502    0  0.13152396866E+02  0.13735753470E+03 -0.80325650292E+03  0.81502213918E+03  0.00000000000E+00 0. -1.
         -3    1    3    3    0  502  0.20606053833E+02  0.67393229920E+02 -0.89144369936E+03  0.89422498625E+03  0.00000000000E+00 0.  1.
         11    1    5    5    0    0  0.26757310554E+02  0.13269543028E+03  0.46991328830E+03  0.48902201322E+03  0.00000000000E+00 0. -1.
        -11    1    5    5    0    0 -0.41981049962E+02  0.11452698462E+03  0.25979973698E+03  0.28701000348E+03  0.00000000000E+00 0.  1.
          2    1    6    6  503    0  0.53480612671E+01 -0.26944760022E+03  0.13486963267E+03  0.30136427930E+03  0.00000000000E+00 0.  1.
         -2    1    6    6    0  503 -0.23882772559E+02 -0.18252557930E+03  0.17574561738E+02  0.18491846620E+03  0.00000000000E+00 0. -1.
<mgrwt>
<rscale>  0 0.28583131E+04</rscale>
<asrwt>0</asrwt>
<pdfrwt beam="1">  1        2 0.16607838E+00 0.28583131E+04</pdfrwt>
<pdfrwt beam="2">  1       -1 0.29108499E+00 0.28583131E+04</pdfrwt>
<totfact> 0.83515088E-01</totfact>
</mgrwt>
</event>
<event>
12    6  0.1553355E-007  0.1268447E+04  0.7818608E-02  0.9054968E-01
          2   -1    0    0  501    0  0.00000000000E+00  0.00000000000E+00  0.22272294761E+04  0.22272294761E+04  0.00000000000E+00 0. -1.
         -1   -1    0    0    0  501 -0.00000000000E+00 -0.00000000000E+00 -0.18060078880E+03  0.18060078880E+03  0.00000000000E+00 0.  1.
         24    2    1    2    0    0  0.93711475444E+02  0.22168944027E+03  0.99714634644E+03  0.10284406915E+04  0.73901090248E+02 0.  0.
        254    2    1    2    0    0 -0.93711475444E+02 -0.22168944027E+03  0.10494823409E+04  0.13793895735E+04  0.86219160454E+03 0.  0.
         23    2    4    4    0    0 -0.38768369731E+02 -0.15321855522E+03 -0.10988993422E+03  0.21269528537E+03  0.90468638881E+02 0.  0.
         23    2    4    4    0    0 -0.54943105713E+02 -0.68470885048E+02  0.11593722751E+04  0.11666942881E+04  0.96563360253E+02 0.  0.
          4    1    3    3  502    0  0.29940370051E+02  0.16091743228E+03  0.64600440195E+03  0.66641768667E+03  0.00000000000E+00 0. -1.
         -3    1    3    3    0  502  0.63771105393E+02  0.60772007985E+02  0.35114194449E+03  0.36202300482E+03  0.00000000000E+00 0.  1.
         11    1    5    5    0    0 -0.33301872762E+02 -0.92832744302E+02 -0.11541162053E+03  0.15181164415E+03  0.00000000000E+00 0.  1.
        -11    1    5    5    0    0 -0.54664969696E+01 -0.60385810917E+02  0.55216863109E+01  0.60883641226E+02  0.00000000000E+00 0. -1.
          4    1    6    6  503    0 -0.48783439053E+02  0.75209354652E+01  0.61978232137E+03  0.62174473402E+03  0.00000000000E+00 0. -1.
         -4    1    6    6    0  503 -0.61596666595E+01 -0.75991820514E+02  0.53958995376E+03  0.54494955407E+03  0.00000000000E+00 0.  1.
<mgrwt>
<rscale>  0 0.12684469E+04</rscale>
<asrwt>0</asrwt>
<pdfrwt beam="1">  1        2 0.34265067E+00 0.12684469E+04</pdfrwt>
<pdfrwt beam="2">  1       -1 0.27784738E-01 0.12684469E+04</pdfrwt>
<totfact> 0.65245752E+01</totfact>
</mgrwt>
</event>
<event>
12    6  0.1553355E-007  0.1395686E+04  0.7818608E-02  0.8956947E-01
         -1   -1    0    0    0  501 -0.00000000000E+00  0.00000000000E+00  0.42536634717E+03  0.42536634717E+03  0.00000000000E+00 0.  1.
          2   -1    0    0  501    0  0.00000000000E+00 -0.00000000000E+00 -0.11448592582E+04  0.11448592582E+04  0.00000000000E+00 0. -1.
         24    2    1    2    0    0 -0.31692821223E+03  0.21858902148E+03 -0.11485827197E+02  0.39333973408E+03  0.79746913179E+02 0.  0.
        254    2    1    2    0    0  0.31692821223E+03 -0.21858902148E+03 -0.70800708382E+03  0.11768858713E+04  0.85764892073E+03 0.  0.
         23    2    4    4    0    0 -0.13588896626E+03 -0.13337772114E+03 -0.67443894399E+03  0.70677669252E+03  0.91705922754E+02 0.  0.
         23    2    4    4    0    0  0.45281717849E+03 -0.85211300342E+02 -0.33568139830E+02  0.47010917875E+03  0.87014120096E+02 0.  0.
          4    1    3    3  502    0 -0.18753420371E+02  0.43455098531E+02 -0.31965118898E+01  0.47436842772E+02  0.00000000000E+00 0. -1.
         -3    1    3    3    0  502 -0.29817479185E+03  0.17513392295E+03 -0.82893153069E+01  0.34590289131E+03  0.00000000000E+00 0.  1.
         11    1    5    5    0    0 -0.13379217186E+03 -0.87716211230E+02 -0.58295634554E+03  0.60451019823E+03  0.00000000000E+00 0. -1.
        -11    1    5    5    0    0 -0.20967944056E+01 -0.45661509912E+02 -0.91482598452E+02  0.10226649429E+03  0.00000000000E+00 0.  1.
          4    1    6    6  503    0  0.39143776709E+03 -0.87698495847E+02 -0.55328309413E+02  0.40493922198E+03  0.00000000000E+00 0. -1.
         -4    1    6    6    0  503  0.61379411399E+02  0.24871955050E+01  0.21760169582E+02  0.65169956770E+02  0.00000000000E+00 0.  1.
<mgrwt>
<rscale>  0 0.13956856E+04</rscale>
<asrwt>0</asrwt>
<pdfrwt beam="1">  1        2 0.17613219E+00 0.13956856E+04</pdfrwt>
<pdfrwt beam="2">  1       -1 0.65440977E-01 0.13956856E+04</pdfrwt>
<totfact> 0.53746378E+01</totfact>
</mgrwt>
</event>
<event>
12    6  0.1553355E-007  0.4390592E+04  0.7818608E-02  0.7930076E-01
         -1   -1    0    0    0  501 -0.00000000000E+00  0.00000000000E+00  0.22129772611E+04  0.22129772611E+04  0.00000000000E+00 0.  1.
          2   -1    0    0  501    0  0.00000000000E+00 -0.00000000000E+00 -0.21777555750E+04  0.21777555750E+04  0.00000000000E+00 0. -1.
         24    2    1    2    0    0 -0.14291994605E+04 -0.12451759289E+04  0.92848481999E+03  0.21123346365E+04  0.82458254775E+02 0.  0.
        254    2    1    2    0    0  0.14291994605E+04  0.12451759289E+04 -0.89326313386E+03  0.22783981997E+04  0.89448596304E+03 0.  0.
         23    2    4    4    0    0  0.70173009394E+03  0.14889866586E+03 -0.56950532389E+03  0.92036899542E+03  0.90259826887E+02 0.  0.
         23    2    4    4    0    0  0.72746936659E+03  0.10962772630E+04 -0.32375780997E+03  0.13580292042E+04  0.91589755701E+02 0.  0.
          4    1    3    3  502    0 -0.17793022474E+03 -0.17216118931E+03  0.94351695499E+02  0.26495449123E+03  0.00000000000E+00 0. -1.
         -3    1    3    3    0  502 -0.12512692358E+04 -0.10730147395E+04  0.83413312449E+03  0.18473801453E+04  0.00000000000E+00 0.  1.
         11    1    5    5    0    0  0.48552686139E+03  0.60892617435E+02 -0.39683258267E+03  0.63001614476E+03  0.00000000000E+00 0.  1.
        -11    1    5    5    0    0  0.21620323256E+03  0.88006048425E+02 -0.17267274122E+03  0.29035285067E+03  0.00000000000E+00 0. -1.
          4    1    6    6  503    0  0.14902517614E+03  0.29575211077E+03 -0.86594963884E+02  0.34231053434E+03  0.00000000000E+00 0. -1.
         -4    1    6    6    0  503  0.57844419046E+03  0.80052515222E+03 -0.23716284608E+03  0.10157186699E+04  0.00000000000E+00 0.  1.
<mgrwt>
<rscale>  0 0.43905916E+04</rscale>
<asrwt>0</asrwt>
<pdfrwt beam="1">  1        2 0.33503932E+00 0.43905916E+04</pdfrwt>
<pdfrwt beam="2">  1       -1 0.34045804E+00 0.43905916E+04</pdfrwt>
<totfact> 0.83047236E-02</totfact>
</mgrwt>
</event>
<event>
12    6  0.1553355E-007  0.1260855E+04  0.7818608E-02  0.9061197E-01
         -1   -1    0    0    0  501 -0.00000000000E+00  0.00000000000E+00  0.16138555630E+03  0.16138555630E+03  0.00000000000E+00 0.  1.
          2   -1    0    0  501    0  0.00000000000E+00 -0.00000000000E+00 -0.24626647506E+04  0.24626647506E+04  0.00000000000E+00 0. -1.
         24    2    1    2    0    0 -0.13876705639E+03 -0.25752121655E+03 -0.69891244200E+03  0.76169396104E+03  0.78266313231E+02 0.  0.
        254    2    1    2    0    0  0.13876705639E+03  0.25752121655E+03 -0.16023667523E+04  0.18623563459E+04  0.90289449949E+03 0.  0.
         23    2    4    4    0    0  0.44624968410E+03  0.38718425560E+03 -0.91214263985E+03  0.10905974058E+04  0.91367815749E+02 0.  0.
         23    2    4    4    0    0 -0.30748262772E+03 -0.12966303905E+03 -0.69022411246E+03  0.77175894008E+03  0.88568990766E+02 0.  0.
          2    1    3    3  502    0 -0.12248381877E+03 -0.17593143164E+03 -0.43455881608E+03  0.48455703393E+03  0.00000000000E+00 0. -1.
         -1    1    3    3    0  502 -0.16283237616E+02 -0.81589784918E+02 -0.26435362592E+03  0.27713692711E+03  0.00000000000E+00 0.  1.
         11    1    5    5    0    0  0.40889226543E+03  0.32643003401E+03 -0.83634894487E+03  0.98652369937E+03  0.00000000000E+00 0.  1.
        -11    1    5    5    0    0  0.37357418674E+02  0.60754221591E+02 -0.75793694972E+02  0.10407370642E+03  0.00000000000E+00 0. -1.
          1    1    6    6  503    0 -0.28123389586E+02 -0.19661805117E+02 -0.14835709836E+03  0.15227389880E+03  0.00000000000E+00 0. -1.
         -1    1    6    6    0  503 -0.27935923813E+03 -0.11000123393E+03 -0.54186701410E+03  0.61948504128E+03  0.00000000000E+00 0.  1.
<mgrwt>
<rscale>  0 0.12608545E+04</rscale>
<asrwt>0</asrwt>
<pdfrwt beam="1">  1        2 0.37887147E+00 0.12608545E+04</pdfrwt>
<pdfrwt beam="2">  1       -1 0.24828549E-01 0.12608545E+04</pdfrwt>
<totfact> 0.58333463E+01</totfact>
</mgrwt>
</event>
<event>
12    6  0.1553355E-007  0.1731228E+04  0.7818608E-02  0.8743752E-01
          2   -1    0    0  501    0  0.00000000000E+00  0.00000000000E+00  0.39233608227E+04  0.39233608227E+04  0.00000000000E+00 0. -1.
         -1   -1    0    0    0  501 -0.00000000000E+00 -0.00000000000E+00 -0.19098100576E+03  0.19098100576E+03  0.00000000000E+00 0.  1.
         24    2    1    2    0    0  0.37910549930E+03  0.35412876864E+03  0.72127672261E+03  0.89207091231E+03  0.80138864726E+02 0.  0.
        254    2    1    2    0    0 -0.37910549930E+03 -0.35412876864E+03  0.30111030943E+04  0.32222709162E+04  0.10233082859E+04 0.  0.
         23    2    4    4    0    0  0.34638140514E+03 -0.88056172812E+02  0.96323055362E+03  0.10314948741E+04  0.91840123965E+02 0.  0.
         23    2    4    4    0    0 -0.72548690444E+03 -0.26607259582E+03  0.20478725407E+04  0.21907760421E+04  0.92692226863E+02 0.  0.
          2    1    3    3  502    0  0.32744840523E+03  0.30500274047E+03  0.66354861489E+03  0.80034111109E+03  0.00000000000E+00 0. -1.
         -1    1    3    3    0  502  0.51657094061E+02  0.49126028167E+02  0.57728107719E+02  0.91729801216E+02  0.00000000000E+00 0.  1.
         11    1    5    5    0    0  0.97390226174E+01  0.72617137367E+01  0.89279005939E+01  0.15076088914E+02  0.00000000000E+00 0. -1.
        -11    1    5    5    0    0  0.33664238252E+03 -0.95317886549E+02  0.95430265303E+03  0.10164187851E+04  0.00000000000E+00 0.  1.
          3    1    6    6  503    0 -0.23069590501E+03 -0.12738557572E+03  0.74453435051E+03  0.78979686286E+03  0.00000000000E+00 0. -1.
         -3    1    6    6    0  503 -0.49479099942E+03 -0.13868702010E+03  0.13033381902E+04  0.14009791793E+04  0.00000000000E+00 0.  1.
<mgrwt>
<rscale>  0 0.17312278E+04</rscale>
<asrwt>0</asrwt>
<pdfrwt beam="1">  1        2 0.60359391E+00 0.17312278E+04</pdfrwt>
<pdfrwt beam="2">  1       -1 0.29381696E-01 0.17312278E+04</pdfrwt>
<totfact> 0.45757553E+00</totfact>
</mgrwt>
</event>
<event>
12    6  0.1553355E-007  0.1365261E+04  0.7818608E-02  0.8979356E-01
         -1   -1    0    0    0  501 -0.00000000000E+00  0.00000000000E+00  0.21322819585E+03  0.21322819585E+03  0.00000000000E+00 0.  1.
          2   -1    0    0  501    0  0.00000000000E+00 -0.00000000000E+00 -0.21853783638E+04  0.21853783638E+04  0.00000000000E+00 0. -1.
         24    2    1    2    0    0 -0.17298870965E+03 -0.24743387141E+03 -0.98822261372E+03  0.10363552916E+04  0.79370912266E+02 0.  0.
        254    2    1    2    0    0  0.17298870965E+03  0.24743387141E+03 -0.98392755421E+03  0.13622512681E+04  0.89244970223E+03 0.  0.
         23    2    4    4    0    0  0.27346057536E+03  0.11267478455E+03  0.49983243140E+02  0.31112518742E+03  0.82609105420E+02 0.  0.
         23    2    4    4    0    0 -0.10047186572E+03  0.13475908686E+03 -0.10339107974E+04  0.10511260806E+04  0.87406482816E+02 0.  0.
          4    1    3    3  502    0 -0.13126857472E+03 -0.16041778877E+03 -0.77628264966E+03  0.80347996728E+03  0.00000000000E+00 0. -1.
         -3    1    3    3    0  502 -0.41720134932E+02 -0.87016082639E+02 -0.21193996406E+03  0.23287532429E+03  0.00000000000E+00 0.  1.
         11    1    5    5    0    0  0.14998209620E+03  0.53575000483E+02  0.67767153848E+02  0.17308176391E+03  0.00000000000E+00 0. -1.
        -11    1    5    5    0    0  0.12347847916E+03  0.59099784070E+02 -0.17783910708E+02  0.13804342350E+03  0.00000000000E+00 0.  1.
          1    1    6    6  503    0  0.27976408779E+01  0.49105431013E+02 -0.17426081019E+03  0.18106904793E+03  0.00000000000E+00 0. -1.
         -1    1    6    6    0  503 -0.10326950659E+03  0.85653655845E+02 -0.85964998716E+03  0.87005703272E+03  0.00000000000E+00 0.  1.
<mgrwt>
<rscale>  0 0.13652608E+04</rscale>
<asrwt>0</asrwt>
<pdfrwt beam="1">  1        2 0.33621205E+00 0.13652608E+04</pdfrwt>
<pdfrwt beam="2">  1       -1 0.32804338E-01 0.13652608E+04</pdfrwt>
<totfact> 0.51039381E+01</totfact>
</mgrwt>
</event>
<event>
12    6  0.1553355E-007  0.1609456E+04  0.7818608E-02  0.8814760E-01
         -1   -1    0    0    0  501 -0.00000000000E+00  0.00000000000E+00  0.46139452295E+03  0.46139452295E+03  0.00000000000E+00 0.  1.
          2   -1    0    0  501    0  0.00000000000E+00 -0.00000000000E+00 -0.14035424481E+04  0.14035424481E+04  0.00000000000E+00 0. -1.
         24    2    1    2    0    0  0.55108885659E+02  0.97228184067E+02  0.29790088367E+03  0.32922121929E+03  0.84565747716E+02 0.  0.
        254    2    1    2    0    0 -0.55108885659E+02 -0.97228184067E+02 -0.12400488088E+04  0.15357157518E+04  0.89900584699E+03 0.  0.
         23    2    4    4    0    0 -0.33637715894E+03  0.14121198757E+03 -0.19340412998E+03  0.42267367495E+03  0.90318655361E+02 0.  0.
         23    2    4    4    0    0  0.28126827328E+03 -0.23844017164E+03 -0.10466446789E+04  0.11130420768E+04  0.86209187578E+02 0.  0.
          2    1    3    3  502    0  0.49281628233E+02  0.70554970034E+01  0.10699558397E+03  0.11801065168E+03  0.00000000000E+00 0. -1.
         -1    1    3    3    0  502  0.58272574262E+01  0.90172687063E+02  0.19090529969E+03  0.21121056762E+03  0.00000000000E+00 0.  1.
         11    1    5    5    0    0 -0.30395981677E+03  0.11491729483E+03 -0.19824116952E+03  0.38065353821E+03  0.00000000000E+00 0.  1.
        -11    1    5    5    0    0 -0.32417342174E+02  0.26294692738E+02  0.48370395325E+01  0.42020136735E+02  0.00000000000E+00 0. -1.
          2    1    6    6  503    0  0.85897234572E+02 -0.81112212461E+02 -0.46181397814E+03  0.47668614027E+03  0.00000000000E+00 0. -1.
         -2    1    6    6    0  503  0.19537103871E+03 -0.15732795918E+03 -0.58483070072E+03  0.63635593657E+03  0.00000000000E+00 0.  1.
<mgrwt>
<rscale>  0 0.16094556E+04</rscale>
<asrwt>0</asrwt>
<pdfrwt beam="1">  1        2 0.21592960E+00 0.16094556E+04</pdfrwt>
<pdfrwt beam="2">  1       -1 0.70983774E-01 0.16094556E+04</pdfrwt>
<totfact> 0.31534822E+01</totfact>
</mgrwt>
</event>
<event>
12    6  0.1553355E-007  0.2771265E+04  0.7818608E-02  0.8312245E-01
          2   -1    0    0  501    0  0.00000000000E+00  0.00000000000E+00  0.10498856009E+04  0.10498856009E+04  0.00000000000E+00 0. -1.
         -1   -1    0    0    0  501 -0.00000000000E+00 -0.00000000000E+00 -0.18287494935E+04  0.18287494935E+04  0.00000000000E+00 0.  1.
         24    2    1    2    0    0 -0.55034956915E+03  0.93578928398E+03 -0.96179055441E+03  0.14528349872E+04  0.84274535600E+02 0.  0.
        254    2    1    2    0    0  0.55034956915E+03 -0.93578928398E+03  0.18292666172E+03  0.14258001071E+04  0.90601189270E+03 0.  0.
         23    2    4    4    0    0  0.77867798667E+03 -0.63184237953E+03  0.31677558591E+02  0.10064564624E+04  0.79918355472E+02 0.  0.
         23    2    4    4    0    0 -0.22832841752E+03 -0.30394690444E+03  0.15124910313E+03  0.41934364472E+03  0.91952238711E+02 0.  0.
          2    1    3    3  502    0 -0.15272465391E+03  0.23037789518E+03 -0.29075501687E+03  0.40116988214E+03  0.00000000000E+00 0. -1.
         -1    1    3    3    0  502 -0.39762491524E+03  0.70541138880E+03 -0.67103553753E+03  0.10516651051E+04  0.00000000000E+00 0.  1.
         11    1    5    5    0    0  0.19541498985E+03 -0.20331922605E+03  0.17792194692E+02  0.28256377710E+03  0.00000000000E+00 0. -1.
        -11    1    5    5    0    0  0.58326299682E+03 -0.42852315349E+03  0.13885363899E+02  0.72389268532E+03  0.00000000000E+00 0.  1.
          2    1    6    6  503    0 -0.55378506914E+02 -0.41914596721E+02 -0.30392352261E+01  0.69518698183E+02  0.00000000000E+00 0. -1.
         -2    1    6    6    0  503 -0.17294991061E+03 -0.26203230772E+03  0.15428833835E+03  0.34982494654E+03  0.00000000000E+00 0.  1.
<mgrwt>
<rscale>  0 0.27712652E+04</rscale>
<asrwt>0</asrwt>
<pdfrwt beam="1">  1        2 0.16152086E+00 0.27712652E+04</pdfrwt>
<pdfrwt beam="2">  1       -1 0.28134607E+00 0.27712652E+04</pdfrwt>
<totfact> 0.10152031E+00</totfact>
</mgrwt>
</event>
<event>
12    6  0.1553355E-007  0.1458986E+04  0.7818608E-02  0.8912194E-01
         -1   -1    0    0    0  501 -0.00000000000E+00  0.00000000000E+00  0.20949281468E+03  0.20949281468E+03  0.00000000000E+00 0.  1.
          2   -1    0    0  501    0  0.00000000000E+00 -0.00000000000E+00 -0.25402317435E+04  0.25402317435E+04  0.00000000000E+00 0. -1.
         24    2    1    2    0    0  0.21213179693E+03 -0.27303175297E+03 -0.12662839100E+04  0.13152513137E+04  0.82854329461E+02 0.  0.
        254    2    1    2    0    0 -0.21213179693E+03  0.27303175297E+03 -0.10644550188E+04  0.14344732445E+04  0.89727518900E+03 0.  0.
         23    2    4    4    0    0 -0.21954591869E+03 -0.68020901252E+01 -0.11113590998E+04  0.11364659196E+04  0.90493419062E+02 0.  0.
         23    2    4    4    0    0  0.74141217584E+01  0.27983384310E+03  0.46904080999E+02  0.29800732491E+03  0.90809822952E+02 0.  0.
          2    1    3    3  502    0  0.21333781642E+01 -0.35878543604E+02 -0.86213293936E+02  0.93405317005E+02  0.00000000000E+00 0. -1.
         -1    1    3    3    0  502  0.20999841877E+03 -0.23715320937E+03 -0.11800706161E+04  0.12218459967E+04  0.00000000000E+00 0.  1.
         11    1    5    5    0    0 -0.13384450925E+03 -0.17409040680E+02 -0.86371312325E+03  0.87419550824E+03  0.00000000000E+00 0. -1.
        -11    1    5    5    0    0 -0.85701409443E+02  0.10606950555E+02 -0.24764597652E+03  0.26227041135E+03  0.00000000000E+00 0.  1.
          2    1    6    6  503    0 -0.23825380321E+02  0.24742656744E+03  0.32167452568E+02  0.25064377117E+03  0.00000000000E+00 0. -1.
         -2    1    6    6    0  503  0.31239502080E+02  0.32407275658E+02  0.14736628431E+02  0.47363553744E+02  0.00000000000E+00 0.  1.
<mgrwt>
<rscale>  0 0.14589864E+04</rscale>
<asrwt>0</asrwt>
<pdfrwt beam="1">  1        2 0.39080491E+00 0.14589864E+04</pdfrwt>
<pdfrwt beam="2">  1       -1 0.32229661E-01 0.14589864E+04</pdfrwt>
<totfact> 0.32843476E+01</totfact>
</mgrwt>
</event>
<event>
12    6  0.1553355E-007  0.1488554E+04  0.7818608E-02  0.8892100E-01
          2   -1    0    0  501    0  0.00000000000E+00  0.00000000000E+00  0.18067547359E+04  0.18067547359E+04  0.00000000000E+00 0. -1.
         -1   -1    0    0    0  501 -0.00000000000E+00 -0.00000000000E+00 -0.30659867851E+03  0.30659867851E+03  0.00000000000E+00 0.  1.
         24    2    1    2    0    0  0.38625551228E+03 -0.14693229112E+03  0.16782626871E+03  0.45310048709E+03  0.79699284809E+02 0.  0.
        254    2    1    2    0    0 -0.38625551228E+03  0.14693229112E+03  0.13323297887E+04  0.16602529273E+04  0.90030811277E+03 0.  0.
         23    2    4    4    0    0 -0.65084516679E+03  0.10942604433E+02  0.10574853879E+04  0.12452123175E+04  0.92515935323E+02 0.  0.
         23    2    4    4    0    0  0.26458965451E+03  0.13598968669E+03  0.27484440074E+03  0.41504060979E+03  0.90655297685E+02 0.  0.
          2    1    3    3  502    0  0.42861518470E+02 -0.39340117090E+02  0.58507966936E+01  0.58472099331E+02  0.00000000000E+00 0. -1.
         -1    1    3    3    0  502  0.34339399381E+03 -0.10759217403E+03  0.16197547201E+03  0.39462838776E+03  0.00000000000E+00 0.  1.
         11    1    5    5    0    0 -0.64067773940E+03  0.55891755168E+01  0.10078299995E+04  0.11942447457E+04  0.00000000000E+00 0. -1.
        -11    1    5    5    0    0 -0.10167427388E+02  0.53534289166E+01  0.49655388431E+02  0.50967571858E+02  0.00000000000E+00 0.  1.
          2    1    6    6  503    0  0.31401823385E+02 -0.12728319573E+02  0.22731623108E+02  0.40802099458E+02  0.00000000000E+00 0.  1.
         -2    1    6    6    0  503  0.23318783113E+03  0.14871800626E+03  0.25211277764E+03  0.37423851034E+03  0.00000000000E+00 0. -1.
<mgrwt>
<rscale>  0 0.14885545E+04</rscale>
<asrwt>0</asrwt>
<pdfrwt beam="1">  1        2 0.27796226E+00 0.14885545E+04</pdfrwt>
<pdfrwt beam="2">  1       -1 0.47169029E-01 0.14885545E+04</pdfrwt>
<totfact> 0.42248851E+01</totfact>
</mgrwt>
</event>
<event>
12    6  0.1553355E-007  0.1302739E+04  0.7818608E-02  0.9027396E-01
          2   -1    0    0  501    0  0.00000000000E+00  0.00000000000E+00  0.99345615217E+03  0.99345615217E+03  0.00000000000E+00 0. -1.
         -1   -1    0    0    0  501 -0.00000000000E+00 -0.00000000000E+00 -0.42707723798E+03  0.42707723798E+03  0.00000000000E+00 0.  1.
         24    2    1    2    0    0  0.33053702380E+03 -0.47982904705E+01  0.19317719314E+03  0.39111508628E+03  0.79848826398E+02 0.  0.
        254    2    1    2    0    0 -0.33053702380E+03  0.47982904705E+01  0.37320172105E+03  0.10294183039E+04  0.90063575992E+03 0.  0.
         23    2    4    4    0    0  0.15275210155E+02 -0.39863721899E+03  0.23872334579E+03  0.47376060254E+03  0.91188312238E+02 0.  0.
         23    2    4    4    0    0 -0.34581223396E+03  0.40343550946E+03  0.13447837527E+03  0.55565770133E+03  0.91239992271E+02 0.  0.
          4    1    3    3  502    0  0.33330399966E+03 -0.92643095179E+01  0.19405126394E+03  0.38578916089E+03  0.00000000000E+00 0. -1.
         -3    1    3    3    0  502 -0.27669758611E+01  0.44660190474E+01 -0.87407080687E+00  0.53259253959E+01  0.00000000000E+00 0.  1.
         11    1    5    5    0    0 -0.36116110499E+02 -0.11817785291E+03  0.61364257296E+02  0.13797083181E+03  0.00000000000E+00 0. -1.
        -11    1    5    5    0    0  0.51391320654E+02 -0.28045936608E+03  0.17735908849E+03  0.33578977073E+03  0.00000000000E+00 0.  1.
          4    1    6    6  503    0 -0.29219600023E+03  0.36618677168E+03  0.14300486397E+03  0.48981797173E+03  0.00000000000E+00 0. -1.
         -4    1    6    6    0  503 -0.53616233724E+02  0.37248737773E+02 -0.85264887078E+01  0.65839729603E+02  0.00000000000E+00 0.  1.
<mgrwt>
<rscale>  0 0.13027394E+04</rscale>
<asrwt>0</asrwt>
<pdfrwt beam="1">  1        2 0.15283941E+00 0.13027394E+04</pdfrwt>
<pdfrwt beam="2">  1       -1 0.65704191E-01 0.13027394E+04</pdfrwt>
<totfact> 0.66774483E+01</totfact>
</mgrwt>
</event>
<event>
12    6  0.1553355E-007  0.2074173E+04  0.7818608E-02  0.8572706E-01
         -1   -1    0    0    0  501 -0.00000000000E+00  0.00000000000E+00  0.24917883493E+03  0.24917883493E+03  0.00000000000E+00 0.  1.
          2   -1    0    0  501    0  0.00000000000E+00 -0.00000000000E+00 -0.43163723824E+04  0.43163723824E+04  0.00000000000E+00 0. -1.
         24    2    1    2    0    0 -0.48519318705E+03 -0.65425808976E+03 -0.11890683437E+04  0.14435336640E+04  0.80248589804E+02 0.  0.
        254    2    1    2    0    0  0.48519318705E+03  0.65425808976E+03 -0.28781252038E+04  0.31220175534E+04  0.89438405528E+03 0.  0.
         23    2    4    4    0    0 -0.21415871802E+03  0.37812000204E+03 -0.89136345618E+03  0.99578053006E+03  0.90616558018E+02 0.  0.
         23    2    4    4    0    0  0.69935190506E+03  0.27613808772E+03 -0.19867617476E+04  0.21262370233E+04  0.91193788713E+02 0.  0.
          4    1    3    3  502    0 -0.35238726454E+02 -0.61904862377E+02 -0.14526902417E+03  0.16179329162E+03  0.00000000000E+00 0. -1.
         -3    1    3    3    0  502 -0.44995446059E+03 -0.59235322738E+03 -0.10437993195E+04  0.12817403723E+04  0.00000000000E+00 0.  1.
         11    1    5    5    0    0 -0.16084587806E+03  0.29672457088E+03 -0.59764111268E+03  0.68636125111E+03  0.00000000000E+00 0.  1.
        -11    1    5    5    0    0 -0.53312839959E+02  0.81395431160E+02 -0.29372234350E+03  0.30941927895E+03  0.00000000000E+00 0. -1.
          3    1    6    6  503    0  0.16658424249E+03  0.10350234822E+03 -0.46342952670E+03  0.50321960629E+03  0.00000000000E+00 0. -1.
         -3    1    6    6    0  503  0.53276766258E+03  0.17263573950E+03 -0.15233322209E+04  0.16230174171E+04  0.00000000000E+00 0.  1.
<mgrwt>
<rscale>  0 0.20741732E+04</rscale>
<asrwt>0</asrwt>
<pdfrwt beam="1">  1        2 0.66405720E+00 0.20741732E+04</pdfrwt>
<pdfrwt beam="2">  1       -1 0.38335211E-01 0.20741732E+04</pdfrwt>
<totfact> 0.12843173E+00</totfact>
</mgrwt>
</event>
<event>
12    6  0.1553355E-007  0.2258510E+04  0.7818608E-02  0.8494462E-01
          2   -1    0    0  501    0  0.00000000000E+00  0.00000000000E+00  0.21966378672E+04  0.21966378672E+04  0.00000000000E+00 0. -1.
         -1   -1    0    0    0  501 -0.00000000000E+00 -0.00000000000E+00 -0.58053099681E+03  0.58053099681E+03  0.00000000000E+00 0.  1.
         24    2    1    2    0    0 -0.15602579561E+03 -0.34441932738E+03 -0.38727811034E+03  0.54713938423E+03  0.80052789193E+02 0.  0.
        254    2    1    2    0    0  0.15602579561E+03  0.34441932738E+03  0.20033849807E+04  0.22300294798E+04  0.90361019125E+03 0.  0.
         23    2    4    4    0    0 -0.34001606880E+03  0.50184015204E+02  0.47440194685E+03  0.59334300301E+03  0.94177224523E+02 0.  0.
         23    2    4    4    0    0  0.49604186441E+03  0.29423531218E+03  0.15289830339E+04  0.16366864768E+04  0.91222558600E+02 0.  0.
          4    1    3    3  502    0 -0.93979372373E+02 -0.18679964563E+03 -0.15806972557E+03  0.26213025041E+03  0.00000000000E+00 0. -1.
         -3    1    3    3    0  502 -0.62046423239E+02 -0.15761968175E+03 -0.22920838476E+03  0.28500913382E+03  0.00000000000E+00 0.  1.
         11    1    5    5    0    0 -0.21775430881E+03  0.70047430388E+02  0.26519105816E+03  0.35021404717E+03  0.00000000000E+00 0.  1.
        -11    1    5    5    0    0 -0.12226175999E+03 -0.19863415185E+02  0.20921088869E+03  0.24312895583E+03  0.00000000000E+00 0. -1.
          3    1    6    6  503    0  0.39601604041E+00  0.30630455782E+01  0.47292710290E+02  0.47393454438E+02  0.00000000000E+00 0. -1.
         -3    1    6    6    0  503  0.49564584837E+03  0.29117226660E+03  0.14816903236E+04  0.15892930223E+04  0.00000000000E+00 0.  1.
<mgrwt>
<rscale>  0 0.22585096E+04</rscale>
<asrwt>0</asrwt>
<pdfrwt beam="1">  1        2 0.33794428E+00 0.22585096E+04</pdfrwt>
<pdfrwt beam="2">  1       -1 0.89312462E-01 0.22585096E+04</pdfrwt>
<totfact> 0.65953927E+00</totfact>
</mgrwt>
</event>
<event>
12    6  0.1553355E-007  0.1486638E+04  0.7818608E-02  0.8893387E-01
          2   -1    0    0  501    0  0.00000000000E+00  0.00000000000E+00  0.48359965860E+03  0.48359965860E+03  0.00000000000E+00 0. -1.
         -1   -1    0    0    0  501 -0.00000000000E+00 -0.00000000000E+00 -0.11425225256E+04  0.11425225256E+04  0.00000000000E+00 0.  1.
         24    2    1    2    0    0  0.43636721222E+03 -0.13469741532E+03 -0.19809501345E+03  0.50422564115E+03  0.80262851023E+02 0.  0.
        254    2    1    2    0    0 -0.43636721222E+03  0.13469741532E+03 -0.46082785360E+03  0.11218965431E+04  0.91527580825E+03 0.  0.
         23    2    4    4    0    0  0.20188939897E+03  0.14202995842E+03 -0.39387648968E+03  0.47386915082E+03  0.92094758112E+02 0.  0.
         23    2    4    4    0    0 -0.63825661119E+03 -0.73325431052E+01 -0.66951363919E+02  0.64802739227E+03  0.89620020616E+02 0.  0.
          2    1    3    3  502    0  0.15953015921E+03 -0.50607698108E+02 -0.11546784937E+03  0.20333183480E+03  0.00000000000E+00 0. -1.
         -1    1    3    3    0  502  0.27683705301E+03 -0.84089717208E+02 -0.82627164075E+02  0.30089380635E+03  0.00000000000E+00 0.  1.
         11    1    5    5    0    0  0.37952873005E+02 -0.73658123392E+01 -0.87258948085E+02  0.95440032386E+02  0.00000000000E+00 0. -1.
        -11    1    5    5    0    0  0.16393652597E+03  0.14939577076E+03 -0.30661754159E+03  0.37842911843E+03  0.00000000000E+00 0.  1.
          3    1    6    6  503    0 -0.26057440546E+03 -0.74947027846E+01 -0.71528423650E+02  0.27031741849E+03  0.00000000000E+00 0. -1.
         -3    1    6    6    0  503 -0.37768220573E+03  0.16215967942E+00  0.45770597304E+01  0.37770997379E+03  0.00000000000E+00 0.  1.
<mgrwt>
<rscale>  0 0.14866385E+04</rscale>
<asrwt>0</asrwt>
<pdfrwt beam="1">  1        2 0.74399949E-01 0.14866385E+04</pdfrwt>
<pdfrwt beam="2">  1       -1 0.17577269E+00 0.14866385E+04</pdfrwt>
<totfact> 0.15803784E+01</totfact>
</mgrwt>
</event>
<event>
12    6  0.1553355E-007  0.2644779E+04  0.7818608E-02  0.8353148E-01
          2   -1    0    0  501    0  0.00000000000E+00  0.00000000000E+00  0.37354483370E+04  0.37354483370E+04  0.00000000000E+00 0. -1.
         -1   -1    0    0    0  501 -0.00000000000E+00 -0.00000000000E+00 -0.46814032458E+03  0.46814032458E+03  0.00000000000E+00 0.  1.
         24    2    1    2    0    0  0.94200351161E+03  0.68761062558E+03  0.12737362305E+04  0.17290329662E+04  0.83498654158E+02 0.  0.
        254    2    1    2    0    0 -0.94200351161E+03 -0.68761062558E+03  0.19935717820E+04  0.24745556954E+04  0.88821081465E+03 0.  0.
         23    2    4    4    0    0 -0.27192205030E+03 -0.13642635451E+03  0.13594712931E+04  0.13962476248E+04  0.93762899193E+02 0.  0.
         23    2    4    4    0    0 -0.67008146132E+03 -0.55118427107E+03  0.63410048891E+03  0.10783080706E+04  0.88609252709E+02 0.  0.
          4    1    3    3  502    0  0.94293342093E+03  0.68242475578E+03  0.12674276991E+04  0.17208137482E+04  0.00000000000E+00 0. -1.
         -3    1    3    3    0  502 -0.92990931701E+00  0.51858698015E+01  0.63085313751E+01  0.82192180313E+01  0.00000000000E+00 0.  1.
         11    1    5    5    0    0 -0.20337802109E+03 -0.13496768144E+03  0.93809151593E+03  0.96932687302E+03  0.00000000000E+00 0.  1.
        -11    1    5    5    0    0 -0.68544029207E+02 -0.14586730730E+01  0.42137977716E+03  0.42692075174E+03  0.00000000000E+00 0. -1.
          1    1    6    6  503    0 -0.16228527342E+02  0.63195676116E+00  0.79826761693E+01  0.18096618133E+02  0.00000000000E+00 0. -1.
         -1    1    6    6    0  503 -0.65385293397E+03 -0.55181622783E+03  0.62611781274E+03  0.10602114525E+04  0.00000000000E+00 0.  1.
<mgrwt>
<rscale>  0 0.26447790E+04</rscale>
<asrwt>0</asrwt>
<pdfrwt beam="1">  1        2 0.57468434E+00 0.26447790E+04</pdfrwt>
<pdfrwt beam="2">  1       -1 0.72021591E-01 0.26447790E+04</pdfrwt>
<totfact> 0.10719596E+00</totfact>
</mgrwt>
</event>
<event>
12    6  0.1553355E-007  0.1262727E+04  0.7818608E-02  0.9059657E-01
         -1   -1    0    0    0  501 -0.00000000000E+00  0.00000000000E+00  0.40471596465E+03  0.40471596465E+03  0.00000000000E+00 0.  1.
          2   -1    0    0  501    0  0.00000000000E+00 -0.00000000000E+00 -0.98493702349E+03  0.98493702349E+03  0.00000000000E+00 0. -1.
         24    2    1    2    0    0 -0.19478132726E+03 -0.21545813619E+03 -0.27871695057E+02  0.30243751438E+03  0.79559064983E+02 0.  0.
        254    2    1    2    0    0  0.19478132726E+03  0.21545813619E+03 -0.55234936379E+03  0.10872154738E+04  0.89027281931E+03 0.  0.
         23    2    4    4    0    0  0.35705685549E+03 -0.26681990275E+01 -0.68045076052E+03  0.77382448673E+03  0.91073494658E+02 0.  0.
         23    2    4    4    0    0 -0.16227552823E+03  0.21812633522E+03  0.12810139673E+03  0.31339098703E+03  0.88834102262E+02 0.  0.
          2    1    3    3  502    0 -0.13218069688E+03 -0.16119527992E+03 -0.54413083159E+02  0.21544474585E+03  0.00000000000E+00 0. -1.
         -1    1    3    3    0  502 -0.62600630371E+02 -0.54262856273E+02  0.26541388102E+02  0.86992768527E+02  0.00000000000E+00 0.  1.
         11    1    5    5    0    0  0.14547206802E+03 -0.45884393858E+02 -0.28425097122E+03  0.32259280031E+03  0.00000000000E+00 0.  1.
        -11    1    5    5    0    0  0.21158478747E+03  0.43216194831E+02 -0.39619978931E+03  0.45123168642E+03  0.00000000000E+00 0. -1.
          4    1    6    6  503    0 -0.61212643479E+02  0.68041542052E+02  0.90245654108E+02  0.12853372029E+03  0.00000000000E+00 0. -1.
         -4    1    6    6    0  503 -0.10106288476E+03  0.15008479317E+03  0.37855742625E+02  0.18485726674E+03  0.00000000000E+00 0.  1.
<mgrwt>
<rscale>  0 0.12627268E+04</rscale>
<asrwt>0</asrwt>
<pdfrwt beam="1">  1        2 0.15152877E+00 0.12627268E+04</pdfrwt>
<pdfrwt beam="2">  1       -1 0.62263995E-01 0.12627268E+04</pdfrwt>
<totfact> 0.75556338E+01</totfact>
</mgrwt>
</event>
<event>
12    6  0.1553355E-007  0.2048982E+04  0.7818608E-02  0.8584056E-01
         -3   -1    0    0    0  501 -0.00000000000E+00  0.00000000000E+00  0.56076194010E+03  0.56076194010E+03  0.00000000000E+00 0.  1.
          2   -1    0    0  501    0  0.00000000000E+00 -0.00000000000E+00 -0.18717071229E+04  0.18717071229E+04  0.00000000000E+00 0. -1.
         24    2    1    2    0    0 -0.64016603906E+03 -0.30364008064E+03  0.71800193340E+02  0.71676952301E+03  0.81199908925E+02 0.  0.
        254    2    1    2    0    0  0.64016603906E+03  0.30364008064E+03 -0.13827453761E+04  0.17156995400E+04  0.72775701998E+03 0.  0.
         23    2    4    4    0    0  0.46656221068E+03  0.34656778715E+03 -0.39639536260E+03  0.70916425961E+03  0.89415524809E+02 0.  0.
         23    2    4    4    0    0  0.17360382838E+03 -0.42927706512E+02 -0.98635001350E+03  0.10065352803E+04  0.90806631082E+02 0.  0.
          4    1    3    3  502    0 -0.12246046544E+03 -0.64217934853E+02 -0.17691699908E+02  0.13940410682E+03  0.00000000000E+00 0. -1.
         -3    1    3    3    0  502 -0.51770557362E+03 -0.23942214579E+03  0.89491893248E+02  0.57736541619E+03  0.00000000000E+00 0.  1.
         11    1    5    5    0    0  0.23487015204E+03  0.15744505469E+03 -0.24407094112E+03  0.37352852350E+03  0.00000000000E+00 0.  1.
        -11    1    5    5    0    0  0.23169205864E+03  0.18912273247E+03 -0.15232442148E+03  0.33563573611E+03  0.00000000000E+00 0. -1.
          1    1    6    6  503    0  0.13055459690E+03 -0.57723950579E+02 -0.86935571041E+03  0.88099711036E+03  0.00000000000E+00 0.  1.
         -1    1    6    6    0  503  0.43049231475E+02  0.14796244067E+02 -0.11699430309E+03  0.12553816999E+03  0.00000000000E+00 0. -1.
<mgrwt>
<rscale>  0 0.20489823E+04</rscale>
<asrwt>0</asrwt>
<pdfrwt beam="1">  1        2 0.28795494E+00 0.20489823E+04</pdfrwt>
<pdfrwt beam="2">  1       -3 0.86271067E-01 0.20489823E+04</pdfrwt>
<totfact> 0.57086014E+00</totfact>
</mgrwt>
</event>
<event>
12    6  0.1553355E-007  0.1677994E+04  0.7818608E-02  0.8774015E-01
          2   -1    0    0  501    0  0.00000000000E+00  0.00000000000E+00  0.18853258880E+04  0.18853258880E+04  0.00000000000E+00 0. -1.
         -1   -1    0    0    0  501 -0.00000000000E+00 -0.00000000000E+00 -0.37336583817E+03  0.37336583817E+03  0.00000000000E+00 0.  1.
         24    2    1    2    0    0 -0.47993316026E+03  0.44418636027E+02  0.77073524083E+02  0.49480566838E+03  0.81138571588E+02 0.  0.
        254    2    1    2    0    0  0.47993316026E+03 -0.44418636027E+02  0.14348865258E+04  0.17638860578E+04  0.90558590401E+03 0.  0.
         23    2    4    4    0    0  0.63450862808E+03  0.23485095133E+03  0.84003017137E+03  0.10825107252E+04  0.91774794780E+02 0.  0.
         23    2    4    4    0    0 -0.15457546781E+03 -0.27926958735E+03  0.59485635442E+03  0.68137533260E+03  0.92375233788E+02 0.  0.
          2    1    3    3  502    0 -0.13821493380E+03  0.77768723849E+01 -0.14352800957E+02  0.13917561053E+03  0.00000000000E+00 0. -1.
         -1    1    3    3    0  502 -0.34171822646E+03  0.36641763642E+02  0.91426325041E+02  0.35563005785E+03  0.00000000000E+00 0.  1.
         11    1    5    5    0    0  0.41655419345E+03  0.16960718682E+03  0.49078831497E+03  0.66570050624E+03  0.00000000000E+00 0.  1.
        -11    1    5    5    0    0  0.21795443463E+03  0.65243764508E+02  0.34924185640E+03  0.41681021898E+03  0.00000000000E+00 0. -1.
          1    1    6    6  503    0 -0.16562560096E+03 -0.26673248693E+03  0.57717728157E+03  0.65704769510E+03  0.00000000000E+00 0. -1.
         -1    1    6    6    0  503  0.11050133146E+02 -0.12537100428E+02  0.17679072841E+02  0.24327637497E+02  0.00000000000E+00 0.  1.
<mgrwt>
<rscale>  0 0.16779944E+04</rscale>
<asrwt>0</asrwt>
<pdfrwt beam="1">  1        2 0.29005013E+00 0.16779944E+04</pdfrwt>
<pdfrwt beam="2">  1       -1 0.57440899E-01 0.16779944E+04</pdfrwt>
<totfact> 0.25785082E+01</totfact>
</mgrwt>
</event>
<event>
12    6  0.1553355E-007  0.1667914E+04  0.7818608E-02  0.8779879E-01
          2   -1    0    0  501    0  0.00000000000E+00  0.00000000000E+00  0.24391225771E+04  0.24391225771E+04  0.00000000000E+00 0. -1.
         -1   -1    0    0    0  501 -0.00000000000E+00 -0.00000000000E+00 -0.28513691778E+03  0.28513691778E+03  0.00000000000E+00 0.  1.
         24    2    1    2    0    0  0.22841247407E+03 -0.42571431466E+03  0.20143957802E+03  0.52937485233E+03  0.79087892042E+02 0.  0.
        254    2    1    2    0    0 -0.22841247407E+03  0.42571431466E+03  0.19525460813E+04  0.21948846426E+04  0.87845173943E+03 0.  0.
         23    2    4    4    0    0  0.10946775883E+03  0.53136741133E+03  0.15800072224E+04  0.16732344885E+04  0.94637807815E+02 0.  0.
         23    2    4    4    0    0 -0.33788023291E+03 -0.10565309667E+03  0.37253885893E+03  0.52165015407E+03  0.89487726547E+02 0.  0.
          4    1    3    3  502    0  0.15013248227E+02 -0.79956348338E+01  0.20444553349E+02  0.26595254471E+02  0.00000000000E+00 0. -1.
         -3    1    3    3    0  502  0.21339922585E+03 -0.41771867983E+03  0.18099502467E+03  0.50277959786E+03  0.00000000000E+00 0.  1.
         11    1    5    5    0    0  0.82240790556E+02  0.50861641593E+03  0.14751617985E+04  0.15625480914E+04  0.00000000000E+00 0. -1.
        -11    1    5    5    0    0  0.27226968276E+02  0.22750995400E+02  0.10484542385E+03  0.11068639706E+03  0.00000000000E+00 0.  1.
          1    1    6    6  503    0 -0.27060838597E+03 -0.91315011190E+02  0.24302521914E+03  0.37500478259E+03  0.00000000000E+00 0. -1.
         -1    1    6    6    0  503 -0.67271846939E+02 -0.14338085479E+02  0.12951363979E+03  0.14664537148E+03  0.00000000000E+00 0.  1.
<mgrwt>
<rscale>  0 0.16679135E+04</rscale>
<asrwt>0</asrwt>
<pdfrwt beam="1">  1        2 0.37524961E+00 0.16679135E+04</pdfrwt>
<pdfrwt beam="2">  1       -1 0.43867220E-01 0.16679135E+04</pdfrwt>
<totfact> 0.21092971E+01</totfact>
</mgrwt>
</event>
<event>
12    6  0.1553355E-007  0.2335626E+04  0.7818608E-02  0.8464005E-01
         -1   -1    0    0    0  501 -0.00000000000E+00  0.00000000000E+00  0.53707555310E+03  0.53707555310E+03  0.00000000000E+00 0.  1.
          2   -1    0    0  501    0  0.00000000000E+00 -0.00000000000E+00 -0.25392827848E+04  0.25392827848E+04  0.00000000000E+00 0. -1.
         24    2    1    2    0    0 -0.37439146961E+02  0.19634093977E+03 -0.21747865137E+04  0.21854718277E+04  0.81481746945E+02 0.  0.
        254    2    1    2    0    0  0.37439146961E+02 -0.19634093977E+03  0.17257928196E+03  0.89088651026E+03  0.85084881809E+03 0.  0.
         23    2    4    4    0    0  0.58028938647E+02 -0.46345156756E+03 -0.11254609507E+03  0.48800712828E+03  0.85613203063E+02 0.  0.
         23    2    4    4    0    0 -0.20589791686E+02  0.26711062779E+03  0.28512537702E+03  0.40287938198E+03  0.96142024119E+02 0.  0.
          2    1    3    3  502    0  0.19453954858E+02  0.11463561808E+03 -0.11599522479E+04  0.11657654132E+04  0.00000000000E+00 0. -1.
         -1    1    3    3    0  502 -0.56893101819E+02  0.81705321696E+02 -0.10148342658E+04  0.10197064144E+04  0.00000000000E+00 0.  1.
         11    1    5    5    0    0  0.61716972328E+01 -0.29002769799E+03 -0.98874246519E+02  0.30648045953E+03  0.00000000000E+00 0.  1.
        -11    1    5    5    0    0  0.51857241414E+02 -0.17342386957E+03 -0.13671848548E+02  0.18152666875E+03  0.00000000000E+00 0. -1.
          2    1    6    6  503    0 -0.48051427703E+01  0.17300444262E+03  0.11491746255E+03  0.20774900665E+03  0.00000000000E+00 0.  1.
         -2    1    6    6    0  503 -0.15784648916E+02  0.94106185169E+02  0.17020791447E+03  0.19513037533E+03  0.00000000000E+00 0. -1.
<mgrwt>
<rscale>  0 0.23356256E+04</rscale>
<asrwt>0</asrwt>
<pdfrwt beam="1">  1        2 0.39065889E+00 0.23356256E+04</pdfrwt>
<pdfrwt beam="2">  1       -1 0.82627007E-01 0.23356256E+04</pdfrwt>
<totfact> 0.49438730E+00</totfact>
</mgrwt>
</event>
<event>
12    6  0.1553355E-007  0.2025486E+04  0.7818608E-02  0.8594797E-01
         -1   -1    0    0    0  501 -0.00000000000E+00  0.00000000000E+00  0.11177437400E+04  0.11177437400E+04  0.00000000000E+00 0.  1.
          2   -1    0    0  501    0  0.00000000000E+00 -0.00000000000E+00 -0.91760594620E+03  0.91760594620E+03  0.00000000000E+00 0. -1.
         24    2    1    2    0    0 -0.52004856377E+03  0.43144463089E+03 -0.37412669577E+03  0.77621272046E+03  0.77074150662E+02 0.  0.
        254    2    1    2    0    0  0.52004856377E+03 -0.43144463089E+03  0.57426448956E+03  0.12591369657E+04  0.89389664744E+03 0.  0.
         23    2    4    4    0    0  0.58089906274E+02  0.14108127293E+03  0.48014492806E+03  0.51183593957E+03  0.90324494538E+02 0.  0.
         23    2    4    4    0    0  0.46195865750E+03 -0.57252590382E+03  0.94119561499E+02  0.74730102616E+03  0.91698528111E+02 0.  0.
          2    1    3    3  502    0 -0.31133580278E+03  0.26353088871E+03 -0.26812558744E+03  0.48812891948E+03  0.00000000000E+00 0. -1.
         -1    1    3    3    0  502 -0.20871276100E+03  0.16791374218E+03 -0.10600110834E+03  0.28808380098E+03  0.00000000000E+00 0.  1.
         11    1    5    5    0    0  0.18644298598E+02  0.58939331263E+02  0.78154932791E+02  0.99647619939E+02  0.00000000000E+00 0. -1.
        -11    1    5    5    0    0  0.39445607676E+02  0.82141941668E+02  0.40198999527E+03  0.41218831964E+03  0.00000000000E+00 0.  1.
          1    1    6    6  503    0  0.70343028929E+02 -0.69595872337E+02  0.42825344589E+02  0.10782271238E+03  0.00000000000E+00 0. -1.
         -1    1    6    6    0  503  0.39161562857E+03 -0.50293003148E+03  0.51294216910E+02  0.63947831378E+03  0.00000000000E+00 0.  1.
<mgrwt>
<rscale>  0 0.20254859E+04</rscale>
<asrwt>0</asrwt>
<pdfrwt beam="1">  1        2 0.14117015E+00 0.20254859E+04</pdfrwt>
<pdfrwt beam="2">  1       -1 0.17196058E+00 0.20254859E+04</pdfrwt>
<totfact> 0.71839336E+00</totfact>
</mgrwt>
</event>
<event>
12    6  0.1553355E-007  0.2276427E+04  0.7818608E-02  0.8487274E-01
         -1   -1    0    0    0  501 -0.00000000000E+00  0.00000000000E+00  0.14467206579E+04  0.14467206579E+04  0.00000000000E+00 0.  1.
          2   -1    0    0  501    0  0.00000000000E+00 -0.00000000000E+00 -0.89549387182E+03  0.89549387182E+03  0.00000000000E+00 0. -1.
         24    2    1    2    0    0 -0.48934145143E+03 -0.73070583367E+03 -0.15313876611E+03  0.89621474792E+03  0.79770428491E+02 0.  0.
        254    2    1    2    0    0  0.48934145143E+03  0.73070583367E+03  0.70436555224E+03  0.14459997818E+04  0.90631035879E+03 0.  0.
         23    2    4    4    0    0  0.54227147799E+03  0.57466584311E+03  0.86199229953E+02  0.80001726738E+03  0.91094093020E+02 0.  0.
         23    2    4    4    0    0 -0.52930026568E+02  0.15603999057E+03  0.61816632229E+03  0.64598251446E+03  0.89519498470E+02 0.  0.
          4    1    3    3  502    0 -0.76522753970E+02 -0.86657257857E+02 -0.42930395958E+02  0.12332165711E+03  0.00000000000E+00 0. -1.
         -3    1    3    3    0  502 -0.41281869746E+03 -0.64404857582E+03 -0.11020837015E+03  0.77289309082E+03  0.00000000000E+00 0.  1.
         11    1    5    5    0    0  0.15902941759E+03  0.11907708451E+03  0.14853003939E+01  0.19867539815E+03  0.00000000000E+00 0. -1.
        -11    1    5    5    0    0  0.38324206040E+03  0.45558875860E+03  0.84713929559E+02  0.60134186923E+03  0.00000000000E+00 0.  1.
          3    1    6    6  503    0 -0.41167684613E+02  0.15592532097E+03  0.46132223673E+03  0.48869795383E+03  0.00000000000E+00 0. -1.
         -3    1    6    6    0  503 -0.11762341954E+02  0.11466959416E+00  0.15684408555E+03  0.15728456062E+03  0.00000000000E+00 0.  1.
<mgrwt>
<rscale>  0 0.22764266E+04</rscale>
<asrwt>0</asrwt>
<pdfrwt beam="1">  1        2 0.13776829E+00 0.22764266E+04</pdfrwt>
<pdfrwt beam="2">  1       -1 0.22257241E+00 0.22764266E+04</pdfrwt>
<totfact> 0.32358089E+00</totfact>
</mgrwt>
</event>
<event>
12    6  0.1553355E-007  0.2173979E+04  0.7818608E-02  0.8529337E-01
          2   -1    0    0  501    0  0.00000000000E+00  0.00000000000E+00  0.16729147331E+04  0.16729147331E+04  0.00000000000E+00 0. -1.
         -1   -1    0    0    0  501 -0.00000000000E+00 -0.00000000000E+00 -0.70627993574E+03  0.70627993574E+03  0.00000000000E+00 0.  1.
         24    2    1    2    0    0 -0.38840220861E+02 -0.56293950054E+03 -0.36408831938E+03  0.67615765102E+03  0.78863303969E+02 0.  0.
        254    2    1    2    0    0  0.38840220861E+02  0.56293950054E+03  0.13307231168E+04  0.17030370178E+04  0.90061180684E+03 0.  0.
         23    2    4    4    0    0 -0.29003274134E+03  0.46560137818E+03  0.34265578126E+03  0.65311995621E+03  0.90824326918E+02 0.  0.
         23    2    4    4    0    0  0.32887296220E+03  0.97338122356E+02  0.98806733549E+03  0.10499170616E+04  0.91742255699E+02 0.  0.
          4    1    3    3  502    0 -0.88008122821E+01 -0.11929057049E+03 -0.40760527536E+02  0.12636896419E+03  0.00000000000E+00 0. -1.
         -3    1    3    3    0  502 -0.30039408578E+02 -0.44364893005E+03 -0.32332779184E+03  0.54978868684E+03  0.00000000000E+00 0.  1.
         11    1    5    5    0    0 -0.20380775477E+03  0.31473693976E+03  0.28163270971E+03  0.46894981110E+03  0.00000000000E+00 0.  1.
        -11    1    5    5    0    0 -0.86224986563E+02  0.15086443842E+03  0.61023071551E+02  0.18417014511E+03  0.00000000000E+00 0. -1.
          2    1    6    6  503    0  0.11651810826E+03  0.59451445542E+02  0.48970571386E+03  0.50687535955E+03  0.00000000000E+00 0. -1.
         -2    1    6    6    0  503  0.21235485394E+03  0.37886676814E+02  0.49836162163E+03  0.54304170207E+03  0.00000000000E+00 0.  1.
<mgrwt>
<rscale>  0 0.21739789E+04</rscale>
<asrwt>0</asrwt>
<pdfrwt beam="1">  1        2 0.25737150E+00 0.21739789E+04</pdfrwt>
<pdfrwt beam="2">  1       -1 0.10865845E+00 0.21739789E+04</pdfrwt>
<totfact> 0.83213169E+00</totfact>
</mgrwt>
</event>
<event>
12    6  0.1553355E-007  0.1986670E+04  0.7818608E-02  0.8612878E-01
         -1   -1    0    0    0  501 -0.00000000000E+00  0.00000000000E+00  0.38926063466E+03  0.38926063466E+03  0.00000000000E+00 0.  1.
          2   -1    0    0  501    0  0.00000000000E+00 -0.00000000000E+00 -0.25348426785E+04  0.25348426785E+04  0.00000000000E+00 0. -1.
         24    2    1    2    0    0 -0.71795697989E+03  0.10788763817E+03 -0.39677736244E+03  0.83120655315E+03  0.79812851232E+02 0.  0.
        254    2    1    2    0    0  0.71795697989E+03 -0.10788763817E+03 -0.17488046814E+04  0.20928967600E+04  0.89151391853E+03 0.  0.
         23    2    4    4    0    0  0.38897481889E+03  0.71376930166E+02 -0.16425052537E+04  0.16921102063E+04  0.94959813034E+02 0.  0.
         23    2    4    4    0    0  0.32898216100E+03 -0.17926456834E+03 -0.10629942776E+03  0.40078655373E+03  0.94684980798E+02 0.  0.
          4    1    3    3  502    0 -0.10929811726E+03  0.19012798895E+02 -0.29530082812E+02  0.11480239871E+03  0.00000000000E+00 0. -1.
         -3    1    3    3    0  502 -0.60865886262E+03  0.88874839276E+02 -0.36724727963E+03  0.71640415444E+03  0.00000000000E+00 0.  1.
         11    1    5    5    0    0  0.10703424857E+03  0.53236981973E+02 -0.37910462040E+03  0.39750574817E+03  0.00000000000E+00 0. -1.
        -11    1    5    5    0    0  0.28194057032E+03  0.18139948194E+02 -0.12634006332E+04  0.12946044581E+04  0.00000000000E+00 0.  1.
          3    1    6    6  503    0 -0.10431531992E+01  0.56586312986E+01 -0.81180424041E+01  0.99504215612E+01  0.00000000000E+00 0. -1.
         -3    1    6    6    0  503  0.33002531420E+03 -0.18492319964E+03 -0.98181385361E+02  0.39083613217E+03  0.00000000000E+00 0.  1.
<mgrwt>
<rscale>  0 0.19866700E+04</rscale>
<asrwt>0</asrwt>
<pdfrwt beam="1">  1        2 0.38997578E+00 0.19866700E+04</pdfrwt>
<pdfrwt beam="2">  1       -1 0.59886254E-01 0.19866700E+04</pdfrwt>
<totfact> 0.99514356E+00</totfact>
</mgrwt>
</event>
<event>
12    6  0.1553355E-007  0.1281687E+04  0.7818608E-02  0.9044215E-01
         -1   -1    0    0    0  501 -0.00000000000E+00  0.00000000000E+00  0.11892293647E+04  0.11892293647E+04  0.00000000000E+00 0.  1.
          2   -1    0    0  501    0  0.00000000000E+00 -0.00000000000E+00 -0.34533308253E+03  0.34533308253E+03  0.00000000000E+00 0. -1.
         24    2    1    2    0    0 -0.16843361967E+03 -0.94699256578E+02  0.52738179367E+03  0.56725029817E+03  0.79394653765E+02 0.  0.
        254    2    1    2    0    0  0.16843361967E+03  0.94699256578E+02  0.31651448850E+03  0.96731214906E+03  0.89340558475E+03 0.  0.
         23    2    4    4    0    0  0.44535732446E+03 -0.13666639245E+03  0.35516045006E+03  0.59327332953E+03  0.93879971033E+02 0.  0.
         23    2    4    4    0    0 -0.27692370479E+03  0.23136564903E+03 -0.38645961557E+02  0.37403881954E+03  0.90524727816E+02 0.  0.
          4    1    3    3  502    0 -0.86786494837E+01  0.92417745646E+01  0.79468787870E+02  0.80473707505E+02  0.00000000000E+00 0. -1.
         -3    1    3    3    0  502 -0.15975497018E+03 -0.10394103114E+03  0.44791300580E+03  0.48677659067E+03  0.00000000000E+00 0.  1.
         11    1    5    5    0    0  0.44870182059E+03 -0.14014449916E+03  0.34911482291E+03  0.58553818323E+03  0.00000000000E+00 0. -1.
        -11    1    5    5    0    0 -0.33444961269E+01  0.34781067039E+01  0.60456271507E+01  0.77351462967E+01  0.00000000000E+00 0.  1.
          2    1    6    6  503    0 -0.28195169195E+03  0.22164639221E+03 -0.29636090041E+02  0.35986410992E+03  0.00000000000E+00 0. -1.
         -2    1    6    6    0  503  0.50279871570E+01  0.97192568190E+01 -0.90098715165E+01  0.14174709616E+02  0.00000000000E+00 0.  1.
<mgrwt>
<rscale>  0 0.12816868E+04</rscale>
<asrwt>0</asrwt>
<pdfrwt beam="1">  1        2 0.53128167E-01 0.12816868E+04</pdfrwt>
<pdfrwt beam="2">  1       -1 0.18295836E+00 0.12816868E+04</pdfrwt>
<totfact> 0.20892621E+01</totfact>
</mgrwt>
</event>
<event>
12    6  0.1553355E-007  0.2442299E+04  0.7818608E-02  0.8423835E-01
          2   -1    0    0  501    0  0.00000000000E+00  0.00000000000E+00  0.78700084284E+03  0.78700084284E+03  0.00000000000E+00 0. -1.
         -1   -1    0    0    0  501 -0.00000000000E+00 -0.00000000000E+00 -0.18947958588E+04  0.18947958588E+04  0.00000000000E+00 0.  1.
         24    2    1    2    0    0 -0.62583042573E+03  0.81568930630E+03 -0.72437546478E+03  0.12601457045E+04  0.78959587531E+02 0.  0.
        254    2    1    2    0    0  0.62583042573E+03 -0.81568930630E+03 -0.38341955114E+03  0.14216509971E+04  0.90391827014E+03 0.  0.
         23    2    4    4    0    0  0.28120000462E+02  0.40641480980E+02 -0.35796034676E+03  0.37322437470E+03  0.93372156513E+02 0.  0.
         23    2    4    4    0    0  0.59771042527E+03 -0.85633078728E+03 -0.25459204375E+02  0.10484266224E+04  0.89387033129E+02 0.  0.
          4    1    3    3  502    0 -0.36260235590E+03  0.41641820850E+03 -0.36428882362E+03  0.66150656829E+03  0.00000000000E+00 0. -1.
         -3    1    3    3    0  502 -0.26322806983E+03  0.39927109780E+03 -0.36008664117E+03  0.59863913623E+03  0.00000000000E+00 0.  1.
         11    1    5    5    0    0  0.61816637669E+02  0.21961286160E+02 -0.19375204918E+03  0.20455671914E+03  0.00000000000E+00 0. -1.
        -11    1    5    5    0    0 -0.33696637207E+02  0.18680194820E+02 -0.16420829758E+03  0.16866765555E+03  0.00000000000E+00 0.  1.
          3    1    6    6  503    0  0.38204986463E+03 -0.60575606914E+03 -0.42085147970E+02  0.71740760662E+03  0.00000000000E+00 0. -1.
         -3    1    6    6    0  503  0.21566056064E+03 -0.25057471814E+03  0.16625943595E+02  0.33101901575E+03  0.00000000000E+00 0.  1.
<mgrwt>
<rscale>  0 0.24422989E+04</rscale>
<asrwt>0</asrwt>
<pdfrwt beam="1">  1        2 0.12107705E+00 0.24422989E+04</pdfrwt>
<pdfrwt beam="2">  1       -1 0.29150706E+00 0.24422989E+04</pdfrwt>
<totfact> 0.13491210E+00</totfact>
</mgrwt>
</event>
<event>
12    6  0.1553355E-007  0.1395271E+04  0.7818608E-02  0.8957248E-01
          2   -1    0    0  501    0  0.00000000000E+00  0.00000000000E+00  0.76395218867E+03  0.76395218867E+03  0.00000000000E+00 0. -1.
         -1   -1    0    0    0  501 -0.00000000000E+00 -0.00000000000E+00 -0.63707592175E+03  0.63707592175E+03  0.00000000000E+00 0.  1.
         24    2    1    2    0    0 -0.27720893185E+03 -0.23827361275E+03 -0.13405330045E+03  0.39790292365E+03  0.82081318569E+02 0.  0.
        254    2    1    2    0    0  0.27720893185E+03  0.23827361275E+03  0.26092956737E+03  0.10031251868E+04  0.89697089962E+03 0.  0.
         23    2    4    4    0    0 -0.61067987023E+02  0.78379885300E+02 -0.29681249102E+03  0.32527992627E+03  0.88524969079E+02 0.  0.
         23    2    4    4    0    0  0.33827691888E+03  0.15989372745E+03  0.55774205839E+03  0.67784526049E+03  0.91655417451E+02 0.  0.
          2    1    3    3  502    0 -0.75225945995E+02 -0.21561856949E+02 -0.23591808272E+02  0.81733897762E+02  0.00000000000E+00 0. -1.
         -1    1    3    3    0  502 -0.20198298586E+03 -0.21671175580E+03 -0.11046149218E+03  0.31616902589E+03  0.00000000000E+00 0.  1.
         11    1    5    5    0    0 -0.72809298900E+02  0.60521919777E+02 -0.28612846815E+03  0.30138612620E+03  0.00000000000E+00 0. -1.
        -11    1    5    5    0    0  0.11741311878E+02  0.17857965523E+02 -0.10684022874E+02  0.23893800074E+02  0.00000000000E+00 0.  1.
          3    1    6    6  503    0  0.24630393708E+03  0.76298732174E+02  0.41495082113E+03  0.48853997780E+03  0.00000000000E+00 0. -1.
         -3    1    6    6    0  503  0.91972981796E+02  0.83594995276E+02  0.14279123726E+03  0.18930528269E+03  0.00000000000E+00 0.  1.
<mgrwt>
<rscale>  0 0.13952714E+04</rscale>
<asrwt>0</asrwt>
<pdfrwt beam="1">  1        2 0.11753111E+00 0.13952714E+04</pdfrwt>
<pdfrwt beam="2">  1       -1 0.98011681E-01 0.13952714E+04</pdfrwt>
<totfact> 0.40629932E+01</totfact>
</mgrwt>
</event>
<event>
12    6  0.1553355E-007  0.1878784E+04  0.7818608E-02  0.8665490E-01
         -1   -1    0    0    0  501 -0.00000000000E+00  0.00000000000E+00  0.75323184889E+03  0.75323184889E+03  0.00000000000E+00 0.  1.
          2   -1    0    0  501    0  0.00000000000E+00 -0.00000000000E+00 -0.11715615312E+04  0.11715615312E+04  0.00000000000E+00 0. -1.
         24    2    1    2    0    0 -0.58047855256E+03  0.32376824597E+03 -0.44678183093E+03  0.80543910494E+03  0.85655824318E+02 0.  0.
        254    2    1    2    0    0  0.58047855256E+03 -0.32376824597E+03  0.28452148658E+02  0.11193542751E+04  0.90020177814E+03 0.  0.
         23    2    4    4    0    0  0.70999363908E+03  0.28415740525E+02  0.10927120426E+03  0.72468345145E+03  0.91255065009E+02 0.  0.
         23    2    4    4    0    0 -0.12951508652E+03 -0.35218398650E+03 -0.80819055600E+02  0.39467082366E+03  0.91791183217E+02 0.  0.
          2    1    3    3  502    0 -0.13126962664E+03  0.83904433988E+02 -0.64216958579E+02  0.16850960415E+03  0.00000000000E+00 0. -1.
         -1    1    3    3    0  502 -0.44920892592E+03  0.23986381199E+03 -0.38256487235E+03  0.63692950079E+03  0.00000000000E+00 0.  1.
         11    1    5    5    0    0  0.40537531284E+03 -0.13705838106E+02  0.27805361984E+02  0.40655889169E+03  0.00000000000E+00 0. -1.
        -11    1    5    5    0    0  0.30461832624E+03  0.42121578631E+02  0.81465842274E+02  0.31812455976E+03  0.00000000000E+00 0.  1.
          1    1    6    6  503    0 -0.69308719472E+02 -0.95927577032E+02  0.30910026296E+01  0.11838645584E+03  0.00000000000E+00 0. -1.
         -1    1    6    6    0  503 -0.60206367044E+02 -0.25625640947E+03 -0.83910058229E+02  0.27628436781E+03  0.00000000000E+00 0.  1.
<mgrwt>
<rscale>  0 0.18787841E+04</rscale>
<asrwt>0</asrwt>
<pdfrwt beam="1">  1        2 0.18024023E+00 0.18787841E+04</pdfrwt>
<pdfrwt beam="2">  1       -1 0.11588182E+00 0.18787841E+04</pdfrwt>
<totfact> 0.14204623E+01</totfact>
</mgrwt>
</event>
<event>
12    6  0.1553355E-007  0.2117367E+04  0.7818608E-02  0.8553632E-01
         -1   -1    0    0    0  501 -0.00000000000E+00  0.00000000000E+00  0.72372988147E+03  0.72372988147E+03  0.00000000000E+00 0.  1.
          2   -1    0    0  501    0  0.00000000000E+00 -0.00000000000E+00 -0.15486582994E+04  0.15486582994E+04  0.00000000000E+00 0. -1.
         24    2    1    2    0    0 -0.14198416483E+03  0.38006507307E+02  0.57740603044E+03  0.60121616002E+03  0.80368833628E+02 0.  0.
        254    2    1    2    0    0  0.14198416483E+03 -0.38006507307E+02 -0.14023344484E+04  0.16711720208E+04  0.89703401302E+03 0.  0.
         23    2    4    4    0    0  0.12117459643E+03  0.21063432129E+03 -0.13807065961E+04  0.14050345581E+04  0.93387925370E+02 0.  0.
         23    2    4    4    0    0  0.20809568400E+02 -0.24864082860E+03 -0.21627852223E+02  0.26613746278E+03  0.90033800984E+02 0.  0.
          2    1    3    3  502    0 -0.34465438198E+02 -0.15902608148E+02  0.24065861742E+03  0.24363359685E+03  0.00000000000E+00 0. -1.
         -1    1    3    3    0  502 -0.10751872663E+03  0.53909115455E+02  0.33674741302E+03  0.35758256317E+03  0.00000000000E+00 0.  1.
         11    1    5    5    0    0  0.49327445856E+02  0.14725109272E+03 -0.10229737577E+04  0.10346938630E+04  0.00000000000E+00 0.  1.
        -11    1    5    5    0    0  0.71847150574E+02  0.63383228569E+02 -0.35773283843E+03  0.37034069503E+03  0.00000000000E+00 0. -1.
          3    1    6    6  503    0 -0.23288758521E+02 -0.43633092748E+02  0.18181488743E+02  0.52695157170E+02  0.00000000000E+00 0. -1.
         -3    1    6    6    0  503  0.44098326921E+02 -0.20500773585E+03 -0.39809340966E+02  0.21344230561E+03  0.00000000000E+00 0.  1.
<mgrwt>
<rscale>  0 0.21173666E+04</rscale>
<asrwt>0</asrwt>
<pdfrwt beam="1">  1        2 0.23825512E+00 0.21173666E+04</pdfrwt>
<pdfrwt beam="2">  1       -1 0.11134306E+00 0.21173666E+04</pdfrwt>
<totfact> 0.92636059E+00</totfact>
</mgrwt>
</event>
<event>
12    6  0.1553355E-007  0.1840708E+04  0.7818608E-02  0.8684946E-01
         -1   -1    0    0    0  501 -0.00000000000E+00  0.00000000000E+00  0.32953510274E+03  0.32953510274E+03  0.00000000000E+00 0.  1.
          2   -1    0    0  501    0  0.00000000000E+00 -0.00000000000E+00 -0.25704438567E+04  0.25704438567E+04  0.00000000000E+00 0. -1.
         24    2    1    2    0    0 -0.15238178278E+02  0.16237608438E+03  0.21377849984E+03  0.28070070378E+03  0.80581904013E+02 0.  0.
        254    2    1    2    0    0  0.15238178278E+02 -0.16237608438E+03 -0.24546872538E+04  0.26192782556E+04  0.89918344722E+03 0.  0.
         23    2    4    4    0    0 -0.11784061449E+03  0.26073248945E+03 -0.17887983760E+04  0.18138323909E+04  0.91216614842E+02 0.  0.
         23    2    4    4    0    0  0.13307879277E+03 -0.42310857384E+03 -0.66588887777E+03  0.80544586473E+03  0.92758897856E+02 0.  0.
          4    1    3    3  502    0 -0.86641189297E+01  0.12503341046E+02  0.74366144867E+02  0.75906020818E+02  0.00000000000E+00 0. -1.
         -3    1    3    3    0  502 -0.65740593479E+01  0.14987274334E+03  0.13941235497E+03  0.20479468297E+03  0.00000000000E+00 0.  1.
         11    1    5    5    0    0 -0.96058240736E+02  0.15365581049E+03 -0.13251127037E+04  0.13374456890E+04  0.00000000000E+00 0.  1.
        -11    1    5    5    0    0 -0.21782373755E+02  0.10707667896E+03 -0.46368567235E+03  0.47638670188E+03  0.00000000000E+00 0. -1.
          3    1    6    6  503    0  0.64675033979E+02 -0.33389335262E+03 -0.48181107408E+03  0.58975379782E+03  0.00000000000E+00 0. -1.
         -3    1    6    6    0  503  0.68403758790E+02 -0.89215221216E+02 -0.18407780369E+03  0.21569206690E+03  0.00000000000E+00 0.  1.
<mgrwt>
<rscale>  0 0.18407080E+04</rscale>
<asrwt>0</asrwt>
<pdfrwt beam="1">  1        2 0.39545290E+00 0.18407080E+04</pdfrwt>
<pdfrwt beam="2">  1       -1 0.50697708E-01 0.18407080E+04</pdfrwt>
<totfact> 0.13280948E+01</totfact>
</mgrwt>
</event>
<event>
12    6  0.1553355E-007  0.1537634E+04  0.7818608E-02  0.8859805E-01
         -1   -1    0    0    0  501 -0.00000000000E+00  0.00000000000E+00  0.25488377392E+03  0.25488377392E+03  0.00000000000E+00 0.  1.
          2   -1    0    0  501    0  0.00000000000E+00 -0.00000000000E+00 -0.23190165966E+04  0.23190165966E+04  0.00000000000E+00 0. -1.
         24    2    1    2    0    0 -0.10068194146E+03  0.21944859746E+03  0.52103725494E+02  0.25908520455E+03  0.78203610806E+02 0.  0.
        254    2    1    2    0    0  0.10068194146E+03 -0.21944859746E+03 -0.21162365481E+04  0.23148151659E+04  0.90643123538E+03 0.  0.
         23    2    4    4    0    0  0.27162742010E+03  0.11749387638E+03 -0.17581763478E+04  0.17853165680E+04  0.92654798052E+02 0.  0.
         23    2    4    4    0    0 -0.17094547864E+03 -0.33694247384E+03 -0.35806020037E+03  0.52949859798E+03  0.97000365089E+02 0.  0.
          4    1    3    3  502    0 -0.52311379139E+01 -0.57996574587E+01 -0.29156855862E+01  0.83367891271E+01  0.00000000000E+00 0. -1.
         -3    1    3    3    0  502 -0.95450803545E+02  0.22524825492E+03  0.55019411080E+02  0.25074841543E+03  0.00000000000E+00 0.  1.
         11    1    5    5    0    0  0.18043136358E+03  0.43074044122E+02 -0.88418469724E+03  0.90343424170E+03  0.00000000000E+00 0. -1.
        -11    1    5    5    0    0  0.91196056520E+02  0.74419832254E+02 -0.87399165054E+03  0.88188232626E+03  0.00000000000E+00 0.  1.
          4    1    6    6  503    0 -0.17176982225E+03 -0.28826988838E+03 -0.27782188697E+03  0.43564825405E+03  0.00000000000E+00 0. -1.
         -4    1    6    6    0  503  0.82434360369E+00 -0.48672585463E+02 -0.80238313397E+02  0.93850343925E+02  0.00000000000E+00 0.  1.
<mgrwt>
<rscale>  0 0.15376342E+04</rscale>
<asrwt>0</asrwt>
<pdfrwt beam="1">  1        2 0.35677179E+00 0.15376342E+04</pdfrwt>
<pdfrwt beam="2">  1       -1 0.39212887E-01 0.15376342E+04</pdfrwt>
<totfact> 0.30696213E+01</totfact>
</mgrwt>
</event>
<event>
12    6  0.1885464E-007  0.1918644E+04  0.7818608E-02  0.8645632E-01
         -1   -1    0    0    0  501 -0.00000000000E+00  0.00000000000E+00  0.73234324690E+03  0.73234324690E+03  0.00000000000E+00 0.  1.
          2   -1    0    0  501    0  0.00000000000E+00 -0.00000000000E+00 -0.12566489133E+04  0.12566489133E+04  0.00000000000E+00 0. -1.
         24    2    1    2    0    0 -0.96604401223E+02  0.36482149023E+03  0.46405414085E+03  0.60382302075E+03  0.82636945049E+02 0.  0.
        254    2    1    2    0    0  0.96604401223E+02 -0.36482149023E+03 -0.98835980726E+03  0.13851691395E+04  0.89409804062E+03 0.  0.
         23    2    4    4    0    0 -0.33352371975E+03  0.43207601643E+02 -0.22609287496E+03  0.41518682826E+03  0.90316918561E+02 0.  0.
         23    2    4    4    0    0  0.43012812097E+03 -0.40802909187E+03 -0.76226693230E+03  0.96998231120E+03  0.91196862390E+02 0.  0.
          4    1    3    3  502    0  0.19036058784E+01  0.38296497847E+02  0.88858371555E+02  0.96778384250E+02  0.00000000000E+00 0. -1.
         -3    1    3    3    0  502 -0.98508007101E+02  0.32652499238E+03  0.37519576929E+03  0.50704463650E+03  0.00000000000E+00 0.  1.
         11    1    5    5    0    0 -0.33518036568E+03  0.31837696232E+02 -0.21736888936E+03  0.40076021571E+03  0.00000000000E+00 0.  1.
        -11    1    5    5    0    0  0.16566459298E+01  0.11369905411E+02 -0.87239856088E+01  0.14426612551E+02  0.00000000000E+00 0. -1.
          3    1    6    6  503    0  0.56355581397E+02 -0.94571110793E+02 -0.17221108770E+03  0.20439252745E+03  0.00000000000E+00 0. -1.
         -3    1    6    6    0  503  0.37377253957E+03 -0.31345798108E+03 -0.59005584460E+03  0.76558978375E+03  0.00000000000E+00 0.  1.
<mgrwt>
<rscale>  0 0.19186436E+04</rscale>
<asrwt>0</asrwt>
<pdfrwt beam="1">  1        2 0.19333060E+00 0.19186436E+04</pdfrwt>
<pdfrwt beam="2">  1       -1 0.11266819E+00 0.19186436E+04</pdfrwt>
<totfact> 0.13473456E+01</totfact>
</mgrwt>
</event>
<event>
12    6  0.1553355E-007  0.1226358E+04  0.7818608E-02  0.9090093E-01
          2   -1    0    0  501    0  0.00000000000E+00  0.00000000000E+00  0.98175955510E+03  0.98175955510E+03  0.00000000000E+00 0. -1.
         -1   -1    0    0    0  501 -0.00000000000E+00 -0.00000000000E+00 -0.38297429319E+03  0.38297429319E+03  0.00000000000E+00 0.  1.
         24    2    1    2    0    0 -0.44955438323E+02 -0.25897919395E+03  0.15474258619E+03  0.31498722645E+03  0.78615968545E+02 0.  0.
        254    2    1    2    0    0  0.44955438323E+02  0.25897919395E+03  0.44404267572E+03  0.10497466218E+04  0.91416784995E+03 0.  0.
         23    2    4    4    0    0  0.24876869964E+03 -0.21941371779E+03 -0.23616451668E+02  0.34473067963E+03  0.90847450243E+02 0.  0.
         23    2    4    4    0    0 -0.20381326131E+03  0.47839291174E+03  0.46765912739E+03  0.70501594222E+03  0.89122364518E+02 0.  0.
          4    1    3    3  502    0 -0.26612902185E+02 -0.11347769431E+03  0.11339754187E+03  0.16261745346E+03  0.00000000000E+00 0. -1.
         -3    1    3    3    0  502 -0.18342536138E+02 -0.14550149964E+03  0.41345044322E+02  0.15236977299E+03  0.00000000000E+00 0.  1.
         11    1    5    5    0    0  0.21515653795E+03 -0.16173760453E+03 -0.48472607139E+02  0.27349768222E+03  0.00000000000E+00 0.  1.
        -11    1    5    5    0    0  0.33612161692E+02 -0.57676113267E+02  0.24856155471E+02  0.71232997410E+02  0.00000000000E+00 0. -1.
          4    1    6    6  503    0 -0.14028396525E+02  0.12921017907E+03  0.10724558019E+03  0.16850424551E+03  0.00000000000E+00 0. -1.
         -4    1    6    6    0  503 -0.18978486479E+03  0.34918273267E+03  0.36041354720E+03  0.53651169671E+03  0.00000000000E+00 0.  1.
<mgrwt>
<rscale>  0 0.12263583E+04</rscale>
<asrwt>0</asrwt>
<pdfrwt beam="1">  1        2 0.15103993E+00 0.12263583E+04</pdfrwt>
<pdfrwt beam="2">  1       -1 0.58919122E-01 0.12263583E+04</pdfrwt>
<totfact> 0.84915681E+01</totfact>
</mgrwt>
</event>
<event>
12    6  0.1553355E-007  0.2149710E+04  0.7818608E-02  0.8539656E-01
         -1   -1    0    0    0  501 -0.00000000000E+00  0.00000000000E+00  0.71777778044E+03  0.71777778044E+03  0.00000000000E+00 0.  1.
          2   -1    0    0  501    0  0.00000000000E+00 -0.00000000000E+00 -0.16095695862E+04  0.16095695862E+04  0.00000000000E+00 0. -1.
         24    2    1    2    0    0 -0.85777291556E+03 -0.15071497922E+03 -0.58215279620E+03  0.10510329281E+04  0.85316810701E+02 0.  0.
        254    2    1    2    0    0  0.85777291556E+03  0.15071497922E+03 -0.30963900955E+03  0.12763144385E+04  0.88012092927E+03 0.  0.
         23    2    4    4    0    0  0.10144019527E+04  0.37680045208E+02 -0.20265095238E+03  0.10390955568E+04  0.90670062469E+02 0.  0.
         23    2    4    4    0    0 -0.15662903718E+03  0.11303493401E+03 -0.10698805717E+03  0.23721888169E+03  0.86699491672E+02 0.  0.
          4    1    3    3  502    0 -0.70542470393E+03 -0.11717456768E+03 -0.51478394159E+03  0.88111088902E+03  0.00000000000E+00 0. -1.
         -3    1    3    3    0  502 -0.15234821163E+03 -0.33540411538E+02 -0.67368854608E+02  0.16992203907E+03  0.00000000000E+00 0.  1.
         11    1    5    5    0    0  0.67809769459E+03  0.15902439582E+02 -0.17764063606E+03  0.70116015757E+03  0.00000000000E+00 0. -1.
        -11    1    5    5    0    0  0.33630425815E+03  0.21777605626E+02 -0.25010316313E+02  0.33793539927E+03  0.00000000000E+00 0.  1.
          4    1    6    6  503    0 -0.14597507670E+03  0.92257193505E+02 -0.12019082591E+03  0.21039474187E+03  0.00000000000E+00 0. -1.
         -4    1    6    6    0  503 -0.10653960478E+02  0.20777740509E+02  0.13202768744E+02  0.26824139819E+02  0.00000000000E+00 0.  1.
<mgrwt>
<rscale>  0 0.21497100E+04</rscale>
<asrwt>0</asrwt>
<pdfrwt beam="1">  1        2 0.24762609E+00 0.21497100E+04</pdfrwt>
<pdfrwt beam="2">  1       -1 0.11042735E+00 0.21497100E+04</pdfrwt>
<totfact> 0.87078369E+00</totfact>
</mgrwt>
</event>
<event>
12    6  0.1553355E-007  0.3410642E+04  0.7818608E-02  0.8135299E-01
         -1   -1    0    0    0  501 -0.00000000000E+00  0.00000000000E+00  0.15909717576E+04  0.15909717576E+04  0.00000000000E+00 0.  1.
          2   -1    0    0  501    0  0.00000000000E+00 -0.00000000000E+00 -0.18278887588E+04  0.18278887588E+04  0.00000000000E+00 0. -1.
         24    2    1    2    0    0  0.10227531481E+04 -0.11097387474E+04 -0.56618317513E+03  0.16138167969E+04  0.79354753797E+02 0.  0.
        254    2    1    2    0    0 -0.10227531481E+04  0.11097387474E+04  0.32926617392E+03  0.18050437194E+04  0.93392854454E+03 0.  0.
         23    2    4    4    0    0 -0.67489320311E+03  0.12220629919E+04  0.26370961595E+03  0.14236907703E+04  0.91836029296E+02 0.  0.
         23    2    4    4    0    0 -0.34785994496E+03 -0.11232424449E+03  0.65556557978E+02  0.38135294907E+03  0.86655249455E+02 0.  0.
          4    1    3    3  502    0  0.59035233622E+03 -0.58310478538E+03 -0.31787405111E+03  0.88857806859E+03  0.00000000000E+00 0. -1.
         -3    1    3    3    0  502  0.43240081185E+03 -0.52663396198E+03 -0.24830912401E+03  0.72523872833E+03  0.00000000000E+00 0.  1.
         11    1    5    5    0    0 -0.44930253936E+03  0.84452962829E+03  0.13980819760E+03  0.96677267082E+03  0.00000000000E+00 0. -1.
        -11    1    5    5    0    0 -0.22559066375E+03  0.37753336357E+03  0.12390141835E+03  0.45691809950E+03  0.00000000000E+00 0.  1.
          3    1    6    6  503    0 -0.27999225678E+03 -0.52656676354E+02  0.42132760751E+02  0.28799923428E+03  0.00000000000E+00 0. -1.
         -3    1    6    6    0  503 -0.67867688188E+02 -0.59667568141E+02  0.23423797228E+02  0.93353714786E+02  0.00000000000E+00 0.  1.
<mgrwt>
<rscale>  0 0.34106418E+04</rscale>
<asrwt>0</asrwt>
<pdfrwt beam="1">  1        2 0.28121365E+00 0.34106418E+04</pdfrwt>
<pdfrwt beam="2">  1       -1 0.24476489E+00 0.34106418E+04</pdfrwt>
<totfact> 0.59162705E-01</totfact>
</mgrwt>
</event>
<event>
12    6  0.1553355E-007  0.2206704E+04  0.7818608E-02  0.8515643E-01
         -1   -1    0    0    0  501 -0.00000000000E+00  0.00000000000E+00  0.79232926962E+03  0.79232926962E+03  0.00000000000E+00 0.  1.
          2   -1    0    0  501    0  0.00000000000E+00 -0.00000000000E+00 -0.15364638153E+04  0.15364638153E+04  0.00000000000E+00 0. -1.
         24    2    1    2    0    0 -0.80324624043E+03 -0.15504622062E+03  0.12847248202E+03  0.83175514231E+03  0.77894703422E+02 0.  0.
        254    2    1    2    0    0  0.80324624043E+03  0.15504622062E+03 -0.87260702767E+03  0.14970379426E+04  0.90024203605E+03 0.  0.
         23    2    4    4    0    0  0.62088161968E+02  0.41199636471E+03 -0.25907586985E+03  0.49787293683E+03  0.84623935741E+02 0.  0.
         23    2    4    4    0    0  0.74115807847E+03 -0.25695014409E+03 -0.61353115782E+03  0.99916500575E+03  0.81065117453E+02 0.  0.
          4    1    3    3  502    0 -0.15082454163E+01  0.35621527792E+01  0.30176148280E+01  0.49060917142E+01  0.00000000000E+00 0. -1.
         -3    1    3    3    0  502 -0.80173799502E+03 -0.15860837340E+03  0.12545486719E+03  0.82684905060E+03  0.00000000000E+00 0.  1.
         11    1    5    5    0    0  0.55314519100E+02  0.11199153283E+03 -0.82542980643E+02  0.14971687648E+03  0.00000000000E+00 0.  1.
        -11    1    5    5    0    0  0.67736428679E+01  0.30000483188E+03 -0.17653288920E+03  0.34815606036E+03  0.00000000000E+00 0. -1.
          1    1    6    6  503    0  0.45953246540E+03 -0.12642259483E+03 -0.34015615570E+03  0.58554160356E+03  0.00000000000E+00 0. -1.
         -1    1    6    6    0  503  0.28162561307E+03 -0.13052754926E+03 -0.27337500213E+03  0.41362340219E+03  0.00000000000E+00 0.  1.
<mgrwt>
<rscale>  0 0.22067037E+04</rscale>
<asrwt>0</asrwt>
<pdfrwt beam="1">  1        2 0.23637905E+00 0.22067037E+04</pdfrwt>
<pdfrwt beam="2">  1       -1 0.12189681E+00 0.22067037E+04</pdfrwt>
<totfact> 0.75043793E+00</totfact>
</mgrwt>
</event>
<event>
12    6  0.1553355E-007  0.2196831E+04  0.7818608E-02  0.8519748E-01
          2   -1    0    0  501    0  0.00000000000E+00  0.00000000000E+00  0.35551859399E+04  0.35551859399E+04  0.00000000000E+00 0. -1.
         -3   -1    0    0    0  501 -0.00000000000E+00 -0.00000000000E+00 -0.33936800328E+03  0.33936800328E+03  0.00000000000E+00 0.  1.
         24    2    1    2    0    0 -0.12292953340E+03 -0.76895997854E+03  0.49861004106E+03  0.92822435264E+03  0.81100906398E+02 0.  0.
        254    2    1    2    0    0  0.12292953340E+03  0.76895997854E+03  0.27172078956E+04  0.29663295906E+04  0.89971182787E+03 0.  0.
         23    2    4    4    0    0 -0.13861826028E+03 -0.13820447687E+03  0.78256354757E+03  0.81167004437E+03  0.89928056997E+02 0.  0.
         23    2    4    4    0    0  0.26154779368E+03  0.90716445541E+03  0.19346443480E+04  0.21546595462E+04  0.91402456921E+02 0.  0.
          2    1    3    3  502    0 -0.88907627506E-01 -0.23581178255E+03  0.14835498974E+03  0.27859721405E+03  0.00000000000E+00 0. -1.
         -1    1    3    3    0  502 -0.12284062577E+03 -0.53314819599E+03  0.35025505132E+03  0.64962713860E+03  0.00000000000E+00 0.  1.
         11    1    5    5    0    0 -0.46609226728E+02 -0.66664326203E+01  0.10066377833E+03  0.11113081304E+03  0.00000000000E+00 0.  1.
        -11    1    5    5    0    0 -0.92009033550E+02 -0.13153804425E+03  0.68189976924E+03  0.70053923132E+03  0.00000000000E+00 0. -1.
          1    1    6    6  503    0  0.19015366983E+03  0.54986379490E+03  0.11147411501E+04  0.12574404331E+04  0.00000000000E+00 0. -1.
         -1    1    6    6    0  503  0.71394123844E+02  0.35730066051E+03  0.81990319791E+03  0.89721911307E+03  0.00000000000E+00 0.  1.
<mgrwt>
<rscale>  0 0.21968308E+04</rscale>
<asrwt>0</asrwt>
<pdfrwt beam="1">  1        2 0.54695166E+00 0.21968308E+04</pdfrwt>
<pdfrwt beam="2">  1       -3 0.52210465E-01 0.21968308E+04</pdfrwt>
<totfact> 0.16000085E+00</totfact>
</mgrwt>
</event>
<event>
12    6  0.1553355E-007  0.1937025E+04  0.7818608E-02  0.8636643E-01
          2   -1    0    0  501    0  0.00000000000E+00  0.00000000000E+00  0.94599865040E+03  0.94599865040E+03  0.00000000000E+00 0. -1.
         -1   -1    0    0    0  501 -0.00000000000E+00 -0.00000000000E+00 -0.99156179394E+03  0.99156179394E+03  0.00000000000E+00 0.  1.
         24    2    1    2    0    0 -0.11873140531E+03  0.63575027044E+03 -0.41269735231E+03  0.77140074406E+03  0.80401805697E+02 0.  0.
        254    2    1    2    0    0  0.11873140531E+03 -0.63575027044E+03  0.36713420876E+03  0.11661597003E+04  0.89825684876E+03 0.  0.
         23    2    4    4    0    0  0.57746615060E+02  0.20594723712E+03 -0.16365939918E+02  0.23367517992E+03  0.92667738138E+02 0.  0.
         23    2    4    4    0    0  0.60984790245E+02 -0.84169750756E+03  0.38350014868E+03  0.93248452037E+03  0.10139614298E+03 0.  0.
          4    1    3    3  502    0 -0.34768916384E+02  0.10289508091E+03 -0.39998790588E+02  0.11574186136E+03  0.00000000000E+00 0. -1.
         -3    1    3    3    0  502 -0.83962488921E+02  0.53285518953E+03 -0.37269856172E+03  0.65565888270E+03  0.00000000000E+00 0.  1.
         11    1    5    5    0    0  0.47963300722E+02  0.49982432721E+02  0.22148987729E+02  0.72727570111E+02  0.00000000000E+00 0.  1.
        -11    1    5    5    0    0  0.97833143385E+01  0.15596480440E+03 -0.38514927647E+02  0.16094760980E+03  0.00000000000E+00 0. -1.
          3    1    6    6  503    0  0.24991770117E+01 -0.43813697307E+03  0.15312034649E+03  0.46412939313E+03  0.00000000000E+00 0. -1.
         -3    1    6    6    0  503  0.58485613234E+02 -0.40356053449E+03  0.23037980219E+03  0.46835512724E+03  0.00000000000E+00 0.  1.
<mgrwt>
<rscale>  0 0.19370246E+04</rscale>
<asrwt>0</asrwt>
<pdfrwt beam="1">  1        2 0.14553825E+00 0.19370246E+04</pdfrwt>
<pdfrwt beam="2">  1       -1 0.15254797E+00 0.19370246E+04</pdfrwt>
<totfact> 0.97008008E+00</totfact>
</mgrwt>
</event>
<event>
12    6  0.1553355E-007  0.3930639E+04  0.7818608E-02  0.8018687E-01
         -1   -1    0    0    0  501 -0.00000000000E+00  0.00000000000E+00  0.84639414059E+03  0.84639414059E+03  0.00000000000E+00 0.  1.
          2   -1    0    0  501    0  0.00000000000E+00 -0.00000000000E+00 -0.45634542871E+04  0.45634542871E+04  0.00000000000E+00 0. -1.
         24    2    1    2    0    0  0.12105057023E+03  0.13642857038E+04 -0.35005582795E+04  0.37598186047E+04  0.79993436101E+02 0.  0.
        254    2    1    2    0    0 -0.12105057023E+03 -0.13642857038E+04 -0.21650186706E+03  0.16500298230E+04  0.89431350000E+03 0.  0.
         23    2    4    4    0    0  0.24495290579E+03 -0.41163735038E+03 -0.37272803320E+03  0.61390793554E+03  0.92247126264E+02 0.  0.
         23    2    4    4    0    0 -0.36600347602E+03 -0.95264835345E+03  0.15622616613E+03  0.10361218875E+04  0.87432951474E+02 0.  0.
          2    1    3    3  502    0  0.10697424463E+03  0.97823916050E+03 -0.25938164712E+04  0.27742168679E+04  0.00000000000E+00 0. -1.
         -3    1    3    3    0  502  0.14076325600E+02  0.38604654332E+03 -0.90674180828E+03  0.98560173673E+03  0.00000000000E+00 0.  1.
         11    1    5    5    0    0  0.19587876815E+02 -0.21901298116E+02  0.80045269326E-01  0.29382957382E+02  0.00000000000E+00 0.  1.
        -11    1    5    5    0    0  0.22536502898E+03 -0.38973605226E+03 -0.37280807847E+03  0.58452497815E+03  0.00000000000E+00 0. -1.
          2    1    6    6  503    0 -0.24199018939E+03 -0.73037705463E+03  0.12869742187E+03  0.78011083833E+03  0.00000000000E+00 0. -1.
         -2    1    6    6    0  503 -0.12401328662E+03 -0.22227129882E+03  0.27528744260E+02  0.25601104917E+03  0.00000000000E+00 0.  1.
<mgrwt>
<rscale>  0 0.39306391E+04</rscale>
<asrwt>0</asrwt>
<pdfrwt beam="1">  1        2 0.70206989E+00 0.39306391E+04</pdfrwt>
<pdfrwt beam="2">  1       -1 0.13021448E+00 0.39306391E+04</pdfrwt>
<totfact> 0.48008692E-02</totfact>
</mgrwt>
</event>
<event>
12    6  0.1553355E-007  0.1639555E+04  0.7818608E-02  0.8796610E-01
          2   -1    0    0  501    0  0.00000000000E+00  0.00000000000E+00  0.28563443980E+04  0.28563443980E+04  0.00000000000E+00 0. -1.
         -1   -1    0    0    0  501 -0.00000000000E+00 -0.00000000000E+00 -0.23527797242E+03  0.23527797242E+03  0.00000000000E+00 0.  1.
         24    2    1    2    0    0  0.43413538967E+03  0.68519684502E+02  0.23444351128E+03  0.50463648959E+03  0.80782070503E+02 0.  0.
        254    2    1    2    0    0 -0.43413538967E+03 -0.68519684502E+02  0.23866229143E+04  0.25869858808E+04  0.89630269932E+03 0.  0.
         23    2    4    4    0    0 -0.95048106089E+02  0.26819974815E+03  0.23281779350E+03  0.37886689660E+03  0.91491819235E+02 0.  0.
         23    2    4    4    0    0 -0.33908728358E+03 -0.33671943265E+03  0.21538051208E+04  0.22081189842E+04  0.92481284148E+02 0.  0.
          4    1    3    3  502    0  0.15058682889E+03 -0.12322911214E+02  0.95024218614E+02  0.17848767268E+03  0.00000000000E+00 0. -1.
         -3    1    3    3    0  502  0.28354856078E+03  0.80842595716E+02  0.13941929266E+03  0.32614881691E+03  0.00000000000E+00 0.  1.
         11    1    5    5    0    0 -0.10034338652E+03  0.26058622629E+03  0.19666158566E+03  0.34154026970E+03  0.00000000000E+00 0.  1.
        -11    1    5    5    0    0  0.52952804334E+01  0.76135218605E+01  0.36156207848E+02  0.37326626903E+02  0.00000000000E+00 0. -1.
          3    1    6    6  503    0 -0.67941280480E+02 -0.22748903047E+02  0.34263376794E+03  0.35004489586E+03  0.00000000000E+00 0. -1.
         -3    1    6    6    0  503 -0.27114600310E+03 -0.31397052961E+03  0.18111713528E+04  0.18580740884E+04  0.00000000000E+00 0.  1.
<mgrwt>
<rscale>  0 0.16395547E+04</rscale>
<asrwt>0</asrwt>
<pdfrwt beam="1">  1        2 0.43943758E+00 0.16395547E+04</pdfrwt>
<pdfrwt beam="2">  1       -1 0.36196613E-01 0.16395547E+04</pdfrwt>
<totfact> 0.17064336E+01</totfact>
</mgrwt>
</event>
<event>
12    6  0.1553355E-007  0.1600626E+04  0.7818608E-02  0.8820164E-01
         -1   -1    0    0    0  501 -0.00000000000E+00  0.00000000000E+00  0.70899232689E+03  0.70899232689E+03  0.00000000000E+00 0.  1.
          2   -1    0    0  501    0  0.00000000000E+00 -0.00000000000E+00 -0.90339575934E+03  0.90339575934E+03  0.00000000000E+00 0. -1.
         24    2    1    2    0    0  0.12960681033E+02 -0.16139664271E+02  0.47696219804E+03  0.48400104054E+03  0.79596487800E+02 0.  0.
        254    2    1    2    0    0 -0.12960681033E+02  0.16139664271E+02 -0.67136563049E+03  0.11283870457E+04  0.90669567499E+03 0.  0.
         23    2    4    4    0    0  0.73948592296E+02 -0.13888255914E+03 -0.84418174451E+03  0.86359059869E+03  0.91592274996E+02 0.  0.
         23    2    4    4    0    0 -0.86909273328E+02  0.15502222341E+03  0.17281611402E+03  0.26479644700E+03  0.93094777165E+02 0.  0.
          4    1    3    3  502    0 -0.39876035207E+01  0.25906385986E+02  0.74160631423E+02  0.78656475066E+02  0.00000000000E+00 0. -1.
         -3    1    3    3    0  502  0.16948284553E+02 -0.42046050256E+02  0.40280156662E+03  0.40534456548E+03  0.00000000000E+00 0.  1.
         11    1    5    5    0    0  0.13271829957E+02 -0.10219408317E+03 -0.61867527139E+03  0.62719922157E+03  0.00000000000E+00 0. -1.
        -11    1    5    5    0    0  0.60676762339E+02 -0.36688475964E+02 -0.22550647312E+03  0.23639137712E+03  0.00000000000E+00 0.  1.
          3    1    6    6  503    0 -0.96827393006E+02  0.13986452716E+03  0.17773821081E+03  0.24602540840E+03  0.00000000000E+00 0. -1.
         -3    1    6    6    0  503  0.99181196779E+01  0.15157696243E+02 -0.49220967858E+01  0.18771038600E+02  0.00000000000E+00 0.  1.
<mgrwt>
<rscale>  0 0.16006257E+04</rscale>
<asrwt>0</asrwt>
<pdfrwt beam="1">  1        2 0.13898396E+00 0.16006257E+04</pdfrwt>
<pdfrwt beam="2">  1       -1 0.10907574E+00 0.16006257E+04</pdfrwt>
<totfact> 0.24856974E+01</totfact>
</mgrwt>
</event>
<event>
12    6  0.1553355E-007  0.1545890E+04  0.7818608E-02  0.8854498E-01
         -1   -1    0    0    0  501 -0.00000000000E+00  0.00000000000E+00  0.21068475567E+03  0.21068475567E+03  0.00000000000E+00 0.  1.
          2   -1    0    0  501    0  0.00000000000E+00 -0.00000000000E+00 -0.28357232154E+04  0.28357232154E+04  0.00000000000E+00 0. -1.
         24    2    1    2    0    0 -0.24615891839E+03 -0.14351642925E+03 -0.43869149217E+02  0.29872551003E+03  0.78238414654E+02 0.  0.
        254    2    1    2    0    0  0.24615891839E+03  0.14351642925E+03 -0.25811693105E+04  0.27476824611E+04  0.89784893973E+03 0.  0.
         23    2    4    4    0    0  0.44101410978E+03 -0.12338279371E+03 -0.21308410690E+04  0.21813727407E+04  0.90479907540E+02 0.  0.
         23    2    4    4    0    0 -0.19485519139E+03  0.26689922296E+03 -0.45032824150E+03  0.56630972033E+03  0.93313629358E+02 0.  0.
          4    1    3    3  502    0 -0.10205897168E+03 -0.10454803608E+03 -0.25716778965E+02  0.14834985093E+03  0.00000000000E+00 0. -1.
         -3    1    3    3    0  502 -0.14409994671E+03 -0.38968393161E+02 -0.18152370252E+02  0.15037565911E+03  0.00000000000E+00 0.  1.
         11    1    5    5    0    0  0.23562563833E+03 -0.80014115765E+02 -0.13536234150E+04  0.13763059433E+04  0.00000000000E+00 0. -1.
        -11    1    5    5    0    0  0.20538847145E+03 -0.43368677947E+02 -0.77721765408E+03  0.80506679738E+03  0.00000000000E+00 0.  1.
          3    1    6    6  503    0 -0.55730075198E+02  0.11930935071E+03 -0.11715744865E+03  0.17625671682E+03  0.00000000000E+00 0. -1.
         -3    1    6    6    0  503 -0.13912511620E+03  0.14758987225E+03 -0.33317079284E+03  0.39005300351E+03  0.00000000000E+00 0.  1.
<mgrwt>
<rscale>  0 0.15458896E+04</rscale>
<asrwt>0</asrwt>
<pdfrwt beam="1">  1        2 0.43626511E+00 0.15458896E+04</pdfrwt>
<pdfrwt beam="2">  1       -1 0.32413039E-01 0.15458896E+04</pdfrwt>
<totfact> 0.21575203E+01</totfact>
</mgrwt>
</event>
<event>
12    6  0.1553355E-007  0.2153494E+04  0.7818608E-02  0.8538038E-01
         -1   -1    0    0    0  501 -0.00000000000E+00  0.00000000000E+00  0.10619614980E+04  0.10619614980E+04  0.00000000000E+00 0.  1.
          2   -1    0    0  501    0  0.00000000000E+00 -0.00000000000E+00 -0.10917388029E+04  0.10917388029E+04  0.00000000000E+00 0. -1.
         24    2    1    2    0    0 -0.15623191241E+03  0.86667872451E+03 -0.16374550238E+03  0.89931437814E+03  0.80083326632E+02 0.  0.
        254    2    1    2    0    0  0.15623191241E+03 -0.86667872451E+03  0.13396819745E+03  0.12543859227E+04  0.88317390314E+03 0.  0.
         23    2    4    4    0    0  0.26561297873E+03  0.70241023709E+02 -0.42969199013E+02  0.29086833971E+03  0.85287649169E+02 0.  0.
         23    2    4    4    0    0 -0.10938106632E+03 -0.93691974821E+03  0.17693739646E+03  0.96351758299E+03  0.85302158253E+02 0.  0.
          2    1    3    3  502    0 -0.12372148870E+03  0.80425287375E+03 -0.14571360932E+03  0.82665721291E+03  0.00000000000E+00 0. -1.
         -1    1    3    3    0  502 -0.32510423710E+02  0.62425850752E+02 -0.18031893055E+02  0.72657165229E+02  0.00000000000E+00 0.  1.
         11    1    5    5    0    0  0.57610612049E+02 -0.40147023509E+00  0.22189308817E+02  0.61737421591E+02  0.00000000000E+00 0.  1.
        -11    1    5    5    0    0  0.20800236668E+03  0.70642493944E+02 -0.65158507830E+02  0.22913091812E+03  0.00000000000E+00 0. -1.
          1    1    6    6  503    0 -0.58272046550E+02 -0.71539455304E+03  0.16110733935E+03  0.73562257491E+03  0.00000000000E+00 0. -1.
         -1    1    6    6    0  503 -0.51109019774E+02 -0.22152519517E+03  0.15830057114E+02  0.22789500808E+03  0.00000000000E+00 0.  1.
<mgrwt>
<rscale>  0 0.21534944E+04</rscale>
<asrwt>0</asrwt>
<pdfrwt beam="1">  1        2 0.16795982E+00 0.21534944E+04</pdfrwt>
<pdfrwt beam="2">  1       -1 0.16337869E+00 0.21534944E+04</pdfrwt>
<totfact> 0.63562544E+00</totfact>
</mgrwt>
</event>
<event>
12    6  0.1553355E-007  0.1694446E+04  0.7818608E-02  0.8764538E-01
          2   -1    0    0  501    0  0.00000000000E+00  0.00000000000E+00  0.14635050788E+04  0.14635050788E+04  0.00000000000E+00 0. -1.
         -1   -1    0    0    0  501 -0.00000000000E+00 -0.00000000000E+00 -0.49045746201E+03  0.49045746201E+03  0.00000000000E+00 0.  1.
         24    2    1    2    0    0  0.15251619025E+01  0.57315034719E+03  0.12872987373E+03  0.59315108654E+03  0.82177761423E+02 0.  0.
        254    2    1    2    0    0 -0.15251619025E+01 -0.57315034719E+03  0.84431774301E+03  0.13608114542E+04  0.90023981038E+03 0.  0.
         23    2    4    4    0    0  0.38207888883E+03 -0.15353403516E+03  0.60579148406E+03  0.73818638193E+03  0.91535976892E+02 0.  0.
         23    2    4    4    0    0 -0.38360405073E+03 -0.41961631202E+03  0.23852625895E+03  0.62262507230E+03  0.86817552297E+02 0.  0.
          2    1    3    3  502    0  0.29857832924E+01  0.40108919849E+02  0.32011728021E+02  0.51404193255E+02  0.00000000000E+00 0. -1.
         -1    1    3    3    0  502 -0.14606213899E+01  0.53304142734E+03  0.96718145709E+02  0.54174689328E+03  0.00000000000E+00 0.  1.
         11    1    5    5    0    0  0.33601733626E+03 -0.16124748617E+03  0.56068284247E+03  0.67325600770E+03  0.00000000000E+00 0. -1.
        -11    1    5    5    0    0  0.46061552572E+02  0.77134510089E+01  0.45108641591E+02  0.64930374233E+02  0.00000000000E+00 0.  1.
          3    1    6    6  503    0 -0.38124619943E+03 -0.41353340442E+03  0.24493941420E+03  0.61347686001E+03  0.00000000000E+00 0. -1.
         -3    1    6    6    0  503 -0.23578513073E+01 -0.60829076071E+01 -0.64131552463E+01  0.91482122820E+01  0.00000000000E+00 0.  1.
<mgrwt>
<rscale>  0 0.16944462E+04</rscale>
<asrwt>0</asrwt>
<pdfrwt beam="1">  1        2 0.22515463E+00 0.16944462E+04</pdfrwt>
<pdfrwt beam="2">  1       -1 0.75454995E-01 0.16944462E+04</pdfrwt>
<totfact> 0.25495871E+01</totfact>
</mgrwt>
</event>
<event>
12    6  0.1553355E-007  0.2350543E+04  0.7818608E-02  0.8458255E-01
          2   -1    0    0  501    0  0.00000000000E+00  0.00000000000E+00  0.28064718513E+04  0.28064718513E+04  0.00000000000E+00 0. -1.
         -1   -1    0    0    0  501 -0.00000000000E+00 -0.00000000000E+00 -0.49217048240E+03  0.49217048240E+03  0.00000000000E+00 0.  1.
         24    2    1    2    0    0 -0.98384778045E+02 -0.37219336447E+03 -0.30795775890E+03  0.49940527064E+03  0.79750724003E+02 0.  0.
        254    2    1    2    0    0  0.98384778045E+02  0.37219336447E+03  0.26222591278E+04  0.27992370630E+04  0.90070957405E+03 0.  0.
         23    2    4    4    0    0 -0.24733094193E+03  0.52227046547E+03  0.14210179072E+04  0.15367974690E+04  0.92279651976E+02 0.  0.
         23    2    4    4    0    0  0.34571571997E+03 -0.15007710101E+03  0.12012412206E+04  0.12624395941E+04  0.93438553732E+02 0.  0.
          4    1    3    3  502    0 -0.32937016757E+02 -0.25568747304E+03 -0.18025671384E+03  0.31456861545E+03  0.00000000000E+00 0. -1.
         -3    1    3    3    0  502 -0.65447761288E+02 -0.11650589143E+03 -0.12770104506E+03  0.18483665520E+03  0.00000000000E+00 0.  1.
         11    1    5    5    0    0 -0.36940180120E+02  0.11965382302E+03  0.22644519937E+03  0.25876445388E+03  0.00000000000E+00 0. -1.
        -11    1    5    5    0    0 -0.21039076181E+03  0.40261664245E+03  0.11945727078E+04  0.12780330151E+04  0.00000000000E+00 0.  1.
          3    1    6    6  503    0  0.95944564133E+01 -0.73217443838E+01  0.13214077624E+03  0.13269079199E+03  0.00000000000E+00 0. -1.
         -3    1    6    6    0  503  0.33612126356E+03 -0.14275535662E+03  0.10691004444E+04  0.11297488021E+04  0.00000000000E+00 0.  1.
<mgrwt>
<rscale>  0 0.23505426E+04</rscale>
<asrwt>0</asrwt>
<pdfrwt beam="1">  1        2 0.43176489E+00 0.23505426E+04</pdfrwt>
<pdfrwt beam="2">  1       -1 0.75718537E-01 0.23505426E+04</pdfrwt>
<totfact> 0.41259781E+00</totfact>
</mgrwt>
</event>
<event>
12    6  0.1553355E-007  0.3435724E+04  0.7818608E-02  0.8129194E-01
         -1   -1    0    0    0  501 -0.00000000000E+00  0.00000000000E+00  0.12310920041E+04  0.12310920041E+04  0.00000000000E+00 0.  1.
          2   -1    0    0  501    0  0.00000000000E+00 -0.00000000000E+00 -0.23970996285E+04  0.23970996285E+04  0.00000000000E+00 0. -1.
         24    2    1    2    0    0 -0.42111044621E+03 -0.11567418736E+03 -0.21696458968E+04  0.22145733837E+04  0.79103911496E+02 0.  0.
        254    2    1    2    0    0  0.42111044621E+03  0.11567418736E+03  0.10036382724E+04  0.14136182488E+04  0.89460172483E+03 0.  0.
         23    2    4    4    0    0  0.64579928390E+02 -0.15256234640E+03 -0.10372032354E+03  0.21634960011E+03  0.92754553872E+02 0.  0.
         23    2    4    4    0    0  0.35653051782E+03  0.26823653376E+03  0.11073585959E+04  0.11972686487E+04  0.90245825560E+02 0.  0.
          2    1    3    3  502    0 -0.40202102754E+03 -0.93233035299E+02 -0.19697428113E+04  0.20125108815E+04  0.00000000000E+00 0. -1.
         -1    1    3    3    0  502 -0.19089418670E+02 -0.22441152056E+02 -0.19990308550E+03  0.20206250222E+03  0.00000000000E+00 0.  1.
         11    1    5    5    0    0  0.22488923511E+02 -0.33680102676E+02 -0.77640001485E+02  0.87567521534E+02  0.00000000000E+00 0.  1.
        -11    1    5    5    0    0  0.42091004879E+02 -0.11888224372E+03 -0.26080322052E+02  0.12878207858E+03  0.00000000000E+00 0. -1.
          4    1    6    6  503    0  0.14778664076E+03  0.59065203780E+02  0.36023824513E+03  0.39382887495E+03  0.00000000000E+00 0. -1.
         -4    1    6    6    0  503  0.20874387706E+03  0.20917132998E+03  0.74712035080E+03  0.80343977377E+03  0.00000000000E+00 0.  1.
<mgrwt>
<rscale>  0 0.34357242E+04</rscale>
<asrwt>0</asrwt>
<pdfrwt beam="1">  1        2 0.36878456E+00 0.34357242E+04</pdfrwt>
<pdfrwt beam="2">  1       -1 0.18939877E+00 0.34357242E+04</pdfrwt>
<totfact> 0.66847737E-01</totfact>
</mgrwt>
</event>
<event>
12    6  0.1553355E-007  0.1341669E+04  0.7818608E-02  0.8997158E-01
         -1   -1    0    0    0  501 -0.00000000000E+00  0.00000000000E+00  0.12573263821E+03  0.12573263821E+03  0.00000000000E+00 0.  1.
          2   -1    0    0  501    0  0.00000000000E+00 -0.00000000000E+00 -0.35791752858E+04  0.35791752858E+04  0.00000000000E+00 0. -1.
         24    2    1    2    0    0  0.17105770448E+03  0.28909784984E+03 -0.60142522961E+03  0.69499777148E+03  0.92039613793E+02 0.  0.
        254    2    1    2    0    0 -0.17105770448E+03 -0.28909784984E+03 -0.28520174179E+04  0.30099101525E+04  0.90150844080E+03 0.  0.
         23    2    4    4    0    0  0.18723739519E+03 -0.22795713070E+03 -0.24147931403E+04  0.24344669991E+04  0.91549787414E+02 0.  0.
         23    2    4    4    0    0 -0.35829509967E+03 -0.61140719145E+02 -0.43722427767E+03  0.57544315345E+03  0.88635139112E+02 0.  0.
          2    1    3    3  502    0 -0.89661909526E+01  0.39520938926E+02 -0.73453478328E+02  0.83891064317E+02  0.00000000000E+00 0. -1.
         -1    1    3    3    0  502  0.18002389543E+03  0.24957691092E+03 -0.52797175128E+03  0.61110670717E+03  0.00000000000E+00 0.  1.
         11    1    5    5    0    0  0.91765357865E+02 -0.17803398725E+03 -0.16540853105E+04  0.16661678174E+04  0.00000000000E+00 0. -1.
        -11    1    5    5    0    0  0.95472037323E+02 -0.49923143452E+02 -0.76070782982E+03  0.76829918165E+03  0.00000000000E+00 0.  1.
          3    1    6    6  503    0 -0.23923382156E+03 -0.24273038342E+02 -0.22493046014E+03  0.32926541523E+03  0.00000000000E+00 0. -1.
         -3    1    6    6    0  503 -0.11906127811E+03 -0.36867680803E+02 -0.21229381754E+03  0.24617773822E+03  0.00000000000E+00 0.  1.
<mgrwt>
<rscale>  0 0.13416693E+04</rscale>
<asrwt>0</asrwt>
<pdfrwt beam="1">  1        2 0.55064240E+00 0.13416693E+04</pdfrwt>
<pdfrwt beam="2">  1       -1 0.19343481E-01 0.13416693E+04</pdfrwt>
<totfact> 0.17567329E+01</totfact>
</mgrwt>
</event>
<event>
12    6  0.1553355E-007  0.1283442E+04  0.7818608E-02  0.9042800E-01
         -1   -1    0    0    0  501 -0.00000000000E+00  0.00000000000E+00  0.12133123309E+03  0.12133123309E+03  0.00000000000E+00 0.  1.
          2   -1    0    0  501    0  0.00000000000E+00 -0.00000000000E+00 -0.33940606698E+04  0.33940606698E+04  0.00000000000E+00 0. -1.
         24    2    1    2    0    0 -0.81592432410E+02 -0.28028825229E+03 -0.68035165134E+03  0.74653720038E+03  0.96023917237E+02 0.  0.
        254    2    1    2    0    0  0.81592432410E+02  0.28028825229E+03 -0.25923777854E+04  0.27688547025E+04  0.92785502751E+03 0.  0.
         23    2    4    4    0    0  0.74531981778E+02  0.58140738503E+03 -0.11709192022E+04  0.13128223301E+04  0.94133568340E+02 0.  0.
         23    2    4    4    0    0  0.70604506321E+01 -0.30111913275E+03 -0.14214585832E+04  0.14560323724E+04  0.93611877968E+02 0.  0.
          4    1    3    3  502    0 -0.40216074331E+02 -0.63908646680E+02 -0.27512592521E+03  0.28529970641E+03  0.00000000000E+00 0. -1.
         -3    1    3    3    0  502 -0.41376358079E+02 -0.21637960561E+03 -0.40522572613E+03  0.46123749397E+03  0.00000000000E+00 0.  1.
         11    1    5    5    0    0  0.83398291905E+02  0.51525410722E+03 -0.10850291509E+04  0.12040474776E+04  0.00000000000E+00 0.  1.
        -11    1    5    5    0    0 -0.88663101268E+01  0.66153277818E+02 -0.85890051365E+02  0.10877485254E+03  0.00000000000E+00 0. -1.
          1    1    6    6  503    0  0.70283024515E+01 -0.28979540139E+02 -0.32265555904E+03  0.32403058584E+03  0.00000000000E+00 0. -1.
         -1    1    6    6    0  503  0.32148180608E-01 -0.27213959261E+03 -0.10988030241E+04  0.11320017865E+04  0.00000000000E+00 0.  1.
<mgrwt>
<rscale>  0 0.12834416E+04</rscale>
<asrwt>0</asrwt>
<pdfrwt beam="1">  1        2 0.52216324E+00 0.12834416E+04</pdfrwt>
<pdfrwt beam="2">  1       -1 0.18666341E-01 0.12834416E+04</pdfrwt>
<totfact> 0.25168080E+01</totfact>
</mgrwt>
</event>
<event>
12    6  0.1553355E-007  0.1785981E+04  0.7818608E-02  0.8713790E-01
          2   -1    0    0  501    0  0.00000000000E+00  0.00000000000E+00  0.31952940154E+04  0.31952940154E+04  0.00000000000E+00 0. -1.
         -1   -1    0    0    0  501 -0.00000000000E+00 -0.00000000000E+00 -0.24956460855E+03  0.24956460855E+03  0.00000000000E+00 0.  1.
         24    2    1    2    0    0  0.48437536396E+03  0.44405885912E+03  0.10096486761E+04  0.12083487839E+04  0.94385225486E+02 0.  0.
        254    2    1    2    0    0 -0.48437536396E+03 -0.44405885912E+03  0.19360807307E+04  0.22365098401E+04  0.90650973804E+03 0.  0.
         23    2    4    4    0    0  0.17524708786E+02  0.21266281359E+03  0.77741610529E+03  0.81038370286E+03  0.82543063914E+02 0.  0.
         23    2    4    4    0    0 -0.50190007275E+03 -0.65672167271E+03  0.11586646255E+04  0.14261261372E+04  0.90249689740E+02 0.  0.
          4    1    3    3  502    0  0.47675920330E+03  0.41104694979E+03  0.94711140314E+03  0.11372242272E+04  0.00000000000E+00 0. -1.
         -3    1    3    3    0  502  0.76161606578E+01  0.33011909335E+02  0.62537272988E+02  0.71124556757E+02  0.00000000000E+00 0.  1.
         11    1    5    5    0    0 -0.12427407135E+02  0.52550094699E+02  0.32677540422E+03  0.33120706168E+03  0.00000000000E+00 0. -1.
        -11    1    5    5    0    0  0.29952115921E+02  0.16011271889E+03  0.45064070107E+03  0.47917664118E+03  0.00000000000E+00 0.  1.
          3    1    6    6  503    0 -0.33655099368E+03 -0.49556455877E+03  0.79662286774E+03  0.99672403235E+03  0.00000000000E+00 0. -1.
         -3    1    6    6    0  503 -0.16534907906E+03 -0.16115711394E+03  0.36204175772E+03  0.42940210486E+03  0.00000000000E+00 0.  1.
<mgrwt>
<rscale>  0 0.17859813E+04</rscale>
<asrwt>0</asrwt>
<pdfrwt beam="1">  1        2 0.49158367E+00 0.17859813E+04</pdfrwt>
<pdfrwt beam="2">  1       -1 0.38394557E-01 0.17859813E+04</pdfrwt>
<totfact> 0.92752603E+00</totfact>
</mgrwt>
</event>
<event>
12    6  0.1553355E-007  0.2333989E+04  0.7818608E-02  0.8464639E-01
          2   -1    0    0  501    0  0.00000000000E+00  0.00000000000E+00  0.13597516358E+04  0.13597516358E+04  0.00000000000E+00 0. -1.
         -1   -1    0    0    0  501 -0.00000000000E+00 -0.00000000000E+00 -0.10015625810E+04  0.10015625810E+04  0.00000000000E+00 0.  1.
         24    2    1    2    0    0  0.78933338798E+03 -0.46708410793E+03  0.53334645886E+03  0.10640039728E+04  0.80195060127E+02 0.  0.
        254    2    1    2    0    0 -0.78933338798E+03  0.46708410793E+03 -0.17515740409E+03  0.12973102440E+04  0.90062144756E+03 0.  0.
         23    2    4    4    0    0 -0.96554762206E+03  0.38685512394E+03 -0.24584461138E+03  0.10726445090E+04  0.90485205296E+02 0.  0.
         23    2    4    4    0    0  0.17621423408E+03  0.80228983999E+02  0.70687207297E+02  0.22466573503E+03  0.89386045081E+02 0.  0.
          4    1    3    3  502    0  0.23183436177E+03 -0.17386880770E+03  0.14542403735E+03  0.32423091189E+03  0.00000000000E+00 0. -1.
         -3    1    3    3    0  502  0.55749902621E+03 -0.29321530024E+03  0.38792242152E+03  0.73977306090E+03  0.00000000000E+00 0.  1.
         11    1    5    5    0    0 -0.33131693791E+02  0.27892824812E+02  0.15778463316E+01  0.43338301864E+02  0.00000000000E+00 0. -1.
        -11    1    5    5    0    0 -0.93241592827E+03  0.35896229912E+03 -0.24742245772E+03  0.10293062071E+04  0.00000000000E+00 0.  1.
          1    1    6    6  503    0  0.22505306201E+02 -0.19683436969E+02  0.86154468947E+01  0.31115147811E+02  0.00000000000E+00 0. -1.
         -1    1    6    6    0  503  0.15370892788E+03  0.99912420967E+02  0.62071760402E+02  0.19355058722E+03  0.00000000000E+00 0.  1.
<mgrwt>
<rscale>  0 0.23339892E+04</rscale>
<asrwt>0</asrwt>
<pdfrwt beam="1">  1        2 0.20919256E+00 0.23339892E+04</pdfrwt>
<pdfrwt beam="2">  1       -1 0.15408655E+00 0.23339892E+04</pdfrwt>
<totfact> 0.50999208E+00</totfact>
</mgrwt>
</event>
<event>
12    6  0.1553355E-007  0.2221391E+04  0.7818608E-02  0.8509577E-01
         -1   -1    0    0    0  501 -0.00000000000E+00  0.00000000000E+00  0.11028680313E+04  0.11028680313E+04  0.00000000000E+00 0.  1.
          2   -1    0    0  501    0  0.00000000000E+00 -0.00000000000E+00 -0.11185780973E+04  0.11185780973E+04  0.00000000000E+00 0. -1.
         24    2    1    2    0    0 -0.31031015791E+03  0.82039437853E+03 -0.30014592287E+03  0.93033608406E+03  0.78091765692E+02 0.  0.
        254    2    1    2    0    0  0.31031015791E+03 -0.82039437853E+03  0.28443585683E+03  0.12911100445E+04  0.90372676179E+03 0.  0.
         23    2    4    4    0    0 -0.30850928351E+03 -0.35516525786E+03  0.12920059754E+03  0.49640064539E+03  0.91654066688E+02 0.  0.
         23    2    4    4    0    0  0.61881944142E+03 -0.46522912067E+03  0.15523525930E+03  0.79470939913E+03  0.89941133725E+02 0.  0.
          2    1    3    3  502    0 -0.25692461536E+03  0.63957194353E+03 -0.26564111203E+03  0.73866618261E+03  0.00000000000E+00 0. -1.
         -1    1    3    3    0  502 -0.53385542549E+02  0.18082243500E+03 -0.34504810841E+02  0.19166990146E+03  0.00000000000E+00 0.  1.
         11    1    5    5    0    0 -0.22123502691E+03 -0.28373354622E+03  0.61930837023E+02  0.36508230710E+03  0.00000000000E+00 0.  1.
        -11    1    5    5    0    0 -0.87274256601E+02 -0.71431711641E+02  0.67269760512E+02  0.13131833829E+03  0.00000000000E+00 0. -1.
          4    1    6    6  503    0  0.16035403918E+03 -0.12295049191E+03  0.81316472278E+02  0.21781324571E+03  0.00000000000E+00 0. -1.
         -4    1    6    6    0  503  0.45846540224E+03 -0.34227862876E+03  0.73918787020E+02  0.57689615342E+03  0.00000000000E+00 0.  1.
<mgrwt>
<rscale>  0 0.22213906E+04</rscale>
<asrwt>0</asrwt>
<pdfrwt beam="1">  1        2 0.17208894E+00 0.22213906E+04</pdfrwt>
<pdfrwt beam="2">  1       -1 0.16967201E+00 0.22213906E+04</pdfrwt>
<totfact> 0.54623769E+00</totfact>
</mgrwt>
</event>
<event>
12    6  0.1553355E-007  0.2731090E+04  0.7818608E-02  0.8324987E-01
          2   -1    0    0  501    0  0.00000000000E+00  0.00000000000E+00  0.21002253580E+04  0.21002253580E+04  0.00000000000E+00 0. -1.
         -1   -1    0    0    0  501 -0.00000000000E+00 -0.00000000000E+00 -0.88786317567E+03  0.88786317567E+03  0.00000000000E+00 0.  1.
         24    2    1    2    0    0 -0.99135118724E+03 -0.67749230318E+03  0.74583211909E+03  0.14158098720E+04  0.80492524899E+02 0.  0.
        254    2    1    2    0    0  0.99135118724E+03  0.67749230318E+03  0.46653006329E+03  0.15722786617E+04  0.90146375009E+03 0.  0.
         23    2    4    4    0    0  0.65415895820E+03  0.70503454964E+02 -0.10107355790E+03  0.67116294650E+03  0.85727223821E+02 0.  0.
         23    2    4    4    0    0  0.33719222904E+03  0.60698884821E+03  0.56760362118E+03  0.90111571518E+03  0.87758761261E+02 0.  0.
          2    1    3    3  502    0 -0.89045456839E+03 -0.63083991018E+03  0.69315287123E+03  0.12927989919E+04  0.00000000000E+00 0. -1.
         -1    1    3    3    0  502 -0.10089661885E+03 -0.46652392994E+02  0.52679247863E+02  0.12301088010E+03  0.00000000000E+00 0.  1.
         11    1    5    5    0    0  0.22536145593E+03  0.31565359490E+02 -0.75824488799E+02  0.23986144092E+03  0.00000000000E+00 0.  1.
        -11    1    5    5    0    0  0.42879750227E+03  0.38938095474E+02 -0.25249069100E+02  0.43130150559E+03  0.00000000000E+00 0. -1.
          1    1    6    6  503    0  0.28134274357E+03  0.45920408233E+03  0.47438120119E+03  0.71767656547E+03  0.00000000000E+00 0. -1.
         -1    1    6    6    0  503  0.55849485473E+02  0.14778476589E+03  0.93222419998E+02  0.18343914971E+03  0.00000000000E+00 0.  1.
<mgrwt>
<rscale>  0 0.27310897E+04</rscale>
<asrwt>0</asrwt>
<pdfrwt beam="1">  1        2 0.32311159E+00 0.27310897E+04</pdfrwt>
<pdfrwt beam="2">  1       -1 0.13659434E+00 0.27310897E+04</pdfrwt>
<totfact> 0.26130542E+00</totfact>
</mgrwt>
</event>
<event>
12    6  0.1553355E-007  0.1330161E+04  0.7818608E-02  0.9005984E-01
          2   -1    0    0  501    0  0.00000000000E+00  0.00000000000E+00  0.96492872436E+03  0.96492872436E+03  0.00000000000E+00 0. -1.
         -1   -1    0    0    0  501 -0.00000000000E+00 -0.00000000000E+00 -0.45840886760E+03  0.45840886760E+03  0.00000000000E+00 0.  1.
         24    2    1    2    0    0 -0.19143777779E+03 -0.41356371222E+02 -0.19013361059E+03  0.28450511978E+03  0.80209731921E+02 0.  0.
        254    2    1    2    0    0  0.19143777779E+03  0.41356371222E+02  0.69665346735E+03  0.11388324722E+04  0.87934894889E+03 0.  0.
         23    2    4    4    0    0  0.48950103885E+03 -0.86822596092E+02  0.21158476356E+03  0.54772365163E+03  0.89909155063E+02 0.  0.
         23    2    4    4    0    0 -0.29806326106E+03  0.12817896731E+03  0.48506870379E+03  0.59110882054E+03  0.94055489313E+02 0.  0.
          2    1    3    3  502    0 -0.43605839894E+02 -0.30902334543E+02 -0.93142634743E+02  0.10738702883E+03  0.00000000000E+00 0. -1.
         -1    1    3    3    0  502 -0.14783193790E+03 -0.10454036679E+02 -0.96990975851E+02  0.17711809095E+03  0.00000000000E+00 0.  1.
         11    1    5    5    0    0  0.18727255847E+03 -0.48478409495E+02  0.38174240531E+02  0.19717616485E+03  0.00000000000E+00 0. -1.
        -11    1    5    5    0    0  0.30222848038E+03 -0.38344186598E+02  0.17341052303E+03  0.35054748679E+03  0.00000000000E+00 0.  1.
          4    1    6    6  503    0 -0.21464515321E+03  0.72905430696E+02  0.39999416812E+03  0.45976415493E+03  0.00000000000E+00 0. -1.
         -4    1    6    6    0  503 -0.83418107842E+02  0.55273536618E+02  0.85074535673E+02  0.13134466562E+03  0.00000000000E+00 0.  1.
<mgrwt>
<rscale>  0 0.13301607E+04</rscale>
<asrwt>0</asrwt>
<pdfrwt beam="1">  1        2 0.14845057E+00 0.13301607E+04</pdfrwt>
<pdfrwt beam="2">  1       -1 0.70524441E-01 0.13301607E+04</pdfrwt>
<totfact> 0.60200336E+01</totfact>
</mgrwt>
</event>
<event>
12    6  0.1553355E-007  0.2115363E+04  0.7818608E-02  0.8554506E-01
         -1   -1    0    0    0  501 -0.00000000000E+00  0.00000000000E+00  0.15352369760E+04  0.15352369760E+04  0.00000000000E+00 0.  1.
          2   -1    0    0  501    0  0.00000000000E+00 -0.00000000000E+00 -0.72867607372E+03  0.72867607372E+03  0.00000000000E+00 0. -1.
         24    2    1    2    0    0 -0.65223760423E+03 -0.51344886170E+03  0.59184562863E+03  0.10215716062E+04  0.65449771035E+02 0.  0.
        254    2    1    2    0    0  0.65223760423E+03  0.51344886170E+03  0.21471527362E+03  0.12423414435E+04  0.89903614361E+03 0.  0.
         23    2    4    4    0    0  0.36831284238E+03  0.19659056758E+03 -0.33404595780E+03  0.54209033358E+03  0.89291806537E+02 0.  0.
         23    2    4    4    0    0  0.28392476185E+03  0.31685829412E+03  0.54876123142E+03  0.70025110990E+03  0.90555391098E+02 0.  0.
          4    1    3    3  502    0 -0.59430945853E+02 -0.26765400672E+02  0.37235994438E+02  0.75066259264E+02  0.00000000000E+00 0. -1.
         -3    1    3    3    0  502 -0.59280665838E+03 -0.48668346103E+03  0.55460963419E+03  0.94650534695E+03  0.00000000000E+00 0.  1.
         11    1    5    5    0    0 -0.15129713373E+01  0.66082728471E+01 -0.19785524361E+02  0.20914715550E+02  0.00000000000E+00 0.  1.
        -11    1    5    5    0    0  0.36982581372E+03  0.18998229473E+03 -0.31426043344E+03  0.52117561803E+03  0.00000000000E+00 0. -1.
          3    1    6    6  503    0  0.26269053785E+03  0.31138007134E+03  0.48823821716E+03  0.63587768022E+03  0.00000000000E+00 0. -1.
         -3    1    6    6    0  503  0.21234223998E+02  0.54782227868E+01  0.60523014261E+02  0.64373429682E+02  0.00000000000E+00 0.  1.
<mgrwt>
<rscale>  0 0.21153633E+04</rscale>
<asrwt>0</asrwt>
<pdfrwt beam="1">  1        2 0.11210401E+00 0.21153633E+04</pdfrwt>
<pdfrwt beam="2">  1       -1 0.23619030E+00 0.21153633E+04</pdfrwt>
<totfact> 0.35118808E+00</totfact>
</mgrwt>
</event>
<event>
12    6  0.1553355E-007  0.1122223E+04  0.7818608E-02  0.9183799E-01
         -1   -1    0    0    0  501 -0.00000000000E+00  0.00000000000E+00  0.32549723628E+03  0.32549723628E+03  0.00000000000E+00 0.  1.
          2   -1    0    0  501    0  0.00000000000E+00 -0.00000000000E+00 -0.96727653553E+03  0.96727653553E+03  0.00000000000E+00 0. -1.
         24    2    1    2    0    0  0.15936028201E+02 -0.38463295002E+02 -0.38816269430E+03  0.39846517885E+03  0.79817538489E+02 0.  0.
        254    2    1    2    0    0 -0.15936028201E+02  0.38463295002E+02 -0.25361660495E+03  0.89430859296E+03  0.85658221735E+03 0.  0.
         23    2    4    4    0    0  0.24965324792E+03  0.21530785851E+03 -0.40429820433E+03  0.52974357868E+03  0.92124931476E+02 0.  0.
         23    2    4    4    0    0 -0.26558927612E+03 -0.17684456351E+03  0.15068159937E+03  0.36456501428E+03  0.91602631023E+02 0.  0.
          2    1    3    3  502    0 -0.18198185390E+02 -0.44960307344E+02 -0.14658334891E+03  0.15439974535E+03  0.00000000000E+00 0. -1.
         -1    1    3    3    0  502  0.34134213591E+02  0.64970123418E+01 -0.24157934539E+03  0.24406543349E+03  0.00000000000E+00 0.  1.
         11    1    5    5    0    0  0.17959223590E+03  0.10657132484E+03 -0.28836297552E+03  0.35603935755E+03  0.00000000000E+00 0.  1.
        -11    1    5    5    0    0  0.70061012016E+02  0.10873653368E+03 -0.11593522880E+03  0.17370422113E+03  0.00000000000E+00 0. -1.
          1    1    6    6  503    0 -0.61160563163E+02 -0.63818629120E+00  0.38621028435E+02  0.72336751417E+02  0.00000000000E+00 0. -1.
         -1    1    6    6    0  503 -0.20442871296E+03 -0.17620637722E+03  0.11206057094E+03  0.29222826286E+03  0.00000000000E+00 0.  1.
<mgrwt>
<rscale>  0 0.11222225E+04</rscale>
<asrwt>0</asrwt>
<pdfrwt beam="1">  1        2 0.14881177E+00 0.11222225E+04</pdfrwt>
<pdfrwt beam="2">  1       -1 0.50076499E-01 0.11222225E+04</pdfrwt>
<totfact> 0.11969124E+02</totfact>
</mgrwt>
</event>
<event>
12    6  0.1775519E-007  0.3256242E+04  0.7818608E-02  0.8174120E-01
         -1   -1    0    0    0  501 -0.00000000000E+00  0.00000000000E+00  0.86026919009E+03  0.86026919009E+03  0.00000000000E+00 0.  1.
          2   -1    0    0  501    0  0.00000000000E+00 -0.00000000000E+00 -0.30813356203E+04  0.30813356203E+04  0.00000000000E+00 0. -1.
         24    2    1    2    0    0  0.57792046878E+03  0.49432781212E+03  0.54250592472E+03  0.94038318764E+03  0.10796206361E+03 0.  0.
        254    2    1    2    0    0 -0.57792046878E+03 -0.49432781212E+03 -0.27635723549E+04  0.30012216227E+04  0.88974547699E+03 0.  0.
         23    2    4    4    0    0 -0.41083160137E+03 -0.52092166989E+03 -0.86836922176E+03  0.10965345705E+04  0.90448704564E+02 0.  0.
         23    2    4    4    0    0 -0.16708886741E+03  0.26593857769E+02 -0.18952031331E+04  0.19046870522E+04  0.86092555599E+02 0.  0.
          4    1    3    3  502    0  0.78024055637E+02  0.51473359479E+02  0.28762116210E+02  0.97798360533E+02  0.00000000000E+00 0. -1.
         -3    1    3    3    0  502  0.49989641314E+03  0.44285445265E+03  0.51374380851E+03  0.84258482711E+03  0.00000000000E+00 0.  1.
         11    1    5    5    0    0 -0.87585013226E+02 -0.14573336513E+03 -0.27895166340E+03  0.32668544316E+03  0.00000000000E+00 0. -1.
        -11    1    5    5    0    0 -0.32324658815E+03 -0.37518830476E+03 -0.58941755835E+03  0.76984912734E+03  0.00000000000E+00 0.  1.
          3    1    6    6  503    0 -0.48491567807E+02  0.33125442784E+00 -0.22984486652E+03  0.23490467119E+03  0.00000000000E+00 0. -1.
         -3    1    6    6    0  503 -0.11859729960E+03  0.26262603341E+02 -0.16653582666E+04  0.16697823810E+04  0.00000000000E+00 0.  1.
<mgrwt>
<rscale>  0 0.32562421E+04</rscale>
<asrwt>0</asrwt>
<pdfrwt beam="1">  1        2 0.47405164E+00 0.32562421E+04</pdfrwt>
<pdfrwt beam="2">  1       -1 0.13234910E+00 0.32562421E+04</pdfrwt>
<totfact> 0.71294710E-01</totfact>
</mgrwt>
</event>
<event>
12    6  0.1553355E-007  0.1977756E+04  0.7818608E-02  0.8617092E-01
          2   -1    0    0  501    0  0.00000000000E+00  0.00000000000E+00  0.27520522527E+04  0.27520522527E+04  0.00000000000E+00 0. -1.
         -3   -1    0    0    0  501 -0.00000000000E+00 -0.00000000000E+00 -0.35532747268E+03  0.35532747268E+03  0.00000000000E+00 0.  1.
         24    2    1    2    0    0 -0.55788523455E+03  0.47108468469E+03  0.50551911298E+03  0.89164810060E+03  0.79561590201E+02 0.  0.
        254    2    1    2    0    0  0.55788523455E+03 -0.47108468469E+03  0.18912056670E+04  0.22157316248E+04  0.89423209678E+03 0.  0.
         23    2    4    4    0    0  0.51959754668E+03 -0.79898662801E+02  0.16755810617E+04  0.17586107201E+04  0.93671573499E+02 0.  0.
         23    2    4    4    0    0  0.38287687874E+02 -0.39118602189E+03  0.21562460535E+03  0.45712090469E+03  0.89292218636E+02 0.  0.
          2    1    3    3  502    0 -0.19668415220E+03  0.20231048349E+03  0.22795495981E+03  0.36273633835E+03  0.00000000000E+00 0. -1.
         -1    1    3    3    0  502 -0.36120108235E+03  0.26877420120E+03  0.27756415317E+03  0.52891176225E+03  0.00000000000E+00 0.  1.
         11    1    5    5    0    0  0.25752262040E+03 -0.21407872395E+02  0.67973673091E+03  0.72719888639E+03  0.00000000000E+00 0. -1.
        -11    1    5    5    0    0  0.26207492628E+03 -0.58490790406E+02  0.99584433077E+03  0.10314118337E+04  0.00000000000E+00 0.  1.
          2    1    6    6  503    0 -0.13020340027E+02 -0.24052146831E+03  0.10208890562E+03  0.26161469879E+03  0.00000000000E+00 0. -1.
         -2    1    6    6    0  503  0.51308027902E+02 -0.15066455358E+03  0.11353569973E+03  0.19550620590E+03  0.00000000000E+00 0.  1.
<mgrwt>
<rscale>  0 0.19777561E+04</rscale>
<asrwt>0</asrwt>
<pdfrwt beam="1">  1        2 0.42339264E+00 0.19777561E+04</pdfrwt>
<pdfrwt beam="2">  1       -3 0.54665767E-01 0.19777561E+04</pdfrwt>
<totfact> 0.48970799E+00</totfact>
</mgrwt>
</event>
<event>
12    6  0.1553355E-007  0.2027918E+04  0.7818608E-02  0.8593678E-01
          2   -1    0    0  501    0  0.00000000000E+00  0.00000000000E+00  0.15901377124E+04  0.15901377124E+04  0.00000000000E+00 0. -1.
         -1   -1    0    0    0  501 -0.00000000000E+00 -0.00000000000E+00 -0.64655567721E+03  0.64655567721E+03  0.00000000000E+00 0.  1.
         24    2    1    2    0    0  0.77437964449E+03  0.60236588897E+02  0.64324767210E+03  0.10117530938E+04  0.81144776318E+02 0.  0.
        254    2    1    2    0    0 -0.77437964449E+03 -0.60236588897E+02  0.30033436310E+03  0.12249402958E+04  0.89832383816E+03 0.  0.
         23    2    4    4    0    0 -0.44692452720E+03 -0.30721124588E+03  0.51521191522E+03  0.75310001926E+03  0.87155256862E+02 0.  0.
         23    2    4    4    0    0 -0.32745511729E+03  0.24697465699E+03 -0.21487755212E+03  0.47184027656E+03  0.90760945062E+02 0.  0.
          2    1    3    3  502    0  0.38337845153E+02  0.52203201343E+01  0.58313841296E+02  0.69982470662E+02  0.00000000000E+00 0. -1.
         -1    1    3    3    0  502  0.73604179934E+03  0.55016268763E+02  0.58493383081E+03  0.94177062315E+03  0.00000000000E+00 0.  1.
         11    1    5    5    0    0 -0.14171972179E+03 -0.14720229981E+03  0.17893828455E+03  0.27160984204E+03  0.00000000000E+00 0.  1.
        -11    1    5    5    0    0 -0.30520480541E+03 -0.16000894608E+03  0.33627363068E+03  0.48149017722E+03  0.00000000000E+00 0. -1.
          4    1    6    6  503    0 -0.13528491470E+03  0.54140560588E+02 -0.97797382349E+02  0.17549226889E+03  0.00000000000E+00 0. -1.
         -4    1    6    6    0  503 -0.19217020259E+03  0.19283409640E+03 -0.11708016977E+03  0.29634800767E+03  0.00000000000E+00 0.  1.
<mgrwt>
<rscale>  0 0.20279177E+04</rscale>
<asrwt>0</asrwt>
<pdfrwt beam="1">  1        2 0.24463657E+00 0.20279177E+04</pdfrwt>
<pdfrwt beam="2">  1       -1 0.99470105E-01 0.20279177E+04</pdfrwt>
<totfact> 0.11506508E+01</totfact>
</mgrwt>
</event>
<event>
12    6  0.1553355E-007  0.1473797E+04  0.7818608E-02  0.8902067E-01
          2   -1    0    0  501    0  0.00000000000E+00  0.00000000000E+00  0.18688971471E+04  0.18688971471E+04  0.00000000000E+00 0. -1.
         -1   -1    0    0    0  501 -0.00000000000E+00 -0.00000000000E+00 -0.29055595928E+03  0.29055595928E+03  0.00000000000E+00 0.  1.
         24    2    1    2    0    0 -0.45363900388E+03  0.46672262855E+02  0.42521648643E+03  0.62828238686E+03  0.77220795991E+02 0.  0.
        254    2    1    2    0    0  0.45363900388E+03 -0.46672262855E+02  0.11531247014E+04  0.15311707195E+04  0.89823190179E+03 0.  0.
         23    2    4    4    0    0  0.48480797044E+03  0.34175367426E+03  0.77771711730E+03  0.98233935381E+03  0.91172086856E+02 0.  0.
         23    2    4    4    0    0 -0.31168966556E+02 -0.38842593712E+03  0.37540758407E+03  0.54883136569E+03  0.91862945167E+02 0.  0.
          2    1    3    3  502    0 -0.12993240991E+03  0.28074074122E+01  0.16860139485E+03  0.21287729571E+03  0.00000000000E+00 0. -1.
         -1    1    3    3    0  502 -0.32370659397E+03  0.43864855443E+02  0.25661509158E+03  0.41540509114E+03  0.00000000000E+00 0.  1.
         11    1    5    5    0    0  0.36417430402E+03  0.21827144314E+03  0.59522487330E+03  0.73113473204E+03  0.00000000000E+00 0. -1.
        -11    1    5    5    0    0  0.12063366642E+03  0.12348223112E+03  0.18249224400E+03  0.25120462177E+03  0.00000000000E+00 0.  1.
          2    1    6    6  503    0 -0.18985224648E+02 -0.30942246962E+03  0.24187251553E+03  0.39319844510E+03  0.00000000000E+00 0. -1.
         -2    1    6    6    0  503 -0.12183741908E+02 -0.79003467496E+02  0.13353506854E+03  0.15563292060E+03  0.00000000000E+00 0.  1.
<mgrwt>
<rscale>  0 0.14737967E+04</rscale>
<asrwt>0</asrwt>
<pdfrwt beam="1">  1        2 0.28752263E+00 0.14737967E+04</pdfrwt>
<pdfrwt beam="2">  1       -1 0.44700918E-01 0.14737967E+04</pdfrwt>
<totfact> 0.43215798E+01</totfact>
</mgrwt>
</event>
<event>
12    6  0.1553355E-007  0.1786897E+04  0.7818608E-02  0.8713299E-01
         -1   -1    0    0    0  501 -0.00000000000E+00  0.00000000000E+00  0.65732950342E+03  0.65732950342E+03  0.00000000000E+00 0.  1.
          2   -1    0    0  501    0  0.00000000000E+00 -0.00000000000E+00 -0.12143833843E+04  0.12143833843E+04  0.00000000000E+00 0. -1.
         24    2    1    2    0    0  0.34214061166E+03  0.14107262135E+03 -0.78168906773E+03  0.86856977479E+03  0.80087280111E+02 0.  0.
        254    2    1    2    0    0 -0.34214061166E+03 -0.14107262135E+03  0.22463518687E+03  0.10031431129E+04  0.90491626969E+03 0.  0.
         23    2    4    4    0    0 -0.54388230229E+03  0.43646859417E+02 -0.10701714746E+03  0.56353047175E+03  0.91656509074E+02 0.  0.
         23    2    4    4    0    0  0.20174169063E+03 -0.18471948076E+03  0.33165233433E+03  0.43961264116E+03  0.91896719680E+02 0.  0.
          2    1    3    3  502    0  0.33594698870E+03  0.14807326620E+03 -0.74283532938E+03  0.82860750537E+03  0.00000000000E+00 0. -1.
         -1    1    3    3    0  502  0.61936229620E+01 -0.70006448550E+01 -0.38853738349E+02  0.39962269424E+02  0.00000000000E+00 0.  1.
         11    1    5    5    0    0 -0.46699815222E+02 -0.22267252584E+02 -0.10773494952E+02  0.52846678920E+02  0.00000000000E+00 0.  1.
        -11    1    5    5    0    0 -0.49718248707E+03  0.65914112001E+02 -0.96243652513E+02  0.51068379283E+03  0.00000000000E+00 0. -1.
          3    1    6    6  503    0  0.14820429493E+03 -0.75714260985E+02  0.20662953412E+03  0.26531665368E+03  0.00000000000E+00 0. -1.
         -3    1    6    6    0  503  0.53537395704E+02 -0.10900521978E+03  0.12502280021E+03  0.17429598748E+03  0.00000000000E+00 0.  1.
<mgrwt>
<rscale>  0 0.17868968E+04</rscale>
<asrwt>0</asrwt>
<pdfrwt beam="1">  1        2 0.18682821E+00 0.17868968E+04</pdfrwt>
<pdfrwt beam="2">  1       -1 0.10112762E+00 0.17868968E+04</pdfrwt>
<totfact> 0.18588682E+01</totfact>
</mgrwt>
</event>
<event>
12    6  0.1553355E-007  0.2883738E+04  0.7818608E-02  0.8277732E-01
         -1   -1    0    0    0  501 -0.00000000000E+00  0.00000000000E+00  0.13693738268E+04  0.13693738268E+04  0.00000000000E+00 0.  1.
          2   -1    0    0  501    0  0.00000000000E+00 -0.00000000000E+00 -0.15182026140E+04  0.15182026140E+04  0.00000000000E+00 0. -1.
         24    2    1    2    0    0 -0.30606931141E+03 -0.56819532090E+03 -0.11929215296E+04  0.13590628281E+04  0.86403986646E+02 0.  0.
        254    2    1    2    0    0  0.30606931141E+03  0.56819532090E+03  0.10440927424E+04  0.15285136127E+04  0.91087862176E+03 0.  0.
         23    2    4    4    0    0  0.57306707526E+03  0.55937525839E+03  0.91216065679E+03  0.12170207920E+04  0.88294914995E+02 0.  0.
         23    2    4    4    0    0 -0.26699776385E+03  0.88200625117E+01  0.13193208557E+03  0.31149282069E+03  0.90863098857E+02 0.  0.
          4    1    3    3  502    0 -0.26826325474E+03 -0.47222072096E+03 -0.10577299475E+04  0.11890122897E+04  0.00000000000E+00 0. -1.
         -3    1    3    3    0  502 -0.37806056671E+02 -0.95974599940E+02 -0.13519158206E+03  0.17005053841E+03  0.00000000000E+00 0.  1.
         11    1    5    5    0    0  0.32402396819E+02  0.52555488226E+02  0.10041425408E+03  0.11787712707E+03  0.00000000000E+00 0. -1.
        -11    1    5    5    0    0  0.54066467844E+03  0.50681977016E+03  0.81174640271E+03  0.10991436650E+04  0.00000000000E+00 0.  1.
          4    1    6    6  503    0 -0.35030494597E+01 -0.16212045668E+02  0.22122476092E+01  0.16733075621E+02  0.00000000000E+00 0. -1.
         -4    1    6    6    0  503 -0.26349471439E+03  0.25032108179E+02  0.12971983796E+03  0.29475974507E+03  0.00000000000E+00 0.  1.
<mgrwt>
<rscale>  0 0.28837385E+04</rscale>
<asrwt>0</asrwt>
<pdfrwt beam="1">  1        2 0.23356963E+00 0.28837385E+04</pdfrwt>
<pdfrwt beam="2">  1       -1 0.21067290E+00 0.28837385E+04</pdfrwt>
<totfact> 0.15519644E+00</totfact>
</mgrwt>
</event>
<event>
12    6  0.1553355E-007  0.3466172E+04  0.7818608E-02  0.8121854E-01
         -1   -1    0    0    0  501 -0.00000000000E+00  0.00000000000E+00  0.17188781984E+04  0.17188781984E+04  0.00000000000E+00 0.  1.
          2   -1    0    0  501    0  0.00000000000E+00 -0.00000000000E+00 -0.17474110396E+04  0.17474110396E+04  0.00000000000E+00 0. -1.
         24    2    1    2    0    0 -0.27328105316E+03 -0.76125641063E+02 -0.16025780076E+04  0.16295288039E+04  0.81426071530E+02 0.  0.
        254    2    1    2    0    0  0.27328105316E+03  0.76125641063E+02  0.15740451663E+04  0.18367604341E+04  0.90310190988E+03 0.  0.
         23    2    4    4    0    0  0.41530411021E+03  0.35655094098E+03  0.64005819230E+03  0.84706206241E+03  0.90739024533E+02 0.  0.
         23    2    4    4    0    0 -0.14202305705E+03 -0.28042529992E+03  0.93398697399E+03  0.98969837172E+03  0.91445622248E+02 0.  0.
          2    1    3    3  502    0 -0.14957089903E+03 -0.82635426334E+02 -0.88798418093E+03  0.90427649151E+03  0.00000000000E+00 0. -1.
         -1    1    3    3    0  502 -0.12371015413E+03  0.65097852705E+01 -0.71459382663E+03  0.72525231236E+03  0.00000000000E+00 0.  1.
         11    1    5    5    0    0  0.34680681147E+03  0.24942615087E+03  0.50797421411E+03  0.66372145620E+03  0.00000000000E+00 0. -1.
        -11    1    5    5    0    0  0.68497298743E+02  0.10712479011E+03  0.13208397818E+03  0.18334060621E+03  0.00000000000E+00 0.  1.
          1    1    6    6  503    0 -0.12156136221E+03 -0.16177803284E+03  0.50212761967E+03  0.54136996881E+03  0.00000000000E+00 0. -1.
         -1    1    6    6    0  503 -0.20461694840E+02 -0.11864726708E+03  0.43185935432E+03  0.44832840291E+03  0.00000000000E+00 0.  1.
<mgrwt>
<rscale>  0 0.34661718E+04</rscale>
<asrwt>0</asrwt>
<pdfrwt beam="1">  1        2 0.26883247E+00 0.34661718E+04</pdfrwt>
<pdfrwt beam="2">  1       -1 0.26444280E+00 0.34661718E+04</pdfrwt>
<totfact> 0.48587461E-01</totfact>
</mgrwt>
</event>
<event>
12    6  0.1553355E-007  0.2422221E+04  0.7818608E-02  0.8431231E-01
         -1   -1    0    0    0  501 -0.00000000000E+00  0.00000000000E+00  0.59774225296E+03  0.59774225296E+03  0.00000000000E+00 0.  1.
          2   -1    0    0  501    0  0.00000000000E+00 -0.00000000000E+00 -0.24538810282E+04  0.24538810282E+04  0.00000000000E+00 0. -1.
         24    2    1    2    0    0 -0.98732008802E+03 -0.18422358893E+03 -0.11380973807E+04  0.15200036532E+04  0.80038558677E+02 0.  0.
        254    2    1    2    0    0  0.98732008802E+03  0.18422358893E+03 -0.71804139454E+03  0.15316196280E+04  0.90638620550E+03 0.  0.
         23    2    4    4    0    0  0.19247716732E+03  0.23710625920E+03 -0.65215162572E+03  0.72710647285E+03  0.10057455859E+03 0.  0.
         23    2    4    4    0    0  0.79484292070E+03 -0.52882670269E+02 -0.65889768816E+02  0.80451315510E+03  0.91258477382E+02 0.  0.
          2    1    3    3  502    0 -0.21020530359E+03 -0.33658616026E+02 -0.29194635634E+03  0.36131959132E+03  0.00000000000E+00 0. -1.
         -1    1    3    3    0  502 -0.77711478444E+03 -0.15056497290E+03 -0.84615102435E+03  0.11586840619E+04  0.00000000000E+00 0.  1.
         11    1    5    5    0    0  0.88857380944E+02  0.11479480298E+03 -0.42483064045E+03  0.44894827542E+03  0.00000000000E+00 0.  1.
        -11    1    5    5    0    0  0.10361978638E+03  0.12231145621E+03 -0.22732098528E+03  0.27815819743E+03  0.00000000000E+00 0. -1.
          4    1    6    6  503    0  0.62527806721E+03 -0.63104248410E+02 -0.20980504030E+02  0.62880441240E+03  0.00000000000E+00 0. -1.
         -4    1    6    6    0  503  0.16956485349E+03  0.10221578142E+02 -0.44909264786E+02  0.17570874271E+03  0.00000000000E+00 0.  1.
<mgrwt>
<rscale>  0 0.24222208E+04</rscale>
<asrwt>0</asrwt>
<pdfrwt beam="1">  1        2 0.37752016E+00 0.24222208E+04</pdfrwt>
<pdfrwt beam="2">  1       -1 0.91960347E-01 0.24222208E+04</pdfrwt>
<totfact> 0.43518903E+00</totfact>
</mgrwt>
</event>
<event>
12    6  0.1553355E-007  0.1424460E+04  0.7818608E-02  0.8936301E-01
          2   -1    0    0  501    0  0.00000000000E+00  0.00000000000E+00  0.76583125542E+03  0.76583125542E+03  0.00000000000E+00 0. -1.
         -1   -1    0    0    0  501 -0.00000000000E+00 -0.00000000000E+00 -0.66238041514E+03  0.66238041514E+03  0.00000000000E+00 0.  1.
         24    2    1    2    0    0  0.55513450008E+02  0.27696481031E+02  0.44325400937E+03  0.45471182767E+03  0.80248932752E+02 0.  0.
        254    2    1    2    0    0 -0.55513450008E+02 -0.27696481031E+02 -0.33980316909E+03  0.97349984288E+03  0.91015763040E+03 0.  0.
         23    2    4    4    0    0  0.20364165903E+03  0.36666541147E+03 -0.18294800639E+03  0.46775399646E+03  0.97007107476E+02 0.  0.
         23    2    4    4    0    0 -0.25915510904E+03 -0.39436189250E+03 -0.15685516271E+03  0.50574584643E+03  0.92155554973E+02 0.  0.
          2    1    3    3  502    0  0.71537685509E+02  0.24827331867E+02  0.26186201967E+03  0.27259081826E+03  0.00000000000E+00 0. -1.
         -1    1    3    3    0  502 -0.16024235501E+02  0.28691491639E+01  0.18139198971E+03  0.18212100941E+03  0.00000000000E+00 0.  1.
         11    1    5    5    0    0  0.13686078581E+02 -0.20728464013E+01  0.12608628917E+01  0.13899468132E+02  0.00000000000E+00 0. -1.
        -11    1    5    5    0    0  0.18995558045E+03  0.36873825787E+03 -0.18420886928E+03  0.45385452833E+03  0.00000000000E+00 0.  1.
          3    1    6    6  503    0 -0.68281556683E+02 -0.43378636730E+02 -0.18924974040E+02  0.83079671099E+02  0.00000000000E+00 0. -1.
         -3    1    6    6    0  503 -0.19087355236E+03 -0.35098325577E+03 -0.13793018867E+03  0.42266617533E+03  0.00000000000E+00 0.  1.
<mgrwt>
<rscale>  0 0.14244601E+04</rscale>
<asrwt>0</asrwt>
<pdfrwt beam="1">  1        2 0.11782019E+00 0.14244601E+04</pdfrwt>
<pdfrwt beam="2">  1       -1 0.10190468E+00 0.14244601E+04</pdfrwt>
<totfact> 0.36962138E+01</totfact>
</mgrwt>
</event>
<event>
12    6  0.1553355E-007  0.1899248E+04  0.7818608E-02  0.8655231E-01
          2   -1    0    0  501    0  0.00000000000E+00  0.00000000000E+00  0.10209770512E+04  0.10209770512E+04  0.00000000000E+00 0. -1.
         -1   -1    0    0    0  501 -0.00000000000E+00 -0.00000000000E+00 -0.88325757817E+03  0.88325757817E+03  0.00000000000E+00 0.  1.
         24    2    1    2    0    0 -0.19904445707E+03  0.55743662338E+03 -0.38581771375E+03  0.71098724253E+03  0.79330106683E+02 0.  0.
        254    2    1    2    0    0  0.19904445707E+03 -0.55743662338E+03  0.52353718681E+03  0.11932473869E+04  0.89408828164E+03 0.  0.
         23    2    4    4    0    0 -0.31771779559E+03 -0.41069000064E+03  0.23966280923E+03  0.57911270859E+03  0.91227149845E+02 0.  0.
         23    2    4    4    0    0  0.51676225265E+03 -0.14674662274E+03  0.28387437758E+03  0.61413467829E+03  0.89436814433E+02 0.  0.
          2    1    3    3  502    0 -0.39181230323E+01  0.16802135058E+02  0.23626349224E+01  0.17413944825E+02  0.00000000000E+00 0. -1.
         -1    1    3    3    0  502 -0.19512633403E+03  0.54063448832E+03 -0.38818034867E+03  0.69357329770E+03  0.00000000000E+00 0.  1.
         11    1    5    5    0    0 -0.12464055529E+02 -0.38192767806E+02 -0.21209590209E+01  0.40231065858E+02  0.00000000000E+00 0.  1.
        -11    1    5    5    0    0 -0.30525374006E+03 -0.37249723283E+03  0.24178376825E+03  0.53888164274E+03  0.00000000000E+00 0. -1.
          2    1    6    6  503    0  0.45989931257E+03 -0.15803112577E+03  0.24697042167E+03  0.54541324113E+03  0.00000000000E+00 0. -1.
         -2    1    6    6    0  503  0.56862940081E+02  0.11284503035E+02  0.36903955912E+02  0.68721437160E+02  0.00000000000E+00 0.  1.
<mgrwt>
<rscale>  0 0.18992480E+04</rscale>
<asrwt>0</asrwt>
<pdfrwt beam="1">  1        2 0.15707339E+00 0.18992480E+04</pdfrwt>
<pdfrwt beam="2">  1       -1 0.13588578E+00 0.18992480E+04</pdfrwt>
<totfact> 0.11819841E+01</totfact>
</mgrwt>
</event>
<event>
12    6  0.1553355E-007  0.1604094E+04  0.7818608E-02  0.8818037E-01
         -1   -1    0    0    0  501 -0.00000000000E+00  0.00000000000E+00  0.37535623246E+03  0.37535623246E+03  0.00000000000E+00 0.  1.
          2   -1    0    0  501    0  0.00000000000E+00 -0.00000000000E+00 -0.17137847032E+04  0.17137847032E+04  0.00000000000E+00 0. -1.
         24    2    1    2    0    0  0.35511074952E+03  0.16267604809E+02  0.92425551457E+02  0.37575315122E+03  0.79244360679E+02 0.  0.
        254    2    1    2    0    0 -0.35511074952E+03 -0.16267604809E+02 -0.14308540222E+04  0.17133877844E+04  0.87291820213E+03 0.  0.
         23    2    4    4    0    0 -0.39543183026E+03  0.34139919280E+03 -0.58476974681E+03  0.78947806544E+03  0.91652702097E+02 0.  0.
         23    2    4    4    0    0  0.40321080733E+02 -0.35766679761E+03 -0.84608427539E+03  0.92390971900E+03  0.90549655571E+02 0.  0.
          4    1    3    3  502    0  0.11901589041E+03 -0.31135000028E+02  0.39413928287E+02  0.12918060280E+03  0.00000000000E+00 0. -1.
         -3    1    3    3    0  502  0.23609485912E+03  0.47402604837E+02  0.53011623169E+02  0.24657254843E+03  0.00000000000E+00 0.  1.
         11    1    5    5    0    0 -0.17128358240E+01  0.32228317150E+01 -0.28297038573E+02  0.28531436045E+02  0.00000000000E+00 0. -1.
        -11    1    5    5    0    0 -0.39371899443E+03  0.33817636109E+03 -0.55647270824E+03  0.76094662939E+03  0.00000000000E+00 0.  1.
          1    1    6    6  503    0  0.10336091777E+02 -0.24420034333E+00 -0.11217033035E+02  0.15255040385E+02  0.00000000000E+00 0. -1.
         -1    1    6    6    0  503  0.29984988956E+02 -0.35742259727E+03 -0.83486724236E+03  0.90865467861E+03  0.00000000000E+00 0.  1.
<mgrwt>
<rscale>  0 0.16040945E+04</rscale>
<asrwt>0</asrwt>
<pdfrwt beam="1">  1        2 0.26365919E+00 0.16040945E+04</pdfrwt>
<pdfrwt beam="2">  1       -1 0.57747111E-01 0.16040945E+04</pdfrwt>
<totfact> 0.31961185E+01</totfact>
</mgrwt>
</event>
<event>
12    6  0.1553355E-007  0.1186868E+04  0.7818608E-02  0.9124429E-01
         -1   -1    0    0    0  501 -0.00000000000E+00  0.00000000000E+00  0.21023354351E+03  0.21023354351E+03  0.00000000000E+00 0.  1.
          2   -1    0    0  501    0  0.00000000000E+00 -0.00000000000E+00 -0.16751081730E+04  0.16751081730E+04  0.00000000000E+00 0. -1.
         24    2    1    2    0    0 -0.21974931293E+03  0.46727124251E+02 -0.16469432457E+03  0.28992714238E+03  0.80376256863E+02 0.  0.
        254    2    1    2    0    0  0.21974931293E+03 -0.46727124251E+02 -0.13001803049E+04  0.15954145741E+04  0.89688664464E+03 0.  0.
         23    2    4    4    0    0  0.10730696966E+02  0.24261889981E+02  0.12247249065E+03  0.15283733510E+03  0.87498302114E+02 0.  0.
         23    2    4    4    0    0  0.20901861596E+03 -0.70989014232E+02 -0.14226527955E+04  0.14425772390E+04  0.91432444253E+02 0.  0.
          4    1    3    3  502    0 -0.11198313266E+03  0.59836593719E+02 -0.11176424432E+03  0.16915048406E+03  0.00000000000E+00 0. -1.
         -1    1    3    3    0  502 -0.10776618027E+03 -0.13109469468E+02 -0.52930080245E+02  0.12077665831E+03  0.00000000000E+00 0.  1.
         11    1    5    5    0    0  0.81953337271E+01  0.57311542605E+02  0.84530679403E+02  0.10245590354E+03  0.00000000000E+00 0.  1.
        -11    1    5    5    0    0  0.25353632392E+01 -0.33049652624E+02  0.37941811242E+02  0.50381431557E+02  0.00000000000E+00 0. -1.
          4    1    6    6  503    0  0.12517140205E+03 -0.83930649203E+02 -0.78833771229E+03  0.80261359470E+03  0.00000000000E+00 0. -1.
         -4    1    6    6    0  503  0.83847213915E+02  0.12941634971E+02 -0.63431508325E+03  0.63996364430E+03  0.00000000000E+00 0.  1.
<mgrwt>
<rscale>  0 0.11868680E+04</rscale>
<asrwt>0</asrwt>
<pdfrwt beam="1">  1        2 0.25770894E+00 0.11868680E+04</pdfrwt>
<pdfrwt beam="2">  1       -1 0.32343623E-01 0.11868680E+04</pdfrwt>
<totfact> 0.10175907E+02</totfact>
</mgrwt>
</event>
<event>
12    6  0.1553355E-007  0.1171427E+04  0.7818608E-02  0.9138241E-01
         -1   -1    0    0    0  501 -0.00000000000E+00  0.00000000000E+00  0.35576515002E+03  0.35576515002E+03  0.00000000000E+00 0.  1.
          2   -1    0    0  501    0  0.00000000000E+00 -0.00000000000E+00 -0.96428886782E+03  0.96428886782E+03  0.00000000000E+00 0. -1.
         24    2    1    2    0    0 -0.11764207249E+03  0.21636107167E+03 -0.26828126713E+03  0.37298066749E+03  0.80547932765E+02 0.  0.
        254    2    1    2    0    0  0.11764207249E+03 -0.21636107167E+03 -0.34024245067E+03  0.94707335036E+03  0.84884111303E+03 0.  0.
         23    2    4    4    0    0  0.15273314936E+03 -0.29826223331E+03  0.19404778229E+03  0.39782346335E+03  0.91220564809E+02 0.  0.
         23    2    4    4    0    0 -0.35091076874E+02  0.81901161635E+02 -0.53429023296E+03  0.54924988701E+03  0.90940647612E+02 0.  0.
          4    1    3    3  502    0 -0.10195790651E+03  0.17286189152E+03 -0.25571288962E+03  0.32506265574E+03  0.00000000000E+00 0. -1.
         -1    1    3    3    0  502 -0.15684165971E+02  0.43499180158E+02 -0.12568377510E+02  0.47918011748E+02  0.00000000000E+00 0.  1.
         11    1    5    5    0    0  0.11898628510E+03 -0.19571931768E+03  0.84819096997E+02  0.24425000833E+03  0.00000000000E+00 0. -1.
        -11    1    5    5    0    0  0.33746864257E+02 -0.10254291563E+03  0.10922868530E+03  0.15357345501E+03  0.00000000000E+00 0.  1.
          2    1    6    6  503    0  0.21296922319E+01  0.83796267362E+02 -0.43899442791E+03  0.44692556175E+03  0.00000000000E+00 0. -1.
         -2    1    6    6    0  503 -0.37220769106E+02 -0.18951057265E+01 -0.95295805053E+02  0.10232432526E+03  0.00000000000E+00 0.  1.
<mgrwt>
<rscale>  0 0.11714271E+04</rscale>
<asrwt>0</asrwt>
<pdfrwt beam="1">  1        2 0.14835213E+00 0.11714271E+04</pdfrwt>
<pdfrwt beam="2">  1       -1 0.54733100E-01 0.11714271E+04</pdfrwt>
<totfact> 0.10104505E+02</totfact>
</mgrwt>
</event>
<event>
12    6  0.1553355E-007  0.1651268E+04  0.7818608E-02  0.8789657E-01
         -1   -1    0    0    0  501 -0.00000000000E+00  0.00000000000E+00  0.38067718363E+03  0.38067718363E+03  0.00000000000E+00 0.  1.
          2   -1    0    0  501    0  0.00000000000E+00 -0.00000000000E+00 -0.17906809561E+04  0.17906809561E+04  0.00000000000E+00 0. -1.
         24    2    1    2    0    0 -0.89011436453E+02 -0.47366040343E+03 -0.91766330639E+03  0.10396184712E+04  0.80146167541E+02 0.  0.
        254    2    1    2    0    0  0.89011436453E+02  0.47366040343E+03 -0.49234046612E+03  0.11317396686E+04  0.89786320185E+03 0.  0.
         23    2    4    4    0    0  0.35538534700E+03  0.59005347604E+03 -0.43855432551E+03  0.82187306156E+03  0.93185746990E+02 0.  0.
         23    2    4    4    0    0 -0.26637391055E+03 -0.11639307261E+03 -0.53786140613E+02  0.30986660701E+03  0.92854497193E+02 0.  0.
          4    1    3    3  502    0 -0.94343459713E+02 -0.42273066262E+03 -0.85697343725E+03  0.96021110890E+03  0.00000000000E+00 0. -1.
         -3    1    3    3    0  502  0.53320232601E+01 -0.50929740808E+02 -0.60689869144E+02  0.79407362300E+02  0.00000000000E+00 0.  1.
         11    1    5    5    0    0  0.26426020788E+03  0.37008761177E+03 -0.31873942659E+03  0.55533154054E+03  0.00000000000E+00 0. -1.
        -11    1    5    5    0    0  0.91125139117E+02  0.21996586427E+03 -0.11981489892E+03  0.26654152102E+03  0.00000000000E+00 0.  1.
          3    1    6    6  503    0 -0.26991335949E+03 -0.12359017317E+03 -0.50186321840E+02  0.30107543812E+03  0.00000000000E+00 0. -1.
         -3    1    6    6    0  503  0.35394489442E+01  0.71971005662E+01 -0.35998187727E+01  0.87911688975E+01  0.00000000000E+00 0.  1.
<mgrwt>
<rscale>  0 0.16512679E+04</rscale>
<asrwt>0</asrwt>
<pdfrwt beam="1">  1        2 0.27548938E+00 0.16512679E+04</pdfrwt>
<pdfrwt beam="2">  1       -1 0.58565720E-01 0.16512679E+04</pdfrwt>
<totfact> 0.28070448E+01</totfact>
</mgrwt>
</event>
<event>
12    6  0.1553355E-007  0.1522685E+04  0.7818608E-02  0.8869506E-01
         -1   -1    0    0    0  501 -0.00000000000E+00  0.00000000000E+00  0.10505419659E+04  0.10505419659E+04  0.00000000000E+00 0.  1.
          2   -1    0    0  501    0  0.00000000000E+00 -0.00000000000E+00 -0.55175551327E+03  0.55175551327E+03  0.00000000000E+00 0. -1.
         24    2    1    2    0    0  0.26481964018E+03 -0.37915970883E+03  0.33754404655E+03  0.57778758804E+03  0.77530554715E+02 0.  0.
        254    2    1    2    0    0 -0.26481964018E+03  0.37915970883E+03  0.16124240610E+03  0.10245098912E+04  0.89984991911E+03 0.  0.
         23    2    4    4    0    0 -0.21463445794E+03 -0.26523214777E+03  0.11286253751E+03  0.36962369209E+03  0.86415731414E+02 0.  0.
         23    2    4    4    0    0 -0.50185182239E+02  0.64439185659E+03  0.48379868588E+02  0.65488619906E+03  0.93679798648E+02 0.  0.
          2    1    3    3  502    0  0.25804020566E+03 -0.38169228131E+03  0.32692478351E+03  0.56493677471E+03  0.00000000000E+00 0. -1.
         -1    1    3    3    0  502  0.67794345179E+01  0.25325724828E+01  0.10619263043E+02  0.12850813334E+02  0.00000000000E+00 0.  1.
         11    1    5    5    0    0 -0.42094559597E+02 -0.10088997083E+03  0.63023581866E+02  0.12618522113E+03  0.00000000000E+00 0.  1.
        -11    1    5    5    0    0 -0.17253989835E+03 -0.16434217694E+03  0.49838955649E+02  0.24343847096E+03  0.00000000000E+00 0. -1.
          2    1    6    6  503    0 -0.11722826496E+02  0.48464414063E+03  0.67508447915E+02  0.48946374559E+03  0.00000000000E+00 0. -1.
         -2    1    6    6    0  503 -0.38462355742E+02  0.15974771596E+03 -0.19128579326E+02  0.16542245347E+03  0.00000000000E+00 0.  1.
<mgrwt>
<rscale>  0 0.15226849E+04</rscale>
<asrwt>0</asrwt>
<pdfrwt beam="1">  1        2 0.84885464E-01 0.15226849E+04</pdfrwt>
<pdfrwt beam="2">  1       -1 0.16162184E+00 0.15226849E+04</pdfrwt>
<totfact> 0.17176190E+01</totfact>
</mgrwt>
</event>
<event>
12    6  0.1553355E-007  0.1818219E+04  0.7818608E-02  0.8696670E-01
         -3   -1    0    0    0  501 -0.00000000000E+00  0.00000000000E+00  0.28616420158E+04  0.28616420158E+04  0.00000000000E+00 0.  1.
          4   -1    0    0  501    0  0.00000000000E+00 -0.00000000000E+00 -0.28881330703E+03  0.28881330703E+03  0.00000000000E+00 0. -1.
         24    2    1    2    0    0  0.27984356028E+03  0.26704237941E+03  0.19105660164E+04  0.19509857359E+04  0.80366585742E+02 0.  0.
        254    2    1    2    0    0 -0.27984356028E+03 -0.26704237941E+03  0.66226269240E+03  0.11994695869E+04  0.92223173097E+03 0.  0.
         23    2    4    4    0    0 -0.35436900845E+03 -0.47656922173E+03  0.73500833239E+03  0.94917150597E+03  0.89407392332E+02 0.  0.
         23    2    4    4    0    0  0.74525448179E+02  0.20952684232E+03 -0.72745639987E+02  0.25029808097E+03  0.88891288235E+02 0.  0.
          2    1    3    3  502    0  0.21680497180E+02  0.29897353061E+01  0.18869552310E+03  0.18996047724E+03  0.00000000000E+00 0. -1.
         -1    1    3    3    0  502  0.25816306310E+03  0.26405264411E+03  0.17218704933E+04  0.17610252587E+04  0.00000000000E+00 0.  1.
         11    1    5    5    0    0 -0.23025230030E+03 -0.33337702795E+03  0.43616103634E+03  0.59530900731E+03  0.00000000000E+00 0.  1.
        -11    1    5    5    0    0 -0.12411670815E+03 -0.14319219378E+03  0.29884729605E+03  0.35386249866E+03  0.00000000000E+00 0. -1.
          1    1    6    6  503    0  0.84445170967E+02  0.16757463957E+03 -0.84228549545E+02  0.20568591416E+03  0.00000000000E+00 0. -1.
         -1    1    6    6    0  503 -0.99197227880E+01  0.41952202747E+02  0.11482909558E+02  0.44612166810E+02  0.00000000000E+00 0.  1.
<mgrwt>
<rscale>  0 0.18182192E+04</rscale>
<asrwt>0</asrwt>
<pdfrwt beam="1">  1        4 0.44432818E-01 0.18182192E+04</pdfrwt>
<pdfrwt beam="2">  1       -3 0.44025260E+00 0.18182192E+04</pdfrwt>
<totfact> 0.68173550E-02</totfact>
</mgrwt>
</event>
<event>
12    6  0.1553355E-007  0.1424381E+04  0.7818608E-02  0.8936357E-01
         -1   -1    0    0    0  501 -0.00000000000E+00  0.00000000000E+00  0.45160399413E+03  0.45160399413E+03  0.00000000000E+00 0.  1.
          2   -1    0    0  501    0  0.00000000000E+00 -0.00000000000E+00 -0.11231424720E+04  0.11231424720E+04  0.00000000000E+00 0. -1.
         24    2    1    2    0    0 -0.13508913163E+03 -0.13648000709E+03 -0.62425371539E+03  0.65835127228E+03  0.82812020334E+02 0.  0.
        254    2    1    2    0    0  0.13508913163E+03  0.13648000709E+03 -0.47284762440E+02  0.91639519382E+03  0.89480078044E+03 0.  0.
         23    2    4    4    0    0 -0.18533956434E+03 -0.26562734339E+03 -0.17419926474E+03  0.37934014178E+03  0.92978060100E+02 0.  0.
         23    2    4    4    0    0  0.32042869597E+03  0.40210735048E+03  0.12691450230E+03  0.53705505204E+03  0.89196230362E+02 0.  0.
          4    1    3    3  502    0 -0.83883851123E+02 -0.27320962242E+02 -0.28225800983E+03  0.29572372169E+03  0.00000000000E+00 0. -1.
         -3    1    3    3    0  502 -0.51205280506E+02 -0.10915904485E+03 -0.34199570556E+03  0.36262755059E+03  0.00000000000E+00 0.  1.
         11    1    5    5    0    0 -0.10321285749E+03 -0.17955972917E+03 -0.15533658315E+03  0.25889002367E+03  0.00000000000E+00 0. -1.
        -11    1    5    5    0    0 -0.82126706850E+02 -0.86067614226E+02 -0.18862681596E+02  0.12045011811E+03  0.00000000000E+00 0.  1.
          2    1    6    6  503    0  0.30457168412E+02  0.98913001840E+01 -0.33365070220E+01  0.32196416045E+02  0.00000000000E+00 0. -1.
         -2    1    6    6    0  503  0.28997152756E+03  0.39221605030E+03  0.13025100932E+03  0.50485863599E+03  0.00000000000E+00 0.  1.
<mgrwt>
<rscale>  0 0.14243814E+04</rscale>
<asrwt>0</asrwt>
<pdfrwt beam="1">  1        2 0.17279115E+00 0.14243814E+04</pdfrwt>
<pdfrwt beam="2">  1       -1 0.69477538E-01 0.14243814E+04</pdfrwt>
<totfact> 0.48953626E+01</totfact>
</mgrwt>
</event>
<event>
12    6  0.1553355E-007  0.1227718E+04  0.7818608E-02  0.9088935E-01
         -1   -1    0    0    0  501 -0.00000000000E+00  0.00000000000E+00  0.16342398902E+03  0.16342398902E+03  0.00000000000E+00 0.  1.
          2   -1    0    0  501    0  0.00000000000E+00 -0.00000000000E+00 -0.23057974419E+04  0.23057974419E+04  0.00000000000E+00 0. -1.
         24    2    1    2    0    0  0.74334494709E+02  0.24190218931E+03 -0.70743079686E+03  0.75563479744E+03  0.80519118578E+02 0.  0.
        254    2    1    2    0    0 -0.74334494709E+02 -0.24190218931E+03 -0.14349426560E+04  0.17135866334E+04  0.90181840637E+03 0.  0.
         23    2    4    4    0    0 -0.20017916421E+03  0.22783479051E+03 -0.17926736474E+03  0.36397439631E+03  0.91434039400E+02 0.  0.
         23    2    4    4    0    0  0.12584466950E+03 -0.46973697982E+03 -0.12556752912E+04  0.13496122371E+04  0.90791203018E+02 0.  0.
          2    1    3    3  502    0  0.22214453253E+02  0.12407983013E+03 -0.45621190435E+03  0.47330601924E+03  0.00000000000E+00 0. -1.
         -1    1    3    3    0  502  0.52120041456E+02  0.11782235918E+03 -0.25121889250E+03  0.28232877819E+03  0.00000000000E+00 0.  1.
         11    1    5    5    0    0 -0.16006049449E+03  0.15281738473E+03 -0.16866456875E+03  0.27824494915E+03  0.00000000000E+00 0.  1.
        -11    1    5    5    0    0 -0.40118669722E+02  0.75017405771E+02 -0.10602795992E+02  0.85729447168E+02  0.00000000000E+00 0. -1.
          1    1    6    6  503    0 -0.30839290855E+01 -0.32629267054E+02 -0.42534249940E+02  0.53696760657E+02  0.00000000000E+00 0. -1.
         -1    1    6    6    0  503  0.12892859858E+03 -0.43710771276E+03 -0.12131410413E+04  0.12959154765E+04  0.00000000000E+00 0.  1.
<mgrwt>
<rscale>  0 0.12277176E+04</rscale>
<asrwt>0</asrwt>
<pdfrwt beam="1">  1        2 0.35473805E+00 0.12277176E+04</pdfrwt>
<pdfrwt beam="2">  1       -1 0.25142154E-01 0.12277176E+04</pdfrwt>
<totfact> 0.70280179E+01</totfact>
</mgrwt>
</event>
<event>
12    6  0.1553355E-007  0.1381836E+04  0.7818608E-02  0.8967073E-01
          2   -1    0    0  501    0  0.00000000000E+00  0.00000000000E+00  0.43406188638E+03  0.43406188638E+03  0.00000000000E+00 0. -1.
         -1   -1    0    0    0  501 -0.00000000000E+00 -0.00000000000E+00 -0.10997682396E+04  0.10997682396E+04  0.00000000000E+00 0.  1.
         24    2    1    2    0    0  0.26340077777E+03  0.16712734189E+03  0.66897165648E+02  0.32856253321E+03  0.78527634098E+02 0.  0.
        254    2    1    2    0    0 -0.26340077777E+03 -0.16712734189E+03 -0.73260351890E+03  0.12052675928E+04  0.90479309029E+03 0.  0.
         23    2    4    4    0    0 -0.77538702517E+02 -0.26079332405E+03  0.12725995737E+03  0.31604918473E+03  0.98318778262E+02 0.  0.
         23    2    4    4    0    0 -0.18586207526E+03  0.93665982168E+02 -0.85986347627E+03  0.88921840808E+03  0.89588795106E+02 0.  0.
          2    1    3    3  502    0  0.19808465776E+03  0.13693698519E+03  0.83210077707E+02  0.25478066368E+03  0.00000000000E+00 0. -1.
         -1    1    3    3    0  502  0.65316120010E+02  0.30190356699E+02 -0.16312912059E+02  0.73781869525E+02  0.00000000000E+00 0.  1.
         11    1    5    5    0    0  0.71189466137E+01 -0.14791902821E+03  0.60784142824E+02  0.16007945004E+03  0.00000000000E+00 0.  1.
        -11    1    5    5    0    0 -0.84657649130E+02 -0.11287429585E+03  0.66475814545E+02  0.15596973469E+03  0.00000000000E+00 0. -1.
          2    1    6    6  503    0 -0.16105929026E+03  0.51321438734E+02 -0.75125509501E+03  0.77003779312E+03  0.00000000000E+00 0. -1.
         -2    1    6    6    0  503 -0.24802785000E+02  0.42344543434E+02 -0.10860838125E+03  0.11918061495E+03  0.00000000000E+00 0.  1.
<mgrwt>
<rscale>  0 0.13818357E+04</rscale>
<asrwt>0</asrwt>
<pdfrwt beam="1">  1        2 0.66778752E-01 0.13818357E+04</pdfrwt>
<pdfrwt beam="2">  1       -1 0.16919511E+00 0.13818357E+04</pdfrwt>
<totfact> 0.20154081E+01</totfact>
</mgrwt>
</event>
<event>
12    6  0.1553355E-007  0.4819474E+04  0.7818608E-02  0.7856975E-01
          2   -1    0    0  501    0  0.00000000000E+00  0.00000000000E+00  0.35727393119E+04  0.35727393119E+04  0.00000000000E+00 0. -1.
         -1   -1    0    0    0  501 -0.00000000000E+00 -0.00000000000E+00 -0.16253163715E+04  0.16253163715E+04  0.00000000000E+00 0.  1.
         24    2    1    2    0    0 -0.48039765572E+03  0.17344253967E+04  0.25213564370E+04  0.30988327748E+04  0.80702660222E+02 0.  0.
        254    2    1    2    0    0  0.48039765572E+03 -0.17344253967E+04 -0.57393349656E+03  0.20992229087E+04  0.91560023906E+03 0.  0.
         23    2    4    4    0    0  0.13998922755E+03 -0.13510221077E+04 -0.53582228248E+02  0.13618031669E+04  0.82335234488E+02 0.  0.
         23    2    4    4    0    0  0.34040842816E+03 -0.38340328901E+03 -0.52035126832E+03  0.73741974187E+03  0.10072960474E+03 0.  0.
          4    1    3    3  502    0 -0.41686847937E+03  0.15203650843E+04  0.21614100519E+04  0.26752537694E+04  0.00000000000E+00 0. -1.
         -3    1    3    3    0  502 -0.63529176343E+02  0.21406031238E+03  0.35994638511E+03  0.42357900531E+03  0.00000000000E+00 0.  1.
         11    1    5    5    0    0  0.13847371139E+03 -0.13469628034E+04 -0.48235062159E+02  0.13549208035E+04  0.00000000000E+00 0. -1.
        -11    1    5    5    0    0  0.15155161649E+01 -0.40593042606E+01 -0.53471660890E+01  0.68823633666E+01  0.00000000000E+00 0.  1.
          3    1    6    6  503    0  0.33440560888E+03 -0.33793674043E+03 -0.45916914503E+03  0.66095737800E+03  0.00000000000E+00 0. -1.
         -3    1    6    6    0  503  0.60028192876E+01 -0.45466548583E+02 -0.61182123285E+02  0.76462363873E+02  0.00000000000E+00 0.  1.
<mgrwt>
<rscale>  0 0.48194737E+04</rscale>
<asrwt>0</asrwt>
<pdfrwt beam="1">  1        2 0.54965220E+00 0.48194737E+04</pdfrwt>
<pdfrwt beam="2">  1       -1 0.25004867E+00 0.48194737E+04</pdfrwt>
<totfact> 0.42090141E-02</totfact>
</mgrwt>
</event>
<event>
12    6  0.1553355E-007  0.1581504E+04  0.7818608E-02  0.8831992E-01
          2   -1    0    0  501    0  0.00000000000E+00  0.00000000000E+00  0.90926322844E+03  0.90926322844E+03  0.00000000000E+00 0. -1.
         -1   -1    0    0    0  501 -0.00000000000E+00 -0.00000000000E+00 -0.68768736083E+03  0.68768736083E+03  0.00000000000E+00 0.  1.
         24    2    1    2    0    0 -0.32163913562E+03 -0.33168835378E+03 -0.18325267668E+03  0.50341914278E+03  0.79877357302E+02 0.  0.
        254    2    1    2    0    0  0.32163913562E+03  0.33168835378E+03  0.40482854429E+03  0.10935314465E+04  0.90468556781E+03 0.  0.
         23    2    4    4    0    0  0.67813865146E+02  0.36140652609E+03  0.63380668137E+03  0.73839855143E+03  0.91148856259E+02 0.  0.
         23    2    4    4    0    0  0.25382527048E+03 -0.29718172312E+02 -0.22897813709E+03  0.35513289506E+03  0.91531132360E+02 0.  0.
          4    1    3    3  502    0 -0.56204970490E+02 -0.10728279851E+03 -0.53580100852E+02  0.13243649335E+03  0.00000000000E+00 0. -1.
         -3    1    3    3    0  502 -0.26543416513E+03 -0.22440555527E+03 -0.12967257583E+03  0.37098264943E+03  0.00000000000E+00 0.  1.
         11    1    5    5    0    0 -0.19121026924E+02  0.11988299530E+03  0.22565693068E+03  0.25623933461E+03  0.00000000000E+00 0. -1.
        -11    1    5    5    0    0  0.86934892070E+02  0.24152353079E+03  0.40814975069E+03  0.48215921683E+03  0.00000000000E+00 0.  1.
          1    1    6    6  503    0  0.14509365212E+03 -0.10900940000E+02 -0.69625162153E+02  0.16130301170E+03  0.00000000000E+00 0. -1.
         -1    1    6    6    0  503  0.10873161835E+03 -0.18817232311E+02 -0.15935297493E+03  0.19382988336E+03  0.00000000000E+00 0.  1.
<mgrwt>
<rscale>  0 0.15815041E+04</rscale>
<asrwt>0</asrwt>
<pdfrwt beam="1">  1        2 0.13988665E+00 0.15815041E+04</pdfrwt>
<pdfrwt beam="2">  1       -1 0.10579806E+00 0.15815041E+04</pdfrwt>
<totfact> 0.26500649E+01</totfact>
</mgrwt>
</event>
<event>
12    6  0.1553355E-007  0.2532423E+04  0.7818608E-02  0.8391525E-01
          2   -1    0    0  501    0  0.00000000000E+00  0.00000000000E+00  0.23161352628E+04  0.23161352628E+04  0.00000000000E+00 0. -1.
         -1   -1    0    0    0  501 -0.00000000000E+00 -0.00000000000E+00 -0.69222690342E+03  0.69222690342E+03  0.00000000000E+00 0.  1.
         24    2    1    2    0    0 -0.29916970406E+03 -0.20445061747E+03  0.19599292177E+04  0.19947284767E+04  0.79476981661E+02 0.  0.
        254    2    1    2    0    0  0.29916970406E+03  0.20445061747E+03 -0.33602085836E+03  0.10136336895E+04  0.88500885439E+03 0.  0.
         23    2    4    4    0    0  0.24222421427E+03  0.51066827474E+03 -0.37616375809E+03  0.68501779116E+03  0.91079879744E+02 0.  0.
         23    2    4    4    0    0  0.56945489785E+02 -0.30621765728E+03  0.40142899736E+02  0.32861589830E+03  0.96772484624E+02 0.  0.
          2    1    3    3  502    0 -0.20899850825E+03 -0.14116578964E+03  0.15437438525E+04  0.15642101005E+04  0.00000000000E+00 0. -1.
         -1    1    3    3    0  502 -0.90171195806E+02 -0.63284827824E+02  0.41618536524E+03  0.43051837618E+03  0.00000000000E+00 0.  1.
         11    1    5    5    0    0  0.17412154336E+03  0.27901090838E+03 -0.24599887153E+03  0.41070773508E+03  0.00000000000E+00 0.  1.
        -11    1    5    5    0    0  0.68102670914E+02  0.23165736636E+03 -0.13016488657E+03  0.27431005608E+03  0.00000000000E+00 0. -1.
          3    1    6    6  503    0  0.42621458048E+02 -0.16822865081E+03 -0.25029878831E+02  0.17533956334E+03  0.00000000000E+00 0. -1.
         -3    1    6    6    0  503  0.14324031737E+02 -0.13798900647E+03  0.65172778567E+02  0.15327633496E+03  0.00000000000E+00 0.  1.
<mgrwt>
<rscale>  0 0.25324227E+04</rscale>
<asrwt>0</asrwt>
<pdfrwt beam="1">  1        2 0.35632850E+00 0.25324227E+04</pdfrwt>
<pdfrwt beam="2">  1       -1 0.10649645E+00 0.25324227E+04</pdfrwt>
<totfact> 0.36984345E+00</totfact>
</mgrwt>
</event>
<event>
12    6  0.1553355E-007  0.2049743E+04  0.7818608E-02  0.8583711E-01
         -1   -1    0    0    0  501 -0.00000000000E+00  0.00000000000E+00  0.12713102135E+04  0.12713102135E+04  0.00000000000E+00 0.  1.
          2   -1    0    0  501    0  0.00000000000E+00 -0.00000000000E+00 -0.82620406644E+03  0.82620406644E+03  0.00000000000E+00 0. -1.
         24    2    1    2    0    0 -0.39963254038E+03 -0.31782648822E+03  0.84113046759E+03  0.98720510316E+03  0.79709524283E+02 0.  0.
        254    2    1    2    0    0  0.39963254038E+03  0.31782648822E+03 -0.39602432052E+03  0.11103091768E+04  0.90290163456E+03 0.  0.
         23    2    4    4    0    0  0.67042540259E+03  0.27899724500E+03 -0.18955282409E+03  0.75605401085E+03  0.91529836901E+02 0.  0.
         23    2    4    4    0    0 -0.27079286221E+03  0.38829243224E+02 -0.20647149642E+03  0.35425516595E+03  0.89608924848E+02 0.  0.
          4    1    3    3  502    0 -0.79976163636E+02 -0.71746743227E+02  0.12128283719E+03  0.16202872742E+03  0.00000000000E+00 0. -1.
         -3    1    3    3    0  502 -0.31965637674E+03 -0.24607974499E+03  0.71984763040E+03  0.82517637574E+03  0.00000000000E+00 0.  1.
         11    1    5    5    0    0  0.59241020260E+03  0.21258600495E+03 -0.15981908325E+03  0.64937261800E+03  0.00000000000E+00 0.  1.
        -11    1    5    5    0    0  0.78015199994E+02  0.66411240049E+02 -0.29733740844E+02  0.10668139285E+03  0.00000000000E+00 0. -1.
          4    1    6    6  503    0 -0.35604570887E+02  0.38692813096E+02 -0.41289217773E+02  0.66855207409E+02  0.00000000000E+00 0. -1.
         -4    1    6    6    0  503 -0.23518829132E+03  0.13643012836E+00 -0.16518227865E+03  0.28739995854E+03  0.00000000000E+00 0.  1.
<mgrwt>
<rscale>  0 0.20497431E+04</rscale>
<asrwt>0</asrwt>
<pdfrwt beam="1">  1        2 0.12710832E+00 0.20497431E+04</pdfrwt>
<pdfrwt beam="2">  1       -1 0.19558619E+00 0.20497431E+04</pdfrwt>
<totfact> 0.56246125E+00</totfact>
</mgrwt>
</event>
<event>
12    6  0.1553355E-007  0.2689397E+04  0.7818608E-02  0.8338453E-01
         -1   -1    0    0    0  501 -0.00000000000E+00  0.00000000000E+00  0.15805211498E+04  0.15805211498E+04  0.00000000000E+00 0.  1.
          2   -1    0    0  501    0  0.00000000000E+00 -0.00000000000E+00 -0.11440618709E+04  0.11440618709E+04  0.00000000000E+00 0. -1.
         24    2    1    2    0    0 -0.11650050974E+04 -0.40055153942E+02 -0.65715440641E+02  0.11702357679E+04  0.79321755987E+02 0.  0.
        254    2    1    2    0    0  0.11650050974E+04  0.40055153942E+02  0.50217471958E+03  0.15543472528E+04  0.89720379008E+03 0.  0.
         23    2    4    4    0    0  0.96414967829E+03 -0.69677203908E+02 -0.26285116118E+02  0.97132754060E+03  0.91360652937E+02 0.  0.
         23    2    4    4    0    0  0.20085541911E+03  0.10973235785E+03  0.52845983570E+03  0.58301971219E+03  0.90874072800E+02 0.  0.
          2    1    3    3  502    0 -0.11360737458E+04 -0.45511590734E+02 -0.53154472441E+02  0.11382268046E+04  0.00000000000E+00 0. -1.
         -1    1    3    3    0  502 -0.28931351586E+02  0.54564367925E+01 -0.12560968199E+02  0.32008963263E+02  0.00000000000E+00 0.  1.
         11    1    5    5    0    0  0.13285907805E+03  0.10564675263E+02  0.20586050478E+02  0.13485893541E+03  0.00000000000E+00 0.  1.
        -11    1    5    5    0    0  0.83129060024E+03 -0.80241879171E+02 -0.46871166596E+02  0.83646860519E+03  0.00000000000E+00 0. -1.
          1    1    6    6  503    0  0.16863365171E+03  0.48620173665E+02  0.40817754290E+03  0.44430860481E+03  0.00000000000E+00 0. -1.
         -1    1    6    6    0  503  0.32221767401E+02  0.61112184185E+02  0.12028229280E+03  0.13871110738E+03  0.00000000000E+00 0.  1.
<mgrwt>
<rscale>  0 0.26893969E+04</rscale>
<asrwt>0</asrwt>
<pdfrwt beam="1">  1        2 0.17600952E+00 0.26893969E+04</pdfrwt>
<pdfrwt beam="2">  1       -1 0.24315710E+00 0.26893969E+04</pdfrwt>
<totfact> 0.15833387E+00</totfact>
</mgrwt>
</event>
<event>
12    6  0.1553355E-007  0.1902586E+04  0.7818608E-02  0.8653570E-01
         -3   -1    0    0    0  501 -0.00000000000E+00  0.00000000000E+00  0.15612468405E+04  0.15612468405E+04  0.00000000000E+00 0.  1.
          2   -1    0    0  501    0  0.00000000000E+00 -0.00000000000E+00 -0.57963847118E+03  0.57963847118E+03  0.00000000000E+00 0. -1.
         24    2    1    2    0    0  0.10432665629E+03 -0.45384071214E+03 -0.25873584539E+03  0.53902469893E+03  0.82145877314E+02 0.  0.
        254    2    1    2    0    0 -0.10432665629E+03  0.45384071214E+03  0.12403442147E+04  0.16018606128E+04  0.90036004383E+03 0.  0.
         23    2    4    4    0    0  0.23080183877E+03  0.49105642674E+03  0.10898838909E+04  0.12208521518E+04  0.90703792226E+02 0.  0.
         23    2    4    4    0    0 -0.33512849507E+03 -0.37215714600E+02  0.15046032388E+03  0.38100846100E+03  0.93984151182E+02 0.  0.
          2    1    3    3  502    0  0.33719596060E+02 -0.11238103502E+03 -0.10686397733E+03  0.15870229312E+03  0.00000000000E+00 0. -1.
         -1    1    3    3    0  502  0.70607060235E+02 -0.34145967712E+03 -0.15187186805E+03  0.38032240581E+03  0.00000000000E+00 0.  1.
         11    1    5    5    0    0  0.20062253249E+03  0.38236574568E+03  0.78751860896E+03  0.89813057150E+03  0.00000000000E+00 0.  1.
        -11    1    5    5    0    0  0.30179306285E+02  0.10869068107E+03  0.30236528191E+03  0.32272158028E+03  0.00000000000E+00 0. -1.
          4    1    6    6  503    0 -0.30164580696E+02 -0.86853263189E+01  0.49290506094E+02  0.58437067114E+02  0.00000000000E+00 0. -1.
         -4    1    6    6    0  503 -0.30496391437E+03 -0.28530388281E+02  0.10116981778E+03  0.32257139389E+03  0.00000000000E+00 0.  1.
<mgrwt>
<rscale>  0 0.19025864E+04</rscale>
<asrwt>0</asrwt>
<pdfrwt beam="1">  1        2 0.89175150E-01 0.19025864E+04</pdfrwt>
<pdfrwt beam="2">  1       -3 0.24019182E+00 0.19025864E+04</pdfrwt>
<totfact> 0.25263340E+00</totfact>
</mgrwt>
</event>
<event>
12    6  0.1553355E-007  0.2099044E+04  0.7818608E-02  0.8561665E-01
         -1   -1    0    0    0  501 -0.00000000000E+00  0.00000000000E+00  0.93088255773E+03  0.93088255773E+03  0.00000000000E+00 0.  1.
          2   -1    0    0  501    0  0.00000000000E+00 -0.00000000000E+00 -0.11832819987E+04  0.11832819987E+04  0.00000000000E+00 0. -1.
         24    2    1    2    0    0 -0.11572675898E+03 -0.83838501687E+03  0.13919475742E+02  0.85158671788E+03  0.93402714141E+02 0.  0.
        254    2    1    2    0    0  0.11572675898E+03  0.83838501687E+03 -0.26631891668E+03  0.12625778385E+04  0.89827329565E+03 0.  0.
         23    2    4    4    0    0 -0.37001950933E+03  0.52498732619E+03 -0.14540131759E+03  0.66497122872E+03  0.92298764453E+02 0.  0.
         23    2    4    4    0    0  0.48574626831E+03  0.31339769068E+03 -0.12091759909E+03  0.59760660980E+03  0.91351215679E+02 0.  0.
          2    1    3    3  502    0  0.37902442531E+01 -0.84876589113E+02  0.25051131298E+02  0.88577426640E+02  0.00000000000E+00 0. -1.
         -1    1    3    3    0  502 -0.11951700323E+03 -0.75350842776E+03 -0.11131655556E+02  0.76300929124E+03  0.00000000000E+00 0.  1.
         11    1    5    5    0    0 -0.23665637624E+03  0.40461071101E+03 -0.93556089357E+02  0.47798411034E+03  0.00000000000E+00 0. -1.
        -11    1    5    5    0    0 -0.13336313309E+03  0.12037661518E+03 -0.51845228234E+02  0.18698711838E+03  0.00000000000E+00 0.  1.
          4    1    6    6  503    0  0.43485883298E+03  0.25622669895E+03 -0.12809525506E+03  0.52073286841E+03  0.00000000000E+00 0. -1.
         -4    1    6    6    0  503  0.50887435334E+02  0.57170991729E+02  0.71776559711E+01  0.76873741391E+02  0.00000000000E+00 0.  1.
<mgrwt>
<rscale>  0 0.20990441E+04</rscale>
<asrwt>0</asrwt>
<pdfrwt beam="1">  1        2 0.18204339E+00 0.20990441E+04</pdfrwt>
<pdfrwt beam="2">  1       -1 0.14321270E+00 0.20990441E+04</pdfrwt>
<totfact> 0.80428069E+00</totfact>
</mgrwt>
</event>
<event>
12    6  0.1553355E-007  0.1592153E+04  0.7818608E-02  0.8825383E-01
         -1   -1    0    0    0  501 -0.00000000000E+00  0.00000000000E+00  0.28048900321E+03  0.28048900321E+03  0.00000000000E+00 0.  1.
          2   -1    0    0  501    0  0.00000000000E+00 -0.00000000000E+00 -0.22594031460E+04  0.22594031460E+04  0.00000000000E+00 0. -1.
         24    2    1    2    0    0 -0.97471135917E+02  0.29486934880E+03 -0.13825111316E+04  0.14192905141E+04  0.81240255653E+02 0.  0.
        254    2    1    2    0    0  0.97471135917E+02 -0.29486934880E+03 -0.59640301111E+03  0.11206016350E+04  0.89643902058E+03 0.  0.
         23    2    4    4    0    0 -0.12215284405E+03 -0.34560434424E+03 -0.74609529362E+03  0.83621512294E+03  0.90740644680E+02 0.  0.
         23    2    4    4    0    0  0.21962397997E+03  0.50734995441E+02  0.14969228252E+03  0.28438651211E+03  0.87516721169E+02 0.  0.
          2    1    3    3  502    0 -0.54178081629E+02  0.25924523457E+03 -0.11541558095E+04  0.11841532793E+04  0.00000000000E+00 0. -1.
         -1    1    3    3    0  502 -0.43293054289E+02  0.35624114225E+02 -0.22835532214E+03  0.23513723485E+03  0.00000000000E+00 0.  1.
         11    1    5    5    0    0 -0.12367483077E+03 -0.30643024998E+03 -0.60029885956E+03  0.68523987235E+03  0.00000000000E+00 0. -1.
        -11    1    5    5    0    0  0.15219867193E+01 -0.39174094260E+02 -0.14579643407E+03  0.15097525059E+03  0.00000000000E+00 0.  1.
          1    1    6    6  503    0  0.91031416703E+02  0.57679887180E+02  0.39112366959E+02  0.11464495393E+03  0.00000000000E+00 0. -1.
         -1    1    6    6    0  503  0.12859256327E+03 -0.69448917398E+01  0.11057991556E+03  0.16974155818E+03  0.00000000000E+00 0.  1.
<mgrwt>
<rscale>  0 0.15921529E+04</rscale>
<asrwt>0</asrwt>
<pdfrwt beam="1">  1        2 0.34760048E+00 0.15921529E+04</pdfrwt>
<pdfrwt beam="2">  1       -1 0.43152155E-01 0.15921529E+04</pdfrwt>
<totfact> 0.27690085E+01</totfact>
</mgrwt>
</event>
<event>
12    6  0.1553355E-007  0.1994276E+04  0.7818608E-02  0.8609302E-01
          2   -1    0    0  501    0  0.00000000000E+00  0.00000000000E+00  0.39646155624E+04  0.39646155624E+04  0.00000000000E+00 0. -1.
         -1   -1    0    0    0  501 -0.00000000000E+00 -0.00000000000E+00 -0.25078948589E+03  0.25078948589E+03  0.00000000000E+00 0.  1.
         24    2    1    2    0    0 -0.45716942228E+03 -0.62666152597E+02  0.12392281588E+03  0.48444339267E+03  0.79985055212E+02 0.  0.
        254    2    1    2    0    0  0.45716942228E+03  0.62666152597E+02  0.35899032607E+04  0.37309616556E+04  0.90539412834E+03 0.  0.
         23    2    4    4    0    0  0.18546543313E+03 -0.37437009255E+03  0.98554001038E+03  0.10743316646E+04  0.91372974126E+02 0.  0.
         23    2    4    4    0    0  0.27170398915E+03  0.43703624515E+03  0.26043632503E+04  0.26566299910E+04  0.10075332579E+03 0.  0.
          4    1    3    3  502    0 -0.16817637556E+03 -0.18643420501E+02  0.62517394244E+01  0.16932204425E+03  0.00000000000E+00 0. -1.
         -3    1    3    3    0  502 -0.28899304672E+03 -0.44022732095E+02  0.11767107645E+03  0.31512134842E+03  0.00000000000E+00 0.  1.
         11    1    5    5    0    0  0.83765730396E+02 -0.13935017054E+03  0.49427114222E+03  0.52032598402E+03  0.00000000000E+00 0.  1.
        -11    1    5    5    0    0  0.10169970274E+03 -0.23501992201E+03  0.49126886816E+03  0.55400568057E+03  0.00000000000E+00 0. -1.
          3    1    6    6  503    0  0.19337274993E+03  0.24283253974E+03  0.17222660785E+04  0.17500174593E+04  0.00000000000E+00 0. -1.
         -3    1    6    6    0  503  0.78331239213E+02  0.19420370541E+03  0.88209717176E+03  0.90661253171E+03  0.00000000000E+00 0.  1.
<mgrwt>
<rscale>  0 0.19942757E+04</rscale>
<asrwt>0</asrwt>
<pdfrwt beam="1">  1        2 0.60994081E+00 0.19942757E+04</pdfrwt>
<pdfrwt beam="2">  1       -1 0.38583001E-01 0.19942757E+04</pdfrwt>
<totfact> 0.25404619E+00</totfact>
</mgrwt>
</event>
<event>
12    6  0.1553355E-007  0.2200542E+04  0.7818608E-02  0.8518203E-01
         -1   -1    0    0    0  501 -0.00000000000E+00  0.00000000000E+00  0.46308580201E+03  0.46308580201E+03  0.00000000000E+00 0.  1.
          2   -1    0    0  501    0  0.00000000000E+00 -0.00000000000E+00 -0.26141936673E+04  0.26141936673E+04  0.00000000000E+00 0. -1.
         24    2    1    2    0    0  0.80161342706E+03  0.36807574941E+03 -0.12836833773E+04  0.15597981151E+04  0.84043459116E+02 0.  0.
        254    2    1    2    0    0 -0.80161342706E+03 -0.36807574941E+03 -0.86742448799E+03  0.15174813542E+04  0.87878357642E+03 0.  0.
         23    2    4    4    0    0  0.17574295142E+03 -0.44343913181E+02 -0.80889335666E+02  0.21858447055E+03  0.91564832380E+02 0.  0.
         23    2    4    4    0    0 -0.97735637849E+03 -0.32373183623E+03 -0.78653515233E+03  0.12988968836E+04  0.92020520117E+02 0.  0.
          4    1    3    3  502    0  0.73702728676E+03  0.35458823904E+03 -0.11560469223E+04  0.14161167068E+04  0.00000000000E+00 0. -1.
         -3    1    3    3    0  502  0.64586140307E+02  0.13487510375E+02 -0.12763645495E+03  0.14368140829E+03  0.00000000000E+00 0.  1.
         11    1    5    5    0    0  0.11887215298E+02  0.21090505447E+02 -0.21617995386E+02  0.32456941200E+02  0.00000000000E+00 0. -1.
        -11    1    5    5    0    0  0.16385573613E+03 -0.65434418628E+02 -0.59271340280E+02  0.18612752935E+03  0.00000000000E+00 0.  1.
          2    1    6    6  503    0 -0.93431077702E+03 -0.31834101452E+03 -0.73018311604E+03  0.12277805230E+04  0.00000000000E+00 0.  1.
         -2    1    6    6    0  503 -0.43045601463E+02 -0.53908217168E+01 -0.56352036283E+02  0.71116360687E+02  0.00000000000E+00 0. -1.
<mgrwt>
<rscale>  0 0.22005417E+04</rscale>
<asrwt>0</asrwt>
<pdfrwt beam="1">  1        2 0.40218364E+00 0.22005417E+04</pdfrwt>
<pdfrwt beam="2">  1       -1 0.71243970E-01 0.22005417E+04</pdfrwt>
<totfact> 0.61792892E+00</totfact>
</mgrwt>
</event>
<event>
12    6  0.1553355E-007  0.1207131E+04  0.7818608E-02  0.9106638E-01
         -1   -1    0    0    0  501 -0.00000000000E+00  0.00000000000E+00  0.18616908203E+03  0.18616908203E+03  0.00000000000E+00 0.  1.
          2   -1    0    0  501    0  0.00000000000E+00 -0.00000000000E+00 -0.19567753289E+04  0.19567753289E+04  0.00000000000E+00 0. -1.
         24    2    1    2    0    0 -0.16854477450E+03 -0.21111619810E+03 -0.37603177543E+03  0.46988655772E+03  0.80100504905E+02 0.  0.
        254    2    1    2    0    0  0.16854477450E+03  0.21111619810E+03 -0.13945744714E+04  0.16730578532E+04  0.88391585214E+03 0.  0.
         23    2    4    4    0    0 -0.11372815617E+03 -0.12497975223E+03  0.17856883838E+02  0.19131157419E+03  0.87904596816E+02 0.  0.
         23    2    4    4    0    0  0.28227293067E+03  0.33609595033E+03 -0.14124313553E+04  0.14817462790E+04  0.89281615132E+02 0.  0.
          4    1    3    3  502    0 -0.68172866296E+02 -0.10044684341E+03 -0.23463754847E+03  0.26418154213E+03  0.00000000000E+00 0. -1.
         -3    1    3    3    0  502 -0.10037190820E+03 -0.11066935469E+03 -0.14139422696E+03  0.20570501559E+03  0.00000000000E+00 0.  1.
         11    1    5    5    0    0 -0.46354011259E+02 -0.78627091088E+01 -0.19850647069E+02  0.51034936498E+02  0.00000000000E+00 0. -1.
        -11    1    5    5    0    0 -0.67374144916E+02 -0.11711704313E+03  0.37707530908E+02  0.14027663769E+03  0.00000000000E+00 0.  1.
          3    1    6    6  503    0  0.23351463756E+02  0.42580255925E+02 -0.26457177728E+03  0.26899181100E+03  0.00000000000E+00 0. -1.
         -3    1    6    6    0  503  0.25892146692E+03  0.29351569441E+03 -0.11478595780E+04  0.12127544680E+04  0.00000000000E+00 0.  1.
<mgrwt>
<rscale>  0 0.12071306E+04</rscale>
<asrwt>0</asrwt>
<pdfrwt beam="1">  1        2 0.30104238E+00 0.12071306E+04</pdfrwt>
<pdfrwt beam="2">  1       -1 0.28641395E-01 0.12071306E+04</pdfrwt>
<totfact> 0.87898382E+01</totfact>
</mgrwt>
</event>
<event>
12    6  0.1878852E-007  0.2245863E+04  0.7818608E-02  0.8499578E-01
          2   -1    0    0  501    0  0.00000000000E+00  0.00000000000E+00  0.15365849101E+04  0.15365849101E+04  0.00000000000E+00 0. -1.
         -1   -1    0    0    0  501 -0.00000000000E+00 -0.00000000000E+00 -0.82063503329E+03  0.82063503329E+03  0.00000000000E+00 0.  1.
         24    2    1    2    0    0 -0.47226586791E+03 -0.62572245819E+03  0.81914603106E+03  0.11366069787E+04  0.79445321210E+02 0.  0.
        254    2    1    2    0    0  0.47226586791E+03  0.62572245819E+03 -0.10319615430E+03  0.12206129647E+04  0.92988328224E+03 0.  0.
         23    2    4    4    0    0  0.66975253683E+03  0.48280080180E+03  0.16465454594E+03  0.84713420319E+03  0.94128443672E+02 0.  0.
         23    2    4    4    0    0 -0.19748666892E+03  0.14292165639E+03 -0.26785070024E+03  0.37347876148E+03  0.91185543748E+02 0.  0.
          4    1    3    3  502    0 -0.39335698303E+03 -0.49347734376E+03  0.61795181175E+03  0.88324065041E+03  0.00000000000E+00 0. -1.
         -3    1    3    3    0  502 -0.78908884876E+02 -0.13224511444E+03  0.20119421932E+03  0.25336632825E+03  0.00000000000E+00 0.  1.
         11    1    5    5    0    0  0.36606177596E+03  0.20634814941E+03  0.89439099449E+02  0.42962790307E+03  0.00000000000E+00 0.  1.
        -11    1    5    5    0    0  0.30369076087E+03  0.27645265240E+03  0.75215446493E+02  0.41750630013E+03  0.00000000000E+00 0. -1.
          4    1    6    6  503    0 -0.18728367395E+03  0.10778638242E+03 -0.25603186777E+03  0.33503044053E+03  0.00000000000E+00 0. -1.
         -4    1    6    6    0  503 -0.10202994967E+02  0.35135273966E+02 -0.11818832471E+02  0.38448320951E+02  0.00000000000E+00 0.  1.
<mgrwt>
<rscale>  0 0.22458632E+04</rscale>
<asrwt>0</asrwt>
<pdfrwt beam="1">  1        2 0.23639768E+00 0.22458632E+04</pdfrwt>
<pdfrwt beam="2">  1       -1 0.12625154E+00 0.22458632E+04</pdfrwt>
<totfact> 0.68542556E+00</totfact>
</mgrwt>
</event>
<event>
12    6  0.1553355E-007  0.2394794E+04  0.7818608E-02  0.8441455E-01
         -1   -1    0    0    0  501 -0.00000000000E+00  0.00000000000E+00  0.11597241224E+04  0.11597241224E+04  0.00000000000E+00 0.  1.
          2   -1    0    0  501    0  0.00000000000E+00 -0.00000000000E+00 -0.12362940435E+04  0.12362940435E+04  0.00000000000E+00 0. -1.
         24    2    1    2    0    0  0.30283496913E+03 -0.48703126735E+03  0.81690593466E+03  0.10013193734E+04  0.79979419158E+02 0.  0.
        254    2    1    2    0    0 -0.30283496913E+03  0.48703126735E+03 -0.89347585573E+03  0.13946987926E+04  0.90442088840E+03 0.  0.
         23    2    4    4    0    0  0.29616702451E+03  0.35064846700E+02 -0.21715013894E+03  0.37995766564E+03  0.90935114010E+02 0.  0.
         23    2    4    4    0    0 -0.59900199364E+03  0.45196642065E+03 -0.67632571680E+03  0.10147411270E+04  0.95948140944E+02 0.  0.
          2    1    3    3  502    0 -0.21205539566E+01  0.75085501901E+00  0.77590577954E-01  0.22509004065E+01  0.00000000000E+00 0. -1.
         -1    1    3    3    0  502  0.30495552308E+03 -0.48778212237E+03  0.81682834408E+03  0.99906847296E+03  0.00000000000E+00 0.  1.
         11    1    5    5    0    0  0.26379207754E+02 -0.23103439730E+01 -0.59818044709E+02  0.65417113692E+02  0.00000000000E+00 0.  1.
        -11    1    5    5    0    0  0.26978781676E+03  0.37375190673E+02 -0.15733209423E+03  0.31454055195E+03  0.00000000000E+00 0. -1.
          3    1    6    6  503    0 -0.52243081056E+03  0.41699502007E+03 -0.63055805100E+03  0.91892450956E+03  0.00000000000E+00 0. -1.
         -3    1    6    6    0  503 -0.76571183078E+02  0.34971400579E+02 -0.45767665799E+02  0.95816617396E+02  0.00000000000E+00 0.  1.
<mgrwt>
<rscale>  0 0.23947944E+04</rscale>
<asrwt>0</asrwt>
<pdfrwt beam="1">  1        2 0.19019908E+00 0.23947944E+04</pdfrwt>
<pdfrwt beam="2">  1       -1 0.17841910E+00 0.23947944E+04</pdfrwt>
<totfact> 0.39475773E+00</totfact>
</mgrwt>
</event>
<event>
12    6  0.1553355E-007  0.1904648E+04  0.7818608E-02  0.8652546E-01
          2   -1    0    0  501    0  0.00000000000E+00  0.00000000000E+00  0.12834760557E+04  0.12834760557E+04  0.00000000000E+00 0. -1.
         -3   -1    0    0    0  501 -0.00000000000E+00 -0.00000000000E+00 -0.70661290469E+03  0.70661290469E+03  0.00000000000E+00 0.  1.
         24    2    1    2    0    0 -0.28408056047E+03  0.18616020305E+03  0.91089933337E+03  0.97563045744E+03  0.82218051067E+02 0.  0.
        254    2    1    2    0    0  0.28408056047E+03 -0.18616020305E+03 -0.33403618235E+03  0.10144585030E+04  0.89564976252E+03 0.  0.
         23    2    4    4    0    0  0.34080472803E+03 -0.44412663934E+03  0.13408016825E+02  0.56867270719E+03  0.99058258431E+02 0.  0.
         23    2    4    4    0    0 -0.56724167562E+02  0.25796643630E+03 -0.34744419917E+03  0.44578579578E+03  0.90792019174E+02 0.  0.
          2    1    3    3  502    0 -0.17910121111E+03  0.75685127899E+02  0.56898976042E+03  0.60129429556E+03  0.00000000000E+00 0. -1.
         -1    1    3    3    0  502 -0.10497934936E+03  0.11047507515E+03  0.34190957294E+03  0.37433616188E+03  0.00000000000E+00 0.  1.
         11    1    5    5    0    0  0.12783524418E+02 -0.36766712252E+02  0.23677577527E+02  0.45561357573E+02  0.00000000000E+00 0. -1.
        -11    1    5    5    0    0  0.32802120361E+03 -0.40735992709E+03 -0.10269560702E+02  0.52311134961E+03  0.00000000000E+00 0.  1.
          4    1    6    6  503    0  0.18075345709E+02  0.26809911473E+02 -0.19888611010E+02  0.37961115943E+02  0.00000000000E+00 0. -1.
         -4    1    6    6    0  503 -0.74799513271E+02  0.23115652482E+03 -0.32755558816E+03  0.40782467984E+03  0.00000000000E+00 0.  1.
<mgrwt>
<rscale>  0 0.19046477E+04</rscale>
<asrwt>0</asrwt>
<pdfrwt beam="1">  1        2 0.19745785E+00 0.19046477E+04</pdfrwt>
<pdfrwt beam="2">  1       -3 0.10870968E+00 0.19046477E+04</pdfrwt>
<totfact> 0.72061392E+00</totfact>
</mgrwt>
</event>
<event>
12    6  0.1553355E-007  0.1554366E+04  0.7818608E-02  0.8849084E-01
          2   -1    0    0  501    0  0.00000000000E+00  0.00000000000E+00  0.17003451926E+04  0.17003451926E+04  0.00000000000E+00 0. -1.
         -1   -1    0    0    0  501 -0.00000000000E+00 -0.00000000000E+00 -0.35522988190E+03  0.35522988190E+03  0.00000000000E+00 0.  1.
         24    2    1    2    0    0  0.16820732017E+03 -0.33930625593E+03  0.11264227118E+04  0.11910342018E+04  0.79447506129E+02 0.  0.
        254    2    1    2    0    0 -0.16820732017E+03  0.33930625593E+03  0.21869259889E+03  0.86454087273E+03  0.74577612588E+03 0.  0.
         23    2    4    4    0    0  0.23374061810E+03  0.12840232746E+03 -0.10373840607E+03  0.30047097319E+03  0.91647774632E+02 0.  0.
         23    2    4    4    0    0 -0.40194793826E+03  0.21090392848E+03  0.32243100496E+03  0.56406989954E+03  0.90390743340E+02 0.  0.
          4    1    3    3  502    0  0.15704689285E+03 -0.28468594993E+03  0.10246009668E+04  0.10749497466E+04  0.00000000000E+00 0. -1.
         -3    1    3    3    0  502  0.11160427319E+02 -0.54620306003E+02  0.10182174505E+03  0.11608445517E+03  0.00000000000E+00 0.  1.
         11    1    5    5    0    0  0.13605977892E+03  0.11653679970E+03 -0.41013993724E+02  0.18378040376E+03  0.00000000000E+00 0. -1.
        -11    1    5    5    0    0  0.97680839177E+02  0.11865527752E+02 -0.62724412346E+02  0.11669056944E+03  0.00000000000E+00 0.  1.
          2    1    6    6  503    0 -0.34668677899E+03  0.15379043546E+03  0.23620415695E+03  0.44680602562E+03  0.00000000000E+00 0. -1.
         -2    1    6    6    0  503 -0.55261159271E+02  0.57113493018E+02  0.86226848011E+02  0.11726387392E+03  0.00000000000E+00 0.  1.
<mgrwt>
<rscale>  0 0.15543660E+04</rscale>
<asrwt>0</asrwt>
<pdfrwt beam="1">  1        2 0.26159156E+00 0.15543660E+04</pdfrwt>
<pdfrwt beam="2">  1       -1 0.54650752E-01 0.15543660E+04</pdfrwt>
<totfact> 0.36348400E+01</totfact>
</mgrwt>
</event>
<event>
12    6  0.1553355E-007  0.2035373E+04  0.7818608E-02  0.8590259E-01
          2   -1    0    0  501    0  0.00000000000E+00  0.00000000000E+00  0.57405776484E+03  0.57405776484E+03  0.00000000000E+00 0. -1.
         -1   -1    0    0    0  501 -0.00000000000E+00 -0.00000000000E+00 -0.18041486659E+04  0.18041486659E+04  0.00000000000E+00 0.  1.
         24    2    1    2    0    0  0.18527791478E+03 -0.60661108706E+03 -0.11035532488E+04  0.12753048473E+04  0.79169211726E+02 0.  0.
        254    2    1    2    0    0 -0.18527791478E+03  0.60661108706E+03 -0.12653765227E+03  0.11029015834E+04  0.89335055190E+03 0.  0.
         23    2    4    4    0    0 -0.26223800602E+03  0.98671868900E+02 -0.41327813067E+03  0.50727359135E+03  0.89569937340E+02 0.  0.
         23    2    4    4    0    0  0.76960091238E+02  0.50793921816E+03  0.28674047840E+03  0.59562799205E+03  0.92884325798E+02 0.  0.
          4    1    3    3  502    0 -0.60537909257E+01 -0.61206458593E+01 -0.10530958543E+02  0.13601903475E+02  0.00000000000E+00 0. -1.
         -3    1    3    3    0  502  0.19133170571E+03 -0.60049044120E+03 -0.10930222902E+04  0.12617029439E+04  0.00000000000E+00 0.  1.
         11    1    5    5    0    0 -0.31036522137E+02  0.46246047800E+02 -0.60440486455E+02  0.82188898559E+02  0.00000000000E+00 0.  1.
        -11    1    5    5    0    0 -0.23120148388E+03  0.52425821100E+02 -0.35283764421E+03  0.42508469279E+03  0.00000000000E+00 0. -1.
          4    1    6    6  503    0  0.91284985268E+02  0.47182163100E+03  0.24811734365E+03  0.54084269084E+03  0.00000000000E+00 0. -1.
         -4    1    6    6    0  503 -0.14324894030E+02  0.36117587152E+02  0.38623134750E+02  0.54785301209E+02  0.00000000000E+00 0.  1.
<mgrwt>
<rscale>  0 0.20353727E+04</rscale>
<asrwt>0</asrwt>
<pdfrwt beam="1">  1        2 0.88316580E-01 0.20353727E+04</pdfrwt>
<pdfrwt beam="2">  1       -1 0.27756133E+00 0.20353727E+04</pdfrwt>
<totfact> 0.25550124E+00</totfact>
</mgrwt>
</event>
<event>
12    6  0.1553355E-007  0.1152355E+04  0.7818608E-02  0.9155614E-01
         -1   -1    0    0    0  501 -0.00000000000E+00  0.00000000000E+00  0.12447091083E+04  0.12447091083E+04  0.00000000000E+00 0.  1.
          2   -1    0    0  501    0  0.00000000000E+00 -0.00000000000E+00 -0.26671334838E+03  0.26671334838E+03  0.00000000000E+00 0. -1.
         24    2    1    2    0    0  0.19234341986E+03  0.11136252033E+03  0.13757247142E+03  0.27270976243E+03  0.77761349889E+02 0.  0.
        254    2    1    2    0    0 -0.19234341986E+03 -0.11136252033E+03  0.84042328853E+03  0.12387126943E+04  0.88243993165E+03 0.  0.
         23    2    4    4    0    0  0.93086386273E+02 -0.36259559015E+03  0.74060364550E+03  0.83491792526E+03  0.91943161203E+02 0.  0.
         23    2    4    4    0    0 -0.28542980613E+03  0.25123306982E+03  0.99819643027E+02  0.40379476901E+03  0.92184731652E+02 0.  0.
          4    1    3    3  502    0  0.77700942979E+02  0.62748011236E+02  0.20836174039E+02  0.10202399523E+03  0.00000000000E+00 0. -1.
         -3    1    3    3    0  502  0.11464247688E+03  0.48614509090E+02  0.11673629738E+03  0.17068576720E+03  0.00000000000E+00 0.  1.
         11    1    5    5    0    0  0.14890872698E+02 -0.11859949064E+03  0.32944816864E+03  0.35046208510E+03  0.00000000000E+00 0. -1.
        -11    1    5    5    0    0  0.78195513575E+02 -0.24399609951E+03  0.41115547686E+03  0.48445584017E+03  0.00000000000E+00 0.  1.
          3    1    6    6  503    0 -0.18346556667E+03  0.12078198650E+03  0.21714319459E+02  0.22072474733E+03  0.00000000000E+00 0. -1.
         -3    1    6    6    0  503 -0.10196423947E+03  0.13045108332E+03  0.78105323567E+02  0.18307002169E+03  0.00000000000E+00 0.  1.
<mgrwt>
<rscale>  0 0.11523550E+04</rscale>
<asrwt>0</asrwt>
<pdfrwt beam="1">  1        2 0.41032824E-01 0.11523550E+04</pdfrwt>
<pdfrwt beam="2">  1       -1 0.19149371E+00 0.11523550E+04</pdfrwt>
<totfact> 0.24509352E+01</totfact>
</mgrwt>
</event>
<event>
12    6  0.1553355E-007  0.1917378E+04  0.7818608E-02  0.8646254E-01
          2   -1    0    0  501    0  0.00000000000E+00  0.00000000000E+00  0.20872548335E+04  0.20872548335E+04  0.00000000000E+00 0. -1.
         -1   -1    0    0    0  501 -0.00000000000E+00 -0.00000000000E+00 -0.44033163789E+03  0.44033163789E+03  0.00000000000E+00 0.  1.
         24    2    1    2    0    0 -0.92343183757E+02 -0.68899022863E+03  0.29909249098E+03  0.76091623647E+03  0.79387669234E+02 0.  0.
        254    2    1    2    0    0  0.92343183757E+02  0.68899022863E+03  0.13478307046E+04  0.17666702349E+04  0.90622365446E+03 0.  0.
         23    2    4    4    0    0  0.16958558982E+03  0.10780934481E+03 -0.69870770332E+02  0.23003207540E+03  0.87468303201E+02 0.  0.
         23    2    4    4    0    0 -0.77242406061E+02  0.58118088382E+03  0.14177014750E+04  0.15366381595E+04  0.87417116083E+02 0.  0.
          2    1    3    3  502    0 -0.59199470464E+02 -0.36315202807E+03  0.19971052285E+03  0.41865052936E+03  0.00000000000E+00 0. -1.
         -1    1    3    3    0  502 -0.33143713293E+02 -0.32583820056E+03  0.99381968134E+02  0.34226570711E+03  0.00000000000E+00 0.  1.
         11    1    5    5    0    0 -0.23737516061E+01  0.37389363110E+01  0.12157635116E+02  0.12939182086E+02  0.00000000000E+00 0. -1.
        -11    1    5    5    0    0  0.17195934142E+03  0.10407040850E+03 -0.82028405448E+02  0.21709289332E+03  0.00000000000E+00 0.  1.
          3    1    6    6  503    0 -0.22313122993E+02  0.23547346658E+02  0.77889123344E+02  0.84374572755E+02  0.00000000000E+00 0. -1.
         -3    1    6    6    0  503 -0.54929283067E+02  0.55763353717E+03  0.13398123516E+04  0.14522635868E+04  0.00000000000E+00 0.  1.
<mgrwt>
<rscale>  0 0.19173777E+04</rscale>
<asrwt>0</asrwt>
<pdfrwt beam="1">  1        2 0.32111612E+00 0.19173777E+04</pdfrwt>
<pdfrwt beam="2">  1       -1 0.67743330E-01 0.19173777E+04</pdfrwt>
<totfact> 0.14035349E+01</totfact>
</mgrwt>
</event>
<event>
12    6  0.1553355E-007  0.1956032E+04  0.7818608E-02  0.8627457E-01
         -1   -1    0    0    0  501 -0.00000000000E+00  0.00000000000E+00  0.44093749624E+03  0.44093749624E+03  0.00000000000E+00 0.  1.
          2   -1    0    0  501    0  0.00000000000E+00 -0.00000000000E+00 -0.21692767231E+04  0.21692767231E+04  0.00000000000E+00 0. -1.
         24    2    1    2    0    0  0.55641678804E+02 -0.72889733774E+03 -0.38331732130E+03  0.82922860196E+03  0.79376193660E+02 0.  0.
        254    2    1    2    0    0 -0.55641678804E+02  0.72889733774E+03 -0.13450219056E+04  0.17809856174E+04  0.91018597964E+03 0.  0.
         23    2    4    4    0    0  0.34494577578E+03  0.87421060876E+02 -0.24016340089E+03  0.43894299895E+03  0.91446525847E+02 0.  0.
         23    2    4    4    0    0 -0.40058745458E+03  0.64147627686E+03 -0.11048585047E+04  0.13420426185E+04  0.91673070305E+02 0.  0.
          2    1    3    3  502    0 -0.22569045765E+01 -0.58924554853E+01 -0.13871807975E+02  0.15239478548E+02  0.00000000000E+00 0. -1.
         -1    1    3    3    0  502  0.57898583380E+02 -0.72300488225E+03 -0.36944551332E+03  0.81398912341E+03  0.00000000000E+00 0.  1.
         11    1    5    5    0    0  0.15869386108E+03  0.85798650434E+02 -0.13220009861E+03  0.22365602168E+03  0.00000000000E+00 0.  1.
        -11    1    5    5    0    0  0.18625191469E+03  0.16224104427E+01 -0.10796330229E+03  0.21528697727E+03  0.00000000000E+00 0. -1.
          1    1    6    6  503    0 -0.25915416734E+03  0.48178903598E+03 -0.83101098824E+03  0.99491749418E+03  0.00000000000E+00 0. -1.
         -1    1    6    6    0  503 -0.14143328724E+03  0.15968724088E+03 -0.27384751646E+03  0.34712512429E+03  0.00000000000E+00 0.  1.
<mgrwt>
<rscale>  0 0.19560322E+04</rscale>
<asrwt>0</asrwt>
<pdfrwt beam="1">  1        2 0.33373488E+00 0.19560322E+04</pdfrwt>
<pdfrwt beam="2">  1       -1 0.67836539E-01 0.19560322E+04</pdfrwt>
<totfact> 0.12551253E+01</totfact>
</mgrwt>
</event>
<event>
12    6  0.1553355E-007  0.1233426E+04  0.7818608E-02  0.9084092E-01
         -1   -1    0    0    0  501 -0.00000000000E+00  0.00000000000E+00  0.18573531711E+03  0.18573531711E+03  0.00000000000E+00 0.  1.
          2   -1    0    0  501    0  0.00000000000E+00 -0.00000000000E+00 -0.20477251160E+04  0.20477251160E+04  0.00000000000E+00 0. -1.
         24    2    1    2    0    0 -0.63757361623E+02  0.10854694333E+03 -0.87214420577E+03  0.88471779356E+03  0.79010243090E+02 0.  0.
        254    2    1    2    0    0  0.63757361623E+02 -0.10854694333E+03 -0.98984559310E+03  0.13487426395E+04  0.90744970628E+03 0.  0.
         23    2    4    4    0    0  0.23517404276E+03  0.14591427722E+03 -0.98661640375E+03  0.10288293479E+04  0.92087416983E+02 0.  0.
         23    2    4    4    0    0 -0.17141668114E+03 -0.25446122055E+03 -0.32291893504E+01  0.31991329158E+03  0.90553272327E+02 0.  0.
          2    1    3    3  502    0 -0.56228662154E+02  0.47393674795E+02 -0.65133346483E+03  0.65547166626E+03  0.00000000000E+00 0. -1.
         -1    1    3    3    0  502 -0.75286994687E+01  0.61153268535E+02 -0.22081074094E+03  0.22924612730E+03  0.00000000000E+00 0.  1.
         11    1    5    5    0    0  0.18392321541E+03  0.74299069643E+02 -0.76646358755E+03  0.79171619407E+03  0.00000000000E+00 0. -1.
        -11    1    5    5    0    0  0.51250827351E+02  0.71615207574E+02 -0.22015281620E+03  0.23711315387E+03  0.00000000000E+00 0.  1.
          1    1    6    6  503    0 -0.57849480439E+02 -0.29754672153E+02 -0.18629291377E+02  0.67667964350E+02  0.00000000000E+00 0. -1.
         -1    1    6    6    0  503 -0.11356720070E+03 -0.22470654839E+03  0.15400102027E+02  0.25224532723E+03  0.00000000000E+00 0.  1.
<mgrwt>
<rscale>  0 0.12334259E+04</rscale>
<asrwt>0</asrwt>
<pdfrwt beam="1">  1        2 0.31503462E+00 0.12334259E+04</pdfrwt>
<pdfrwt beam="2">  1       -1 0.28574665E-01 0.12334259E+04</pdfrwt>
<totfact> 0.78440928E+01</totfact>
</mgrwt>
</event>
<event>
12    6  0.1553355E-007  0.1224392E+04  0.7818608E-02  0.9091770E-01
          2   -1    0    0  501    0  0.00000000000E+00  0.00000000000E+00  0.17987554398E+04  0.17987554398E+04  0.00000000000E+00 0. -1.
         -1   -1    0    0    0  501 -0.00000000000E+00 -0.00000000000E+00 -0.20835741877E+03  0.20835741877E+03  0.00000000000E+00 0.  1.
         24    2    1    2    0    0  0.60845800758E+01 -0.27044001436E+03  0.47271785152E+03  0.54934112850E+03  0.71684620599E+02 0.  0.
        254    2    1    2    0    0 -0.60845800758E+01  0.27044001436E+03  0.11176801695E+04  0.14577717300E+04  0.89594343134E+03 0.  0.
         23    2    4    4    0    0  0.37302534603E+03 -0.10267563009E+03  0.47201931170E+03  0.61639543306E+03  0.86318627721E+02 0.  0.
         23    2    4    4    0    0 -0.37910992610E+03  0.37311564445E+03  0.64566085778E+03  0.84137629697E+03  0.89980607013E+02 0.  0.
          4    1    3    3  502    0 -0.62989067037E+01 -0.18873488661E+02  0.94414508279E+01  0.22023301152E+02  0.00000000000E+00 0. -1.
         -3    1    3    3    0  502  0.12383486780E+02 -0.25156652570E+03  0.46327640069E+03  0.52731782734E+03  0.00000000000E+00 0.  1.
         11    1    5    5    0    0  0.12236974477E+03 -0.39982519793E+02  0.97927481590E+02  0.16174902774E+03  0.00000000000E+00 0.  1.
        -11    1    5    5    0    0  0.25065560126E+03 -0.62693110296E+02  0.37409183011E+03  0.45464640533E+03  0.00000000000E+00 0. -1.
          4    1    6    6  503    0 -0.31436121536E+03  0.32956932197E+03  0.50149656507E+03  0.67744941987E+03  0.00000000000E+00 0. -1.
         -4    1    6    6    0  503 -0.64748710742E+02  0.43546322482E+02  0.14416429271E+03  0.16392687711E+03  0.00000000000E+00 0.  1.
<mgrwt>
<rscale>  0 0.12243922E+04</rscale>
<asrwt>0</asrwt>
<pdfrwt beam="1">  1        2 0.27673160E+00 0.12243922E+04</pdfrwt>
<pdfrwt beam="2">  1       -1 0.32054989E-01 0.12243922E+04</pdfrwt>
<totfact> 0.88066551E+01</totfact>
</mgrwt>
</event>
<event>
12    6  0.1553355E-007  0.1196832E+04  0.7818608E-02  0.9115634E-01
         -1   -1    0    0    0  501 -0.00000000000E+00  0.00000000000E+00  0.12158363149E+03  0.12158363149E+03  0.00000000000E+00 0.  1.
          2   -1    0    0  501    0  0.00000000000E+00 -0.00000000000E+00 -0.29453095208E+04  0.29453095208E+04  0.00000000000E+00 0. -1.
         24    2    1    2    0    0 -0.91140413731E+01  0.91202090928E+02 -0.12562689398E+04  0.12622348743E+04  0.81390058193E+02 0.  0.
        254    2    1    2    0    0  0.91140413731E+01 -0.91202090928E+02 -0.15674569496E+04  0.18046582781E+04  0.88964561749E+03 0.  0.
         23    2    4    4    0    0  0.14102555640E+02 -0.42379941354E+03 -0.12919269826E+04  0.13627221921E+04  0.90175494093E+02 0.  0.
         23    2    4    4    0    0 -0.49885142671E+01  0.33259732261E+03 -0.27552996701E+03  0.44193608591E+03  0.93514047234E+02 0.  0.
          4    1    3    3  502    0 -0.16012004045E+02  0.50890446672E+02 -0.10786408241E+04  0.10799593738E+04  0.00000000000E+00 0. -1.
         -3    1    3    3    0  502  0.68979626717E+01  0.40311644256E+02 -0.17762811574E+03  0.18227550042E+03  0.00000000000E+00 0.  1.
         11    1    5    5    0    0  0.11784397986E+02 -0.13008791959E+03 -0.53727348990E+03  0.55292363108E+03  0.00000000000E+00 0. -1.
        -11    1    5    5    0    0  0.23181576544E+01 -0.29371149395E+03 -0.75465349265E+03  0.80979856106E+03  0.00000000000E+00 0.  1.
          4    1    6    6  503    0 -0.16321040847E+02  0.14910099054E+03 -0.68002216177E+02  0.16468692467E+03  0.00000000000E+00 0. -1.
         -4    1    6    6    0  503  0.11332526580E+02  0.18349633208E+03 -0.20752775083E+03  0.27724916124E+03  0.00000000000E+00 0.  1.
<mgrwt>
<rscale>  0 0.11968315E+04</rscale>
<asrwt>0</asrwt>
<pdfrwt beam="1">  1        2 0.45312449E+00 0.11968315E+04</pdfrwt>
<pdfrwt beam="2">  1       -1 0.18705176E-01 0.11968315E+04</pdfrwt>
<totfact> 0.49096800E+01</totfact>
</mgrwt>
</event>
<event>
12    6  0.1553355E-007  0.2720905E+04  0.7818608E-02  0.8328254E-01
         -1   -1    0    0    0  501 -0.00000000000E+00  0.00000000000E+00  0.95473063590E+03  0.95473063590E+03  0.00000000000E+00 0.  1.
          2   -1    0    0  501    0  0.00000000000E+00 -0.00000000000E+00 -0.19385896530E+04  0.19385896530E+04  0.00000000000E+00 0. -1.
         24    2    1    2    0    0 -0.78879492416E+03  0.91494869080E+03 -0.53096495418E+03  0.13219406870E+04  0.79214001905E+02 0.  0.
        254    2    1    2    0    0  0.78879492416E+03 -0.91494869080E+03 -0.45289406288E+03  0.15713796019E+04  0.89710215800E+03 0.  0.
         23    2    4    4    0    0  0.18353220097E+03 -0.15506711978E+03  0.25774504773E+03  0.36401620271E+03  0.91353192458E+02 0.  0.
         23    2    4    4    0    0  0.60526272320E+03 -0.75988157101E+03 -0.71063911061E+03  0.12073633992E+04  0.94633324556E+02 0.  0.
          4    1    3    3  502    0 -0.11815268488E+02  0.33938289979E+02 -0.16292481189E+02  0.39456977069E+02  0.00000000000E+00 0. -1.
         -3    1    3    3    0  502 -0.77697965567E+03  0.88101040082E+03 -0.51467247299E+03  0.12824837099E+04  0.00000000000E+00 0.  1.
         11    1    5    5    0    0  0.11517955436E+03 -0.84786955283E+02  0.87802046854E+02  0.16782239707E+03  0.00000000000E+00 0.  1.
        -11    1    5    5    0    0  0.68352646610E+02 -0.70280164501E+02  0.16994300088E+03  0.19619380563E+03  0.00000000000E+00 0. -1.
          2    1    6    6  503    0  0.60401590110E+03 -0.76273225867E+03 -0.70888719766E+03  0.12037926591E+04  0.00000000000E+00 0. -1.
         -2    1    6    6    0  503  0.12468221001E+01  0.28506876620E+01 -0.17519129559E+01  0.35707400495E+01  0.00000000000E+00 0.  1.
<mgrwt>
<rscale>  0 0.27209049E+04</rscale>
<asrwt>0</asrwt>
<pdfrwt beam="1">  1        2 0.29824456E+00 0.27209049E+04</pdfrwt>
<pdfrwt beam="2">  1       -1 0.14688164E+00 0.27209049E+04</pdfrwt>
<totfact> 0.26588750E+00</totfact>
</mgrwt>
</event>
<event>
12    6  0.1553355E-007  0.3009021E+04  0.7818608E-02  0.8241160E-01
         -1   -1    0    0    0  501 -0.00000000000E+00  0.00000000000E+00  0.53095646138E+03  0.53095646138E+03  0.00000000000E+00 0.  1.
          2   -1    0    0  501    0  0.00000000000E+00 -0.00000000000E+00 -0.42631597717E+04  0.42631597717E+04  0.00000000000E+00 0. -1.
         24    2    1    2    0    0 -0.26544844903E+03 -0.65994597037E+03  0.16492988657E+03  0.73449482465E+03  0.79304584050E+02 0.  0.
        254    2    1    2    0    0  0.26544844903E+03  0.65994597037E+03 -0.38971331969E+04  0.40596214084E+04  0.88706666183E+03 0.  0.
         23    2    4    4    0    0  0.12079768476E+03  0.82415435707E+03 -0.23618360025E+04  0.25057622974E+04  0.82176051640E+02 0.  0.
         23    2    4    4    0    0  0.14465076427E+03 -0.16420838670E+03 -0.15352971944E+04  0.15538591110E+04  0.97223577052E+02 0.  0.
          4    1    3    3  502    0 -0.22490295701E+03 -0.54596753394E+03  0.10594310727E+03  0.59990485093E+03  0.00000000000E+00 0. -1.
         -3    1    3    3    0  502 -0.40545492019E+02 -0.11397843643E+03  0.58986779297E+02  0.13458997372E+03  0.00000000000E+00 0.  1.
         11    1    5    5    0    0  0.13591772276E+02  0.34740674958E+03 -0.93245001136E+03  0.99515788175E+03  0.00000000000E+00 0. -1.
        -11    1    5    5    0    0  0.10720591249E+03  0.47674760749E+03 -0.14293859912E+04  0.15106044157E+04  0.00000000000E+00 0.  1.
          3    1    6    6  503    0  0.15699956143E+03 -0.13600756843E+03 -0.13792921251E+04  0.13948453991E+04  0.00000000000E+00 0. -1.
         -3    1    6    6    0  503 -0.12348797162E+02 -0.28200818268E+02 -0.15600506925E+03  0.15901371191E+03  0.00000000000E+00 0.  1.
<mgrwt>
<rscale>  0 0.30090213E+04</rscale>
<asrwt>0</asrwt>
<pdfrwt beam="1">  1        2 0.65587073E+00 0.30090213E+04</pdfrwt>
<pdfrwt beam="2">  1       -1 0.81685610E-01 0.30090213E+04</pdfrwt>
<totfact> 0.29647009E-01</totfact>
</mgrwt>
</event>
<event>
12    6  0.1553355E-007  0.2153812E+04  0.7818608E-02  0.8537902E-01
          2   -1    0    0  501    0  0.00000000000E+00  0.00000000000E+00  0.10036237326E+04  0.10036237326E+04  0.00000000000E+00 0. -1.
         -1   -1    0    0    0  501 -0.00000000000E+00 -0.00000000000E+00 -0.11555392584E+04  0.11555392584E+04  0.00000000000E+00 0.  1.
         24    2    1    2    0    0 -0.32242700047E+03  0.56014575515E+03  0.54581481571E+03  0.84968350053E+03  0.79534900407E+02 0.  0.
        254    2    1    2    0    0  0.32242700047E+03 -0.56014575515E+03 -0.69773034154E+03  0.13094794905E+04  0.90010358788E+03 0.  0.
         23    2    4    4    0    0  0.35884312947E+03 -0.10765738353E+03  0.89233411582E+02  0.39612676696E+03  0.92710894514E+02 0.  0.
         23    2    4    4    0    0 -0.36416129008E+02 -0.45248837162E+03 -0.78696375312E+03  0.91335272355E+03  0.93964823104E+02 0.  0.
          4    1    3    3  502    0 -0.24809965794E+03  0.44013412832E+03  0.46697670064E+03  0.68799617014E+03  0.00000000000E+00 0. -1.
         -3    1    3    3    0  502 -0.74327342529E+02  0.12001162683E+03  0.78838115062E+02  0.16168733039E+03  0.00000000000E+00 0.  1.
         11    1    5    5    0    0  0.67601191100E+01 -0.10771584020E+02  0.21127724361E+02  0.24659825006E+02  0.00000000000E+00 0.  1.
        -11    1    5    5    0    0  0.35208301036E+03 -0.96885799511E+02  0.68105687221E+02  0.37146694195E+03  0.00000000000E+00 0. -1.
          3    1    6    6  503    0  0.11328082206E+01 -0.28910173343E+03 -0.41971223869E+03  0.50964640569E+03  0.00000000000E+00 0. -1.
         -3    1    6    6    0  503 -0.37548937228E+02 -0.16338663819E+03 -0.36725151443E+03  0.40370631786E+03  0.00000000000E+00 0.  1.
<mgrwt>
<rscale>  0 0.21538121E+04</rscale>
<asrwt>0</asrwt>
<pdfrwt beam="1">  1        2 0.15440365E+00 0.21538121E+04</pdfrwt>
<pdfrwt beam="2">  1       -1 0.17777527E+00 0.21538121E+04</pdfrwt>
<totfact> 0.56612933E+00</totfact>
</mgrwt>
</event>
<event>
12    6  0.1553355E-007  0.1828358E+04  0.7818608E-02  0.8691363E-01
         -1   -1    0    0    0  501 -0.00000000000E+00  0.00000000000E+00  0.58295324852E+03  0.58295324852E+03  0.00000000000E+00 0.  1.
          2   -1    0    0  501    0  0.00000000000E+00 -0.00000000000E+00 -0.14336017409E+04  0.14336017409E+04  0.00000000000E+00 0. -1.
         24    2    1    2    0    0 -0.58653969549E+03 -0.33817607658E+03 -0.48102517261E+03  0.83429681054E+03  0.79209079273E+02 0.  0.
        254    2    1    2    0    0  0.58653969549E+03  0.33817607658E+03 -0.36962331977E+03  0.11822581789E+04  0.89594705750E+03 0.  0.
         23    2    4    4    0    0 -0.20146805432E+03  0.33329439247E+02 -0.23054392124E+03  0.32109764462E+03  0.90845854769E+02 0.  0.
         23    2    4    4    0    0  0.78800774982E+03  0.30484663733E+03 -0.13907939853E+03  0.86116053425E+03  0.91469670359E+02 0.  0.
          2    1    3    3  502    0 -0.20485174044E+03 -0.13752503983E+03 -0.21764807389E+03  0.32901072354E+03  0.00000000000E+00 0. -1.
         -1    1    3    3    0  502 -0.38168795506E+03 -0.20065103675E+03 -0.26337709873E+03  0.50528608700E+03  0.00000000000E+00 0.  1.
         11    1    5    5    0    0 -0.17166146025E+03 -0.88003453529E+01 -0.17841711109E+03  0.24774537038E+03  0.00000000000E+00 0. -1.
        -11    1    5    5    0    0 -0.29806594072E+02  0.42129784600E+02 -0.52126810145E+02  0.73352274242E+02  0.00000000000E+00 0.  1.
          4    1    6    6  503    0  0.58695458887E+03  0.19911893843E+03 -0.70105196738E+02  0.62376179720E+03  0.00000000000E+00 0. -1.
         -4    1    6    6    0  503  0.20105316095E+03  0.10572769889E+03 -0.68974201790E+02  0.23739873705E+03  0.00000000000E+00 0.  1.
<mgrwt>
<rscale>  0 0.18283575E+04</rscale>
<asrwt>0</asrwt>
<pdfrwt beam="1">  1        2 0.22055411E+00 0.18283575E+04</pdfrwt>
<pdfrwt beam="2">  1       -1 0.89685117E-01 0.18283575E+04</pdfrwt>
<totfact> 0.18091612E+01</totfact>
</mgrwt>
</event>
<event>
12    6  0.1553355E-007  0.2676555E+04  0.7818608E-02  0.8342652E-01
         -1   -1    0    0    0  501 -0.00000000000E+00  0.00000000000E+00  0.10474171294E+04  0.10474171294E+04  0.00000000000E+00 0.  1.
          2   -1    0    0  501    0  0.00000000000E+00 -0.00000000000E+00 -0.17099076848E+04  0.17099076848E+04  0.00000000000E+00 0. -1.
         24    2    1    2    0    0  0.10717315411E+04  0.36223327263E+03 -0.64141655881E+03  0.13029285509E+04  0.79913496247E+02 0.  0.
        254    2    1    2    0    0 -0.10717315411E+04 -0.36223327263E+03 -0.21073996561E+02  0.14543962633E+04  0.91378495147E+03 0.  0.
         23    2    4    4    0    0 -0.21956935228E+03 -0.49027664802E+02  0.38563554262E+03  0.45546311915E+03  0.90096996582E+02 0.  0.
         23    2    4    4    0    0 -0.85216218877E+03 -0.31320560783E+03 -0.40670953918E+03  0.99893314417E+03  0.90424711817E+02 0.  0.
          2    1    3    3  502    0  0.20655509148E+03  0.95306424964E+02 -0.10507359639E+03  0.25057689661E+03  0.00000000000E+00 0. -1.
         -1    1    3    3    0  502  0.86517644957E+03  0.26692684767E+03 -0.53634296242E+03  0.10523516543E+04  0.00000000000E+00 0.  1.
         11    1    5    5    0    0 -0.16114060397E+03 -0.31710716378E+02  0.19300208712E+03  0.25341994676E+03  0.00000000000E+00 0.  1.
        -11    1    5    5    0    0 -0.58428748314E+02 -0.17316948423E+02  0.19263345550E+03  0.20204317239E+03  0.00000000000E+00 0. -1.
          3    1    6    6  503    0 -0.75905081886E+03 -0.26052563672E+03 -0.33216428264E+03  0.86854180306E+03  0.00000000000E+00 0. -1.
         -3    1    6    6    0  503 -0.93111369907E+02 -0.52679971111E+02 -0.74545256540E+02  0.13039134110E+03  0.00000000000E+00 0.  1.
<mgrwt>
<rscale>  0 0.26765549E+04</rscale>
<asrwt>0</asrwt>
<pdfrwt beam="1">  1        2 0.26306272E+00 0.26765549E+04</pdfrwt>
<pdfrwt beam="2">  1       -1 0.16114110E+00 0.26765549E+04</pdfrwt>
<totfact> 0.27758414E+00</totfact>
</mgrwt>
</event>
<event>
12    6  0.1553355E-007  0.1735277E+04  0.7818608E-02  0.8741496E-01
         -1   -1    0    0    0  501 -0.00000000000E+00  0.00000000000E+00  0.68582723495E+03  0.68582723495E+03  0.00000000000E+00 0.  1.
          2   -1    0    0  501    0  0.00000000000E+00 -0.00000000000E+00 -0.10976478501E+04  0.10976478501E+04  0.00000000000E+00 0. -1.
         24    2    1    2    0    0 -0.41220213040E+03  0.23702917213E+03  0.27476105886E+03  0.55526422264E+03  0.82044455792E+02 0.  0.
        254    2    1    2    0    0  0.41220213040E+03 -0.23702917213E+03 -0.68658167401E+03  0.12282108624E+04  0.90056321418E+03 0.  0.
         23    2    4    4    0    0  0.64303717029E+03 -0.57421003997E+02 -0.64445447046E+03  0.91773403673E+03  0.10059932217E+03 0.  0.
         23    2    4    4    0    0 -0.23083503989E+03 -0.17960816813E+03 -0.42127203552E+02  0.31047682568E+03  0.95274594227E+02 0.  0.
          4    1    3    3  502    0 -0.72669524649E+02  0.14083669111E+02  0.23574059920E+02  0.77684913911E+02  0.00000000000E+00 0. -1.
         -3    1    3    3    0  502 -0.33953260575E+03  0.22294550302E+03  0.25118699894E+03  0.47757930872E+03  0.00000000000E+00 0.  1.
         11    1    5    5    0    0  0.25793479590E+03 -0.11349878535E+02 -0.32628742942E+03  0.41608011882E+03  0.00000000000E+00 0.  1.
        -11    1    5    5    0    0  0.38510237438E+03 -0.46071125463E+02 -0.31816704104E+03  0.50165391791E+03  0.00000000000E+00 0. -1.
          3    1    6    6  503    0 -0.65013124090E+02 -0.64162665755E+01 -0.25486612399E+02  0.70124476413E+02  0.00000000000E+00 0. -1.
         -3    1    6    6    0  503 -0.16582191580E+03 -0.17319190156E+03 -0.16640591153E+02  0.24035234927E+03  0.00000000000E+00 0.  1.
<mgrwt>
<rscale>  0 0.17352773E+04</rscale>
<asrwt>0</asrwt>
<pdfrwt beam="1">  1        2 0.16886890E+00 0.17352773E+04</pdfrwt>
<pdfrwt beam="2">  1       -1 0.10551188E+00 0.17352773E+04</pdfrwt>
<totfact> 0.19917724E+01</totfact>
</mgrwt>
</event>
<event>
12    6  0.1553355E-007  0.1318111E+04  0.7818608E-02  0.9015325E-01
          2   -1    0    0  501    0  0.00000000000E+00  0.00000000000E+00  0.13916905939E+03  0.13916905939E+03  0.00000000000E+00 0. -1.
         -1   -1    0    0    0  501 -0.00000000000E+00 -0.00000000000E+00 -0.31210518308E+04  0.31210518308E+04  0.00000000000E+00 0.  1.
         24    2    1    2    0    0  0.38326120343E+02 -0.28806491617E+02  0.39654631162E+02  0.10030862240E+03  0.78680521700E+02 0.  0.
        254    2    1    2    0    0 -0.38326120343E+02  0.28806491617E+02 -0.30215374026E+04  0.31599122678E+04  0.92361169304E+03 0.  0.
         23    2    4    4    0    0  0.37377689504E+03 -0.70330592996E+02 -0.73541249932E+03  0.83296059204E+03  0.91303034743E+02 0.  0.
         23    2    4    4    0    0 -0.41210301538E+03  0.99137084613E+02 -0.22861249033E+04  0.23269516758E+04  0.93166362902E+02 0.  0.
          4    1    3    3  502    0  0.40606681308E+02 -0.11511343157E+02 -0.13540882724E+02  0.44325715934E+02  0.00000000000E+00 0. -1.
         -3    1    3    3    0  502 -0.22805609646E+01 -0.17295148460E+02  0.53195513886E+02  0.55982906464E+02  0.00000000000E+00 0.  1.
         11    1    5    5    0    0  0.87468722914E+01  0.66523911708E+01 -0.36317693206E+01  0.11573756156E+02  0.00000000000E+00 0. -1.
        -11    1    5    5    0    0  0.36503002275E+03 -0.76982984167E+02 -0.73178073000E+03  0.82138683588E+03  0.00000000000E+00 0.  1.
          1    1    6    6  503    0 -0.44573268325E+02 -0.10090416120E+02 -0.37255355931E+03  0.37534616996E+03  0.00000000000E+00 0. -1.
         -1    1    6    6    0  503 -0.36752974706E+03  0.10922750073E+03 -0.19135713440E+04  0.19516055058E+04  0.00000000000E+00 0.  1.
<mgrwt>
<rscale>  0 0.13181105E+04</rscale>
<asrwt>0</asrwt>
<pdfrwt beam="1">  1        2 0.21410625E-01 0.13181105E+04</pdfrwt>
<pdfrwt beam="2">  1       -1 0.48016180E+00 0.13181105E+04</pdfrwt>
<totfact> 0.59982501E-01</totfact>
</mgrwt>
</event>
<event>
12    6  0.1553355E-007  0.2761051E+04  0.7818608E-02  0.8315463E-01
          2   -1    0    0  501    0  0.00000000000E+00  0.00000000000E+00  0.33016398709E+04  0.33016398709E+04  0.00000000000E+00 0. -1.
         -1   -1    0    0    0  501 -0.00000000000E+00 -0.00000000000E+00 -0.57724362448E+03  0.57724362448E+03  0.00000000000E+00 0.  1.
         24    2    1    2    0    0  0.10197692859E+04 -0.63156900471E+03  0.79798832137E+03  0.14429050738E+04  0.79880453564E+02 0.  0.
        254    2    1    2    0    0 -0.10197692859E+04  0.63156900471E+03  0.19264079251E+04  0.24359784216E+04  0.88551373362E+03 0.  0.
         23    2    4    4    0    0 -0.70718590374E+03  0.14105438793E+03  0.16120505633E+04  0.17684446195E+04  0.93172477747E+02 0.  0.
         23    2    4    4    0    0 -0.31258338216E+03  0.49051461677E+03  0.31435736178E+03  0.66753380213E+03  0.92021008532E+02 0.  0.
          4    1    3    3  502    0  0.54299707003E+03 -0.37278607612E+03  0.40768732763E+03  0.77461231188E+03  0.00000000000E+00 0. -1.
         -3    1    3    3    0  502  0.47677221587E+03 -0.25878292859E+03  0.39030099374E+03  0.66829276195E+03  0.00000000000E+00 0.  1.
         11    1    5    5    0    0 -0.10884772598E+03  0.18506426004E+02  0.17405344538E+03  0.20611869663E+03  0.00000000000E+00 0. -1.
        -11    1    5    5    0    0 -0.59833817776E+03  0.12254796193E+03  0.14379971179E+04  0.15623259228E+04  0.00000000000E+00 0.  1.
          2    1    6    6  503    0 -0.11174087992E+02  0.52440117364E+02  0.51577420496E+02  0.74397960031E+02  0.00000000000E+00 0. -1.
         -2    1    6    6    0  503 -0.30140929417E+03  0.43807449941E+03  0.26277994128E+03  0.59313584210E+03  0.00000000000E+00 0.  1.
<mgrwt>
<rscale>  0 0.27610509E+04</rscale>
<asrwt>0</asrwt>
<pdfrwt beam="1">  1        2 0.50794458E+00 0.27610509E+04</pdfrwt>
<pdfrwt beam="2">  1       -1 0.88806714E-01 0.27610509E+04</pdfrwt>
<totfact> 0.13710483E+00</totfact>
</mgrwt>
</event>
<event>
12    6  0.1553355E-007  0.3180940E+04  0.7818608E-02  0.8193869E-01
         -1   -1    0    0    0  501 -0.00000000000E+00  0.00000000000E+00  0.10525560355E+04  0.10525560355E+04  0.00000000000E+00 0.  1.
          2   -1    0    0  501    0  0.00000000000E+00 -0.00000000000E+00 -0.24032881240E+04  0.24032881240E+04  0.00000000000E+00 0. -1.
         24    2    1    2    0    0  0.60099323342E+03 -0.12965448171E+03 -0.20605408205E+04  0.21518035555E+04  0.80168058076E+02 0.  0.
        254    2    1    2    0    0 -0.60099323342E+03  0.12965448171E+03  0.70980873190E+03  0.13040406040E+04  0.90481506930E+03 0.  0.
         23    2    4    4    0    0 -0.79531462134E+02  0.40969399141E+03  0.78977199545E+02  0.43423536410E+03  0.90269226898E+02 0.  0.
         23    2    4    4    0    0 -0.52146177129E+03 -0.28003950969E+03  0.63083153236E+03  0.86980523985E+03  0.90929792465E+02 0.  0.
          4    1    3    3  502    0  0.40414488216E+03 -0.59408566777E+02 -0.12684623062E+04  0.13326136296E+04  0.00000000000E+00 0. -1.
         -3    1    3    3    0  502  0.19684835126E+03 -0.70245914937E+02 -0.79207851424E+03  0.81918992589E+03  0.00000000000E+00 0.  1.
         11    1    5    5    0    0  0.17695782434E+02  0.11541124261E+03  0.28951336207E+02  0.12029578341E+03  0.00000000000E+00 0. -1.
        -11    1    5    5    0    0 -0.97227244568E+02  0.29428274880E+03  0.50025863338E+02  0.31393958070E+03  0.00000000000E+00 0.  1.
          2    1    6    6  503    0 -0.30159679273E+03 -0.11453487990E+03  0.31486863954E+03  0.45080053712E+03  0.00000000000E+00 0. -1.
         -2    1    6    6    0  503 -0.21986497856E+03 -0.16550462979E+03  0.31596289282E+03  0.41900470274E+03  0.00000000000E+00 0.  1.
<mgrwt>
<rscale>  0 0.31809404E+04</rscale>
<asrwt>0</asrwt>
<pdfrwt beam="1">  1        2 0.36973663E+00 0.31809404E+04</pdfrwt>
<pdfrwt beam="2">  1       -1 0.16193170E+00 0.31809404E+04</pdfrwt>
<totfact> 0.10720732E+00</totfact>
</mgrwt>
</event>
<event>
12    6  0.1553355E-007  0.2146886E+04  0.7818608E-02  0.8540866E-01
         -1   -1    0    0    0  501 -0.00000000000E+00  0.00000000000E+00  0.49462512751E+03  0.49462512751E+03  0.00000000000E+00 0.  1.
          2   -1    0    0  501    0  0.00000000000E+00 -0.00000000000E+00 -0.23296032776E+04  0.23296032776E+04  0.00000000000E+00 0. -1.
         24    2    1    2    0    0  0.98554637813E+02 -0.68576392361E+03 -0.31787283091E+02  0.69818905190E+03  0.80450887322E+02 0.  0.
        254    2    1    2    0    0 -0.98554637813E+02  0.68576392361E+03 -0.18031908670E+04  0.21260393532E+04  0.88800948926E+03 0.  0.
         23    2    4    4    0    0  0.23152855990E+03 -0.82751555458E+02 -0.62816295898E+03  0.68082723271E+03  0.92107132110E+02 0.  0.
         23    2    4    4    0    0 -0.33008319771E+03  0.76851547907E+03 -0.11750279081E+04  0.14452121205E+04  0.91523383040E+02 0.  0.
          4    1    3    3  502    0  0.19859994923E+02 -0.79449749536E+02 -0.28711460565E+02  0.86781507635E+02  0.00000000000E+00 0. -1.
         -3    1    3    3    0  502  0.78694642890E+02 -0.60631417407E+03 -0.30758225259E+01  0.61140754426E+03  0.00000000000E+00 0.  1.
         11    1    5    5    0    0  0.12098419005E+03 -0.81532642779E+02 -0.42774730831E+03  0.45194303385E+03  0.00000000000E+00 0.  1.
        -11    1    5    5    0    0  0.11054436985E+03 -0.12189126787E+01 -0.20041565067E+03  0.22888419886E+03  0.00000000000E+00 0. -1.
          1    1    6    6  503    0 -0.36410876366E+02  0.60155132941E+02 -0.14435764661E+03  0.16057248230E+03  0.00000000000E+00 0. -1.
         -1    1    6    6    0  503 -0.29367232135E+03  0.70836034612E+03 -0.10306702614E+04  0.12846396382E+04  0.00000000000E+00 0.  1.
<mgrwt>
<rscale>  0 0.21468864E+04</rscale>
<asrwt>0</asrwt>
<pdfrwt beam="1">  1        2 0.35840050E+00 0.21468864E+04</pdfrwt>
<pdfrwt beam="2">  1       -1 0.76096174E-01 0.21468864E+04</pdfrwt>
<totfact> 0.79027500E+00</totfact>
</mgrwt>
</event>
<event>
12    6  0.1553355E-007  0.2926195E+04  0.7818608E-02  0.8265126E-01
         -1   -1    0    0    0  501 -0.00000000000E+00  0.00000000000E+00  0.70763761069E+03  0.70763761069E+03  0.00000000000E+00 0.  1.
          2   -1    0    0  501    0  0.00000000000E+00 -0.00000000000E+00 -0.30250719778E+04  0.30250719778E+04  0.00000000000E+00 0. -1.
         24    2    1    2    0    0 -0.23242900548E+03 -0.62449981518E+03 -0.24990607978E+04  0.25874681488E+04  0.75254820010E+02 0.  0.
        254    2    1    2    0    0  0.23242900548E+03  0.62449981518E+03  0.18162643069E+03  0.11452414397E+04  0.91354613087E+03 0.  0.
         23    2    4    4    0    0  0.15782996191E+03  0.47576565447E+03 -0.32460307096E+03  0.60424160214E+03  0.92073368713E+02 0.  0.
         23    2    4    4    0    0  0.74599043563E+02  0.14873416071E+03  0.50622950164E+03  0.54099983760E+03  0.93411177573E+02 0.  0.
          2    1    3    3  502    0 -0.22332675147E+03 -0.53626374507E+03 -0.21179793314E+04  0.21961990098E+04  0.00000000000E+00 0. -1.
         -1    1    3    3    0  502 -0.91022540038E+01 -0.88236070109E+02 -0.38108146639E+03  0.39126913898E+03  0.00000000000E+00 0.  1.
         11    1    5    5    0    0  0.15861516459E+03  0.47820089423E+03 -0.31473673981E+03  0.59404888777E+03  0.00000000000E+00 0. -1.
        -11    1    5    5    0    0 -0.78520267204E+00 -0.24352397538E+01 -0.98663311443E+01  0.10192714366E+02  0.00000000000E+00 0.  1.
          2    1    6    6  503    0  0.20011330270E+02  0.12428142695E+02  0.20006887282E+03  0.20145090206E+03  0.00000000000E+00 0. -1.
         -2    1    6    6    0  503  0.54587713293E+02  0.13630601801E+03  0.30616062882E+03  0.33954893554E+03  0.00000000000E+00 0.  1.
<mgrwt>
<rscale>  0 0.29261953E+04</rscale>
<asrwt>0</asrwt>
<pdfrwt beam="1">  1        2 0.46539569E+00 0.29261953E+04</pdfrwt>
<pdfrwt beam="2">  1       -1 0.10886733E+00 0.29261953E+04</pdfrwt>
<totfact> 0.12843546E+00</totfact>
</mgrwt>
</event>
<event>
12    6  0.1553355E-007  0.3533378E+04  0.7818608E-02  0.8105925E-01
         -1   -1    0    0    0  501 -0.00000000000E+00  0.00000000000E+00  0.15033739787E+04  0.15033739787E+04  0.00000000000E+00 0.  1.
          2   -1    0    0  501    0  0.00000000000E+00 -0.00000000000E+00 -0.20761234998E+04  0.20761234998E+04  0.00000000000E+00 0. -1.
         24    2    1    2    0    0  0.52690633154E+03 -0.14662065332E+04 -0.82137749447E+03  0.17630654353E+04  0.79667185996E+02 0.  0.
        254    2    1    2    0    0 -0.52690633154E+03  0.14662065332E+04  0.24862797342E+03  0.18164320432E+04  0.90012089092E+03 0.  0.
         23    2    4    4    0    0 -0.81268131810E+02  0.13067674073E+04  0.12362896264E+03  0.13183049665E+04  0.91642230202E+02 0.  0.
         23    2    4    4    0    0 -0.44563819973E+03  0.15943912589E+03  0.12499901078E+03  0.49812707668E+03  0.92149833956E+02 0.  0.
          4    1    3    3  502    0  0.23945473293E+03 -0.56793912797E+03 -0.34757161947E+03  0.70760119620E+03  0.00000000000E+00 0. -1.
         -3    1    3    3    0  502  0.28745159861E+03 -0.89826740522E+03 -0.47380587499E+03  0.10554642391E+04  0.00000000000E+00 0.  1.
         11    1    5    5    0    0 -0.60937884435E+02  0.96663962111E+03  0.13171945560E+03  0.97747409063E+03  0.00000000000E+00 0.  1.
        -11    1    5    5    0    0 -0.20330247375E+02  0.34012778619E+03 -0.80904929624E+01  0.34083087591E+03  0.00000000000E+00 0. -1.
          3    1    6    6  503    0 -0.41349104049E+03  0.17120640206E+03  0.12138719390E+03  0.46370391794E+03  0.00000000000E+00 0. -1.
         -3    1    6    6    0  503 -0.32147159243E+02 -0.11767276178E+02  0.36118168826E+01  0.34423158734E+02  0.00000000000E+00 0.  1.
<mgrwt>
<rscale>  0 0.35333780E+04</rscale>
<asrwt>0</asrwt>
<pdfrwt beam="1">  1        2 0.31940362E+00 0.35333780E+04</pdfrwt>
<pdfrwt beam="2">  1       -1 0.23128830E+00 0.35333780E+04</pdfrwt>
<totfact> 0.52267849E-01</totfact>
</mgrwt>
</event>
<event>
12    6  0.1553355E-007  0.2461974E+04  0.7818608E-02  0.8416659E-01
         -1   -1    0    0    0  501 -0.00000000000E+00  0.00000000000E+00  0.78926966960E+03  0.78926966960E+03  0.00000000000E+00 0.  1.
          2   -1    0    0  501    0  0.00000000000E+00 -0.00000000000E+00 -0.19199135164E+04  0.19199135164E+04  0.00000000000E+00 0. -1.
         24    2    1    2    0    0  0.69837855387E+03 -0.17851301329E+03  0.37279758334E+03  0.81592461726E+03  0.84589848582E+02 0.  0.
        254    2    1    2    0    0 -0.69837855387E+03  0.17851301329E+03 -0.15034414301E+04  0.18932585687E+04  0.89693498864E+03 0.  0.
         23    2    4    4    0    0 -0.38367753971E+03  0.49891470128E+03 -0.11520604661E+04  0.13159111806E+04  0.90854742591E+02 0.  0.
         23    2    4    4    0    0 -0.31470101416E+03 -0.32040168799E+03 -0.35138096408E+03  0.57734738810E+03  0.90373971096E+02 0.  0.
          2    1    3    3  502    0  0.26066891926E+03 -0.36571321617E+02  0.16794919422E+03  0.31223817651E+03  0.00000000000E+00 0. -1.
         -1    1    3    3    0  502  0.43770963461E+03 -0.14194169167E+03  0.20484838913E+03  0.50368644074E+03  0.00000000000E+00 0.  1.
         11    1    5    5    0    0 -0.10028282341E+03  0.16024420986E+03 -0.27155504773E+03  0.33087308052E+03  0.00000000000E+00 0.  1.
        -11    1    5    5    0    0 -0.28339471630E+03  0.33867049142E+03 -0.88050541832E+03  0.98503810011E+03  0.00000000000E+00 0. -1.
          4    1    6    6  503    0 -0.17312750440E+03 -0.22002502068E+03 -0.17646016380E+03  0.33094158384E+03  0.00000000000E+00 0. -1.
         -4    1    6    6    0  503 -0.14157350976E+03 -0.10037666732E+03 -0.17492080028E+03  0.24640580426E+03  0.00000000000E+00 0.  1.
<mgrwt>
<rscale>  0 0.24619744E+04</rscale>
<asrwt>0</asrwt>
<pdfrwt beam="1">  1        2 0.29537131E+00 0.24619744E+04</pdfrwt>
<pdfrwt beam="2">  1       -1 0.12142610E+00 0.24619744E+04</pdfrwt>
<totfact> 0.45323830E+00</totfact>
</mgrwt>
</event>
<event>
12    6  0.1553355E-007  0.1613917E+04  0.7818608E-02  0.8812044E-01
         -1   -1    0    0    0  501 -0.00000000000E+00  0.00000000000E+00  0.51879910487E+03  0.51879910487E+03  0.00000000000E+00 0.  1.
          2   -1    0    0  501    0  0.00000000000E+00 -0.00000000000E+00 -0.12551714565E+04  0.12551714565E+04  0.00000000000E+00 0. -1.
         24    2    1    2    0    0  0.54735516238E+03 -0.95062893025E+02 -0.19967619691E+03  0.59630427127E+03  0.84104535575E+02 0.  0.
        254    2    1    2    0    0 -0.54735516238E+03  0.95062893025E+02 -0.53669615473E+03  0.11776662901E+04  0.88894347456E+03 0.  0.
         23    2    4    4    0    0 -0.34107590490E+03 -0.35734603889E+03 -0.10630185984E+03  0.51373283358E+03  0.92695061773E+02 0.  0.
         23    2    4    4    0    0 -0.20627925748E+03  0.45240893192E+03 -0.43039429489E+03  0.66393345654E+03  0.91342278757E+02 0.  0.
          4    1    3    3  502    0  0.57408970562E+02  0.93450899135E+01 -0.33551470151E+01  0.58261287473E+02  0.00000000000E+00 0. -1.
         -1    1    3    3    0  502  0.48994619182E+03 -0.10440798294E+03 -0.19632104990E+03  0.53804298380E+03  0.00000000000E+00 0.  1.
         11    1    5    5    0    0 -0.41410139967E+01 -0.34578046050E+02 -0.16688175833E+02  0.38617152642E+02  0.00000000000E+00 0. -1.
        -11    1    5    5    0    0 -0.33693489091E+03 -0.32276799284E+03 -0.89613684008E+02  0.47511568094E+03  0.00000000000E+00 0.  1.
          2    1    6    6  503    0 -0.10901022187E+03  0.13564104336E+03 -0.14040872348E+03  0.22359859290E+03  0.00000000000E+00 0. -1.
         -2    1    6    6    0  503 -0.97269035607E+02  0.31676788856E+03 -0.28998557141E+03  0.44033486364E+03  0.00000000000E+00 0.  1.
<mgrwt>
<rscale>  0 0.16139168E+04</rscale>
<asrwt>0</asrwt>
<pdfrwt beam="1">  1        2 0.19310330E+00 0.16139168E+04</pdfrwt>
<pdfrwt beam="2">  1       -1 0.79815247E-01 0.16139168E+04</pdfrwt>
<totfact> 0.30072332E+01</totfact>
</mgrwt>
</event>
<event>
12    6  0.1553355E-007  0.1606398E+04  0.7818608E-02  0.8816627E-01
          2   -1    0    0  501    0  0.00000000000E+00  0.00000000000E+00  0.11426305442E+04  0.11426305442E+04  0.00000000000E+00 0. -1.
         -1   -1    0    0    0  501 -0.00000000000E+00 -0.00000000000E+00 -0.56459946721E+03  0.56459946721E+03  0.00000000000E+00 0.  1.
         24    2    1    2    0    0 -0.42216332064E+03 -0.33323181498E+03  0.14447562935E+03  0.56240468569E+03  0.78488924031E+02 0.  0.
        254    2    1    2    0    0  0.42216332064E+03  0.33323181498E+03  0.43355544762E+03  0.11448253257E+04  0.91290163129E+03 0.  0.
         23    2    4    4    0    0  0.64164898911E+03  0.42454060580E+03  0.43915425820E+03  0.89002009579E+03  0.85622177150E+02 0.  0.
         23    2    4    4    0    0 -0.21948566847E+03 -0.91308790819E+02 -0.55988105797E+01  0.25480522991E+03  0.91559295355E+02 0.  0.
          4    1    3    3  502    0 -0.83194447410E+02 -0.63479772510E+02  0.61326066933E+02  0.12129255576E+03  0.00000000000E+00 0. -1.
         -3    1    3    3    0  502 -0.33896887323E+03 -0.26975204247E+03  0.83149562422E+02  0.44111212992E+03  0.00000000000E+00 0.  1.
         11    1    5    5    0    0  0.13982760668E+03  0.59121630307E+02  0.10920815293E+03  0.18701215850E+03  0.00000000000E+00 0.  1.
        -11    1    5    5    0    0  0.50182138243E+03  0.36541897550E+03  0.32994610527E+03  0.70300793729E+03  0.00000000000E+00 0. -1.
          3    1    6    6  503    0 -0.36145247900E+02 -0.35152871626E+02  0.31569827561E+02  0.59488295836E+02  0.00000000000E+00 0. -1.
         -3    1    6    6    0  503 -0.18334042057E+03 -0.56155919193E+02 -0.37168638141E+02  0.19531693408E+03  0.00000000000E+00 0.  1.
<mgrwt>
<rscale>  0 0.16063980E+04</rscale>
<asrwt>0</asrwt>
<pdfrwt beam="1">  1        2 0.17578931E+00 0.16063980E+04</pdfrwt>
<pdfrwt beam="2">  1       -1 0.86861457E-01 0.16063980E+04</pdfrwt>
<totfact> 0.29287393E+01</totfact>
</mgrwt>
</event>
<event>
12    6  0.1553355E-007  0.2560783E+04  0.7818608E-02  0.8381646E-01
         -1   -1    0    0    0  501 -0.00000000000E+00  0.00000000000E+00  0.99475027729E+03  0.99475027729E+03  0.00000000000E+00 0.  1.
          2   -1    0    0  501    0  0.00000000000E+00 -0.00000000000E+00 -0.16480542337E+04  0.16480542337E+04  0.00000000000E+00 0. -1.
         24    2    1    2    0    0 -0.11029903304E+04  0.11178298176E+03 -0.13951692776E+03  0.11199468504E+04  0.75715722487E+02 0.  0.
        254    2    1    2    0    0  0.11029903304E+04 -0.11178298176E+03 -0.51378702861E+03  0.15228576606E+04  0.90886480832E+03 0.  0.
         23    2    4    4    0    0  0.67019359888E+03 -0.45449876921E+03 -0.51319247731E+03  0.96330043277E+03  0.94088329862E+02 0.  0.
         23    2    4    4    0    0  0.43279673147E+03  0.34271578745E+03 -0.59455129841E+00  0.55955722782E+03  0.91306166142E+02 0.  0.
          4    1    3    3  502    0 -0.72193768039E+02 -0.61319180512E+01 -0.22407421884E+02  0.75839522138E+02  0.00000000000E+00 0. -1.
         -3    1    3    3    0  502 -0.10307965623E+04  0.11791489981E+03 -0.11710950587E+03  0.10441073282E+04  0.00000000000E+00 0.  1.
         11    1    5    5    0    0  0.36225734386E+03 -0.22046549576E+03 -0.31803305419E+03  0.53007588283E+03  0.00000000000E+00 0.  1.
        -11    1    5    5    0    0  0.30793625502E+03 -0.23403327346E+03 -0.19515942312E+03  0.43322454994E+03  0.00000000000E+00 0. -1.
          1    1    6    6  503    0  0.65904381224E+01  0.20565096867E+02 -0.12902780481E+02  0.25156288040E+02  0.00000000000E+00 0. -1.
         -1    1    6    6    0  503  0.42620629335E+03  0.32215069058E+03  0.12308229182E+02  0.53440093978E+03  0.00000000000E+00 0.  1.
<mgrwt>
<rscale>  0 0.25607830E+04</rscale>
<asrwt>0</asrwt>
<pdfrwt beam="1">  1        2 0.25354680E+00 0.25607830E+04</pdfrwt>
<pdfrwt beam="2">  1       -1 0.15303851E+00 0.25607830E+04</pdfrwt>
<totfact> 0.35001049E+00</totfact>
</mgrwt>
</event>
<event>
12    6  0.1553355E-007  0.1868538E+04  0.7818608E-02  0.8670678E-01
          2   -1    0    0  501    0  0.00000000000E+00  0.00000000000E+00  0.20080608216E+04  0.20080608216E+04  0.00000000000E+00 0. -1.
         -1   -1    0    0    0  501 -0.00000000000E+00 -0.00000000000E+00 -0.43467728528E+03  0.43467728528E+03  0.00000000000E+00 0.  1.
         24    2    1    2    0    0 -0.11174399297E+03 -0.44648724802E+03  0.13205544671E+04  0.14006642290E+04  0.78476742898E+02 0.  0.
        254    2    1    2    0    0  0.11174399297E+03  0.44648724802E+03  0.25282906925E+03  0.10420738779E+04  0.90008768805E+03 0.  0.
         23    2    4    4    0    0 -0.12738190487E+03 -0.10022961172E+03 -0.21255310037E+03  0.27977425928E+03  0.82599581863E+02 0.  0.
         23    2    4    4    0    0  0.23912589784E+03  0.54671685975E+03  0.46538216962E+03  0.76229961864E+03  0.91867431780E+02 0.  0.
          4    1    3    3  502    0 -0.71573479473E+02 -0.39211330757E+03  0.11547856463E+04  0.12216404945E+04  0.00000000000E+00 0. -1.
         -3    1    3    3    0  502 -0.40170513502E+02 -0.54373940450E+02  0.16576882080E+03  0.17902373447E+03  0.00000000000E+00 0.  1.
         11    1    5    5    0    0 -0.83396375263E+02 -0.72985291516E+02 -0.19650772636E+03  0.22560384461E+03  0.00000000000E+00 0.  1.
        -11    1    5    5    0    0 -0.43985529605E+02 -0.27244320209E+02 -0.16045374014E+02  0.54170414670E+02  0.00000000000E+00 0. -1.
          2    1    6    6  503    0  0.35141873198E+02  0.14623235403E+03  0.80523350399E+02  0.17059561124E+03  0.00000000000E+00 0. -1.
         -2    1    6    6    0  503  0.20398402464E+03  0.40048450572E+03  0.38485881923E+03  0.59170400740E+03  0.00000000000E+00 0.  1.
<mgrwt>
<rscale>  0 0.18685379E+04</rscale>
<asrwt>0</asrwt>
<pdfrwt beam="1">  1        2 0.30893243E+00 0.18685379E+04</pdfrwt>
<pdfrwt beam="2">  1       -1 0.66873430E-01 0.18685379E+04</pdfrwt>
<totfact> 0.16016043E+01</totfact>
</mgrwt>
</event>
<event>
12    6  0.1553355E-007  0.1569618E+04  0.7818608E-02  0.8839433E-01
         -1   -1    0    0    0  501 -0.00000000000E+00  0.00000000000E+00  0.11738195183E+04  0.11738195183E+04  0.00000000000E+00 0.  1.
          2   -1    0    0  501    0  0.00000000000E+00 -0.00000000000E+00 -0.52471908844E+03  0.52471908844E+03  0.00000000000E+00 0. -1.
         24    2    1    2    0    0 -0.12641011490E+03  0.27870629543E+03  0.66738466565E+03  0.73669994862E+03  0.60562414889E+02 0.  0.
        254    2    1    2    0    0  0.12641011490E+03 -0.27870629543E+03 -0.18284235764E+02  0.96183865814E+03  0.91167021162E+03 0.  0.
         23    2    4    4    0    0  0.27811028985E+03 -0.51386213568E+03  0.16490359538E+03  0.61439699270E+03  0.94291256531E+02 0.  0.
         23    2    4    4    0    0 -0.15170017495E+03  0.23515584026E+03 -0.18318783115E+03  0.34744166544E+03  0.94056988680E+02 0.  0.
          2    1    3    3  502    0 -0.95401895511E+01  0.12190665309E+02  0.11922551525E+02  0.19539057608E+02  0.00000000000E+00 0. -1.
         -1    1    3    3    0  502 -0.11686992535E+03  0.26651563012E+03  0.65546211412E+03  0.71716089101E+03  0.00000000000E+00 0.  1.
         11    1    5    5    0    0  0.87308180089E+01 -0.81369901252E+02  0.31579339661E+02  0.87718542546E+02  0.00000000000E+00 0.  1.
        -11    1    5    5    0    0  0.26937947184E+03 -0.43249223443E+03  0.13332425572E+03  0.52667845015E+03  0.00000000000E+00 0. -1.
          4    1    6    6  503    0 -0.16108715721E+03  0.21218220674E+03 -0.14913738913E+03  0.30530693066E+03  0.00000000000E+00 0. -1.
         -4    1    6    6    0  503  0.93869822672E+01  0.22973633517E+02 -0.34050442021E+02  0.42134734779E+02  0.00000000000E+00 0.  1.
<mgrwt>
<rscale>  0 0.15696184E+04</rscale>
<asrwt>0</asrwt>
<pdfrwt beam="1">  1        2 0.80726013E-01 0.15696184E+04</pdfrwt>
<pdfrwt beam="2">  1       -1 0.18058762E+00 0.15696184E+04</pdfrwt>
<totfact> 0.13175506E+01</totfact>
</mgrwt>
</event>
<event>
12    6  0.1553355E-007  0.2372650E+04  0.7818608E-02  0.8449815E-01
          2   -1    0    0  501    0  0.00000000000E+00  0.00000000000E+00  0.87192928466E+03  0.87192928466E+03  0.00000000000E+00 0. -1.
         -1   -1    0    0    0  501 -0.00000000000E+00 -0.00000000000E+00 -0.16140834274E+04  0.16140834274E+04  0.00000000000E+00 0.  1.
         24    2    1    2    0    0 -0.36985457134E+03 -0.17841297792E+03 -0.12943438257E+04  0.13598967404E+04  0.73277627811E+02 0.  0.
        254    2    1    2    0    0  0.36985457134E+03  0.17841297792E+03  0.55218968297E+03  0.11261159717E+04  0.89140346704E+03 0.  0.
         23    2    4    4    0    0  0.36185974267E+03 -0.27232798628E+03  0.46962171102E+03  0.65883819244E+03  0.91750786764E+02 0.  0.
         23    2    4    4    0    0  0.79948286606E+01  0.45074096420E+03  0.82567971957E+02  0.46727777924E+03  0.91102792946E+02 0.  0.
          2    1    3    3  502    0 -0.16655417225E+03 -0.10266450637E+03 -0.51481025835E+03  0.55073577627E+03  0.00000000000E+00 0. -1.
         -1    1    3    3    0  502 -0.20330039909E+03 -0.75748471546E+02 -0.77953356739E+03  0.80916096415E+03  0.00000000000E+00 0.  1.
         11    1    5    5    0    0  0.23785518475E+03 -0.20412242860E+03  0.37431732111E+03  0.48821564052E+03  0.00000000000E+00 0. -1.
        -11    1    5    5    0    0  0.12400455793E+03 -0.68205557683E+02  0.95304389908E+02  0.17062255191E+03  0.00000000000E+00 0.  1.
          1    1    6    6  503    0  0.20613135977E+02  0.43797184601E+03  0.90421324343E+02  0.44768320850E+03  0.00000000000E+00 0. -1.
         -1    1    6    6    0  503 -0.12618307316E+02  0.12769118191E+02 -0.78533523863E+01  0.19594570743E+02  0.00000000000E+00 0.  1.
<mgrwt>
<rscale>  0 0.23726497E+04</rscale>
<asrwt>0</asrwt>
<pdfrwt beam="1">  1        2 0.13414297E+00 0.23726497E+04</pdfrwt>
<pdfrwt beam="2">  1       -1 0.24832052E+00 0.23726497E+04</pdfrwt>
<totfact> 0.22523939E+00</totfact>
</mgrwt>
</event>
<event>
12    6  0.1553355E-007  0.1230953E+04  0.7818608E-02  0.9086187E-01
         -1   -1    0    0    0  501 -0.00000000000E+00  0.00000000000E+00  0.40733252463E+03  0.40733252463E+03  0.00000000000E+00 0.  1.
          2   -1    0    0  501    0  0.00000000000E+00 -0.00000000000E+00 -0.92998084710E+03  0.92998084710E+03  0.00000000000E+00 0. -1.
         24    2    1    2    0    0 -0.37771103035E+02 -0.17164146619E+03  0.12506111248E+03  0.22988091973E+03  0.79482741895E+02 0.  0.
        254    2    1    2    0    0  0.37771103035E+02  0.17164146619E+03 -0.64770943495E+03  0.11074324520E+04  0.88090389629E+03 0.  0.
         23    2    4    4    0    0  0.29360483032E+03  0.37310902397E+03 -0.15229240204E+03  0.50767316033E+03  0.95524456794E+02 0.  0.
         23    2    4    4    0    0 -0.25583372728E+03 -0.20146755777E+03 -0.49541703291E+03  0.59975929168E+03  0.90736423843E+02 0.  0.
          4    1    3    3  502    0  0.13989472058E+01  0.84467051180E+01  0.63343157905E+01  0.10650231789E+02  0.00000000000E+00 0. -1.
         -3    1    3    3    0  502 -0.39170050241E+02 -0.18008817131E+03  0.11872679669E+03  0.21923068794E+03  0.00000000000E+00 0.  1.
         11    1    5    5    0    0  0.18827642798E+03  0.17963005083E+03 -0.50829602330E+02  0.26513886355E+03  0.00000000000E+00 0.  1.
        -11    1    5    5    0    0  0.10532840233E+03  0.19347897314E+03 -0.10146279971E+03  0.24253429677E+03  0.00000000000E+00 0. -1.
          4    1    6    6  503    0 -0.62953635716E+02 -0.85492069455E+02 -0.10627592822E+03  0.15022192619E+03  0.00000000000E+00 0. -1.
         -4    1    6    6    0  503 -0.19288009157E+03 -0.11597548832E+03 -0.38914110469E+03  0.44953736549E+03  0.00000000000E+00 0.  1.
<mgrwt>
<rscale>  0 0.12309532E+04</rscale>
<asrwt>0</asrwt>
<pdfrwt beam="1">  1        2 0.14307398E+00 0.12309532E+04</pdfrwt>
<pdfrwt beam="2">  1       -1 0.62666543E-01 0.12309532E+04</pdfrwt>
<totfact> 0.81243992E+01</totfact>
</mgrwt>
</event>
<event>
12    6  0.1553355E-007  0.1470704E+04  0.7818608E-02  0.8904171E-01
         -1   -1    0    0    0  501 -0.00000000000E+00  0.00000000000E+00  0.76137095603E+03  0.76137095603E+03  0.00000000000E+00 0.  1.
          2   -1    0    0  501    0  0.00000000000E+00 -0.00000000000E+00 -0.71022258805E+03  0.71022258805E+03  0.00000000000E+00 0. -1.
         24    2    1    2    0    0 -0.26835673308E+02 -0.22727369417E+03  0.39992268856E+03  0.46857837983E+03  0.85170744931E+02 0.  0.
        254    2    1    2    0    0  0.26835673308E+02  0.22727369417E+03 -0.34877432058E+03  0.10030151643E+04  0.91215262298E+03 0.  0.
         23    2    4    4    0    0 -0.42946841632E+03  0.55207000459E+02 -0.19026614057E+03  0.48243374193E+03  0.95132421317E+02 0.  0.
         23    2    4    4    0    0  0.45630408963E+03  0.17206669372E+03 -0.15850818001E+03  0.52058142233E+03  0.89776415837E+02 0.  0.
          4    1    3    3  502    0 -0.15536523016E+02 -0.10410808463E+03  0.10456732128E+03  0.14837183531E+03  0.00000000000E+00 0. -1.
         -3    1    3    3    0  502 -0.11299150292E+02 -0.12316560954E+03  0.29535536728E+03  0.32020654452E+03  0.00000000000E+00 0.  1.
         11    1    5    5    0    0 -0.10469097895E+03  0.17628642770E+02 -0.93505342200E+02  0.14147161956E+03  0.00000000000E+00 0.  1.
        -11    1    5    5    0    0 -0.32477743737E+03  0.37578357689E+02 -0.96760798368E+02  0.34096212237E+03  0.00000000000E+00 0. -1.
          4    1    6    6  503    0  0.39196331474E+03  0.16257985329E+03 -0.16484361895E+03  0.45523715523E+03  0.00000000000E+00 0. -1.
         -4    1    6    6    0  503  0.64340774894E+02  0.94868404293E+01  0.63354389455E+01  0.65344267093E+02  0.00000000000E+00 0.  1.
<mgrwt>
<rscale>  0 0.14707044E+04</rscale>
<asrwt>0</asrwt>
<pdfrwt beam="1">  1        2 0.10926501E+00 0.14707044E+04</pdfrwt>
<pdfrwt beam="2">  1       -1 0.11713399E+00 0.14707044E+04</pdfrwt>
<totfact> 0.29220907E+01</totfact>
</mgrwt>
</event>
<event>
12    6  0.1553355E-007  0.1430302E+04  0.7818608E-02  0.8932172E-01
          2   -1    0    0  501    0  0.00000000000E+00  0.00000000000E+00  0.16512715635E+04  0.16512715635E+04  0.00000000000E+00 0. -1.
         -1   -1    0    0    0  501 -0.00000000000E+00 -0.00000000000E+00 -0.30972531124E+03  0.30972531124E+03  0.00000000000E+00 0.  1.
         24    2    1    2    0    0 -0.29341415327E+03  0.23001155718E+03  0.68141037354E+03  0.78108303898E+03  0.82300879912E+02 0.  0.
        254    2    1    2    0    0  0.29341415327E+03 -0.23001155718E+03  0.66013587876E+03  0.11799138358E+04  0.90411287996E+03 0.  0.
         23    2    4    4    0    0 -0.83439459417E+02 -0.48822802178E+03  0.26041925220E+03  0.56692105340E+03  0.90843542612E+02 0.  0.
         23    2    4    4    0    0  0.37685361269E+03  0.25821646460E+03  0.39971662655E+03  0.61299278240E+03  0.85395443303E+02 0.  0.
          4    1    3    3  502    0 -0.86904057887E+02  0.69994435602E+02  0.28767342891E+03  0.30855718756E+03  0.00000000000E+00 0. -1.
         -3    1    3    3    0  502 -0.20651009539E+03  0.16001712158E+03  0.39373694463E+03  0.47252585142E+03  0.00000000000E+00 0.  1.
         11    1    5    5    0    0  0.15120656814E+02 -0.12708623223E+03  0.49347692869E+02  0.13716683081E+03  0.00000000000E+00 0. -1.
        -11    1    5    5    0    0 -0.98560116232E+02 -0.36114178956E+03  0.21107155934E+03  0.42975422259E+03  0.00000000000E+00 0.  1.
          2    1    6    6  503    0  0.23029584455E+03  0.20201286663E+03  0.28670206938E+03  0.41957532207E+03  0.00000000000E+00 0. -1.
         -2    1    6    6    0  503  0.14655776814E+03  0.56203597972E+02  0.11301455718E+03  0.19341746033E+03  0.00000000000E+00 0.  1.
<mgrwt>
<rscale>  0 0.14303015E+04</rscale>
<asrwt>0</asrwt>
<pdfrwt beam="1">  1        2 0.25404177E+00 0.14303015E+04</pdfrwt>
<pdfrwt beam="2">  1       -1 0.47650049E-01 0.14303015E+04</pdfrwt>
<totfact> 0.50797884E+01</totfact>
</mgrwt>
</event>
<event>
12    6  0.1553355E-007  0.1785694E+04  0.7818608E-02  0.8713945E-01
          2   -1    0    0  501    0  0.00000000000E+00  0.00000000000E+00  0.13647680197E+04  0.13647680197E+04  0.00000000000E+00 0. -1.
         -1   -1    0    0    0  501 -0.00000000000E+00 -0.00000000000E+00 -0.58411054296E+03  0.58411054296E+03  0.00000000000E+00 0.  1.
         24    2    1    2    0    0 -0.31908531360E+02  0.20965507615E+03 -0.39457351771E+03  0.45435912254E+03  0.76029902214E+02 0.  0.
        254    2    1    2    0    0  0.31908531360E+02 -0.20965507615E+03  0.11752309945E+04  0.14945194401E+04  0.89858058138E+03 0.  0.
         23    2    4    4    0    0  0.79760039271E+02  0.49698613890E+02  0.12071756587E+04  0.12142691866E+04  0.91350810302E+02 0.  0.
         23    2    4    4    0    0 -0.47851507912E+02 -0.25935369004E+03 -0.31944664198E+02  0.28025025353E+03  0.89250432420E+02 0.  0.
          4    1    3    3  502    0  0.11884001562E+02  0.14577127005E+03 -0.23155036240E+03  0.27387234799E+03  0.00000000000E+00 0. -1.
         -3    1    3    3    0  502 -0.43792532922E+02  0.63883806098E+02 -0.16302315532E+03  0.18048677456E+03  0.00000000000E+00 0.  1.
         11    1    5    5    0    0  0.60214791135E+01  0.40765672594E+02  0.19162021308E+03  0.19600103146E+03  0.00000000000E+00 0. -1.
        -11    1    5    5    0    0  0.73738560158E+02  0.89329412960E+01  0.10155554456E+04  0.10182681552E+04  0.00000000000E+00 0.  1.
          3    1    6    6  503    0  0.33741791669E+01 -0.36753647855E+01 -0.18481916508E+02  0.19143527083E+02  0.00000000000E+00 0. -1.
         -3    1    6    6    0  503 -0.51225687078E+02 -0.25567832525E+03 -0.13462747690E+02  0.26110672645E+03  0.00000000000E+00 0.  1.
<mgrwt>
<rscale>  0 0.17856936E+04</rscale>
<asrwt>0</asrwt>
<pdfrwt beam="1">  1        2 0.20996431E+00 0.17856936E+04</pdfrwt>
<pdfrwt beam="2">  1       -1 0.89863161E-01 0.17856936E+04</pdfrwt>
<totfact> 0.19796626E+01</totfact>
</mgrwt>
</event>
<event>
12    6  0.1553355E-007  0.1694782E+04  0.7818608E-02  0.8764346E-01
         -1   -1    0    0    0  501 -0.00000000000E+00  0.00000000000E+00  0.88827757376E+03  0.88827757376E+03  0.00000000000E+00 0.  1.
          2   -1    0    0  501    0  0.00000000000E+00 -0.00000000000E+00 -0.80838647675E+03  0.80838647675E+03  0.00000000000E+00 0. -1.
         24    2    1    2    0    0 -0.37113243136E+03 -0.41081096569E+03 -0.22236482259E+03  0.60203269328E+03  0.80574923555E+02 0.  0.
        254    2    1    2    0    0  0.37113243136E+03  0.41081096569E+03  0.30225591960E+03  0.10946313572E+04  0.89462519312E+03 0.  0.
         23    2    4    4    0    0  0.13412629843E+03  0.12458479461E+03 -0.31044804640E+03  0.37191287736E+03  0.91814834595E+02 0.  0.
         23    2    4    4    0    0  0.23700613293E+03  0.28622617109E+03  0.61270396601E+03  0.72271847988E+03  0.93906991937E+02 0.  0.
          4    1    3    3  502    0 -0.14091085759E+03 -0.14290030068E+03 -0.12179372138E+03  0.23475535412E+03  0.00000000000E+00 0. -1.
         -3    1    3    3    0  502 -0.23022157377E+03 -0.26791066502E+03 -0.10057110121E+03  0.36727733916E+03  0.00000000000E+00 0.  1.
         11    1    5    5    0    0 -0.36489005782E+01 -0.10940915555E+02 -0.17048096994E+02  0.20582898721E+02  0.00000000000E+00 0. -1.
        -11    1    5    5    0    0  0.13777519901E+03  0.13552571016E+03 -0.29339994941E+03  0.35132997864E+03  0.00000000000E+00 0.  1.
          4    1    6    6  503    0  0.33377135545E+02  0.32953539882E+01  0.39263407344E+02  0.51638238654E+02  0.00000000000E+00 0. -1.
         -4    1    6    6    0  503  0.20362899739E+03  0.28293081710E+03  0.57344055866E+03  0.67108024122E+03  0.00000000000E+00 0.  1.
<mgrwt>
<rscale>  0 0.16947821E+04</rscale>
<asrwt>0</asrwt>
<pdfrwt beam="1">  1        2 0.12436715E+00 0.16947821E+04</pdfrwt>
<pdfrwt beam="2">  1       -1 0.13665809E+00 0.16947821E+04</pdfrwt>
<totfact> 0.16480763E+01</totfact>
</mgrwt>
</event>
<event>
12    6  0.1553355E-007  0.3004162E+04  0.7818608E-02  0.8242543E-01
          2   -1    0    0  501    0  0.00000000000E+00  0.00000000000E+00  0.27864160466E+04  0.27864160466E+04  0.00000000000E+00 0. -1.
         -1   -1    0    0    0  501 -0.00000000000E+00 -0.00000000000E+00 -0.80973111755E+03  0.80973111755E+03  0.00000000000E+00 0.  1.
         24    2    1    2    0    0  0.10048817404E+03  0.10566230189E+04  0.19276744677E+04  0.22019364436E+04  0.77750697235E+02 0.  0.
        254    2    1    2    0    0 -0.10048817404E+03 -0.10566230189E+04  0.49010461332E+02  0.13942107205E+04  0.90270229348E+03 0.  0.
         23    2    4    4    0    0 -0.45165735579E+03 -0.30504504432E+03  0.82151414260E+02  0.55871296621E+03  0.91457518211E+02 0.  0.
         23    2    4    4    0    0  0.35116918175E+03 -0.75157797463E+03 -0.33140952928E+02  0.83549775433E+03  0.93642557487E+02 0.  0.
          2    1    3    3  502    0  0.82746762690E+02  0.60620809710E+03  0.10490718881E+04  0.12144493032E+04  0.00000000000E+00 0. -1.
         -1    1    3    3    0  502  0.17741411352E+02  0.45041492185E+03  0.87860257958E+03  0.98748714035E+03  0.00000000000E+00 0.  1.
         11    1    5    5    0    0 -0.45383638784E+03 -0.29669860908E+03  0.74744122942E+02  0.54734286830E+03  0.00000000000E+00 0. -1.
        -11    1    5    5    0    0  0.21790320490E+01 -0.83464352350E+01  0.74072913177E+01  0.11370097909E+02  0.00000000000E+00 0.  1.
          1    1    6    6  503    0  0.33218066770E+03 -0.63671912399E+03 -0.35755268854E+02  0.71905053932E+03  0.00000000000E+00 0. -1.
         -1    1    6    6    0  503  0.18988514054E+02 -0.11485885064E+03  0.26143159268E+01  0.11644721501E+03  0.00000000000E+00 0.  1.
<mgrwt>
<rscale>  0 0.30041623E+04</rscale>
<asrwt>0</asrwt>
<pdfrwt beam="1">  1        2 0.42867939E+00 0.30041623E+04</pdfrwt>
<pdfrwt beam="2">  1       -1 0.12457402E+00 0.30041623E+04</pdfrwt>
<totfact> 0.12927530E+00</totfact>
</mgrwt>
</event>
<event>
12    6  0.1553355E-007  0.1501812E+04  0.7818608E-02  0.8883249E-01
         -1   -1    0    0    0  501 -0.00000000000E+00  0.00000000000E+00  0.20817529487E+03  0.20817529487E+03  0.00000000000E+00 0.  1.
          2   -1    0    0  501    0  0.00000000000E+00 -0.00000000000E+00 -0.27085825742E+04  0.27085825742E+04  0.00000000000E+00 0. -1.
         24    2    1    2    0    0  0.36410598337E+03 -0.20777132235E+03 -0.12783198935E+04  0.13478862926E+04  0.83388357510E+02 0.  0.
        254    2    1    2    0    0 -0.36410598337E+03  0.20777132235E+03 -0.12220873859E+04  0.15688715765E+04  0.89001031192E+03 0.  0.
         23    2    4    4    0    0  0.23321819163E+03 -0.42042754111E+02 -0.65638401754E+03  0.70421644637E+03  0.94459021692E+02 0.  0.
         23    2    4    4    0    0 -0.59732417499E+03  0.24981407646E+03 -0.56570336832E+03  0.86465513012E+03  0.91678515945E+02 0.  0.
          4    1    3    3  502    0  0.33091198458E+03 -0.15603382549E+03 -0.11046774971E+04  0.11636845229E+04  0.00000000000E+00 0. -1.
         -3    1    3    3    0  502  0.33193998790E+02 -0.51737496852E+02 -0.17364239636E+03  0.18420176967E+03  0.00000000000E+00 0.  1.
         11    1    5    5    0    0  0.23910997135E+03 -0.49351370487E+02 -0.64362031802E+03  0.68837217400E+03  0.00000000000E+00 0. -1.
        -11    1    5    5    0    0 -0.58917797209E+01  0.73086163755E+01 -0.12763699521E+02  0.15844272374E+02  0.00000000000E+00 0.  1.
          1    1    6    6  503    0 -0.43017228090E+03  0.13791631867E+03 -0.41346339496E+03  0.61238964816E+03  0.00000000000E+00 0. -1.
         -1    1    6    6    0  503 -0.16715189410E+03  0.11189775778E+03 -0.15223997336E+03  0.25226548196E+03  0.00000000000E+00 0.  1.
<mgrwt>
<rscale>  0 0.15018122E+04</rscale>
<asrwt>0</asrwt>
<pdfrwt beam="1">  1        2 0.41670499E+00 0.15018122E+04</pdfrwt>
<pdfrwt beam="2">  1       -1 0.32026970E-01 0.15018122E+04</pdfrwt>
<totfact> 0.26365077E+01</totfact>
</mgrwt>
</event>
<event>
12    6  0.1553355E-007  0.1756034E+04  0.7818608E-02  0.8730036E-01
         -1   -1    0    0    0  501 -0.00000000000E+00  0.00000000000E+00  0.34907526553E+03  0.34907526553E+03  0.00000000000E+00 0.  1.
          2   -1    0    0  501    0  0.00000000000E+00 -0.00000000000E+00 -0.22084467106E+04  0.22084467106E+04  0.00000000000E+00 0. -1.
         24    2    1    2    0    0 -0.56899349494E+02 -0.27240443326E+02 -0.15965820022E+04  0.16000624575E+04  0.84535203525E+02 0.  0.
        254    2    1    2    0    0  0.56899349494E+02  0.27240443326E+02 -0.26278944287E+03  0.95745951856E+03  0.91852646161E+03 0.  0.
         23    2    4    4    0    0  0.82269031242E+01  0.20551855544E+02  0.33547718416E+03  0.35019840205E+03  0.97999586759E+02 0.  0.
         23    2    4    4    0    0  0.48672446369E+02  0.66885877820E+01 -0.59826662702E+03  0.60726111652E+03  0.91811559089E+02 0.  0.
          4    1    3    3  502    0 -0.12518228775E+02 -0.45156799919E+02 -0.11434666508E+04  0.11444264171E+04  0.00000000000E+00 0. -1.
         -3    1    3    3    0  502 -0.44381120719E+02  0.17916356593E+02 -0.45311535137E+03  0.45563604045E+03  0.00000000000E+00 0.  1.
         11    1    5    5    0    0 -0.34275752844E+02  0.37528422526E+02  0.22396139541E+03  0.22965608280E+03  0.00000000000E+00 0.  1.
        -11    1    5    5    0    0  0.42502655969E+02 -0.16976566982E+02  0.11151578874E+03  0.12054231925E+03  0.00000000000E+00 0. -1.
          4    1    6    6  503    0  0.52846430132E+02 -0.29318355906E+02 -0.25396126887E+03  0.26105293956E+03  0.00000000000E+00 0. -1.
         -4    1    6    6    0  503 -0.41739837621E+01  0.36006943688E+02 -0.34430535816E+03  0.34620817695E+03  0.00000000000E+00 0.  1.
<mgrwt>
<rscale>  0 0.17560343E+04</rscale>
<asrwt>0</asrwt>
<pdfrwt beam="1">  1        2 0.33976103E+00 0.17560343E+04</pdfrwt>
<pdfrwt beam="2">  1       -1 0.53703887E-01 0.17560343E+04</pdfrwt>
<totfact> 0.19289194E+01</totfact>
</mgrwt>
</event>
<event>
12    6  0.1553355E-007  0.2336149E+04  0.7818608E-02  0.8463803E-01
         -1   -1    0    0    0  501 -0.00000000000E+00  0.00000000000E+00  0.13905297498E+04  0.13905297498E+04  0.00000000000E+00 0.  1.
          2   -1    0    0  501    0  0.00000000000E+00 -0.00000000000E+00 -0.98120712349E+03  0.98120712349E+03  0.00000000000E+00 0. -1.
         24    2    1    2    0    0 -0.75037090624E+03  0.37295293584E+03  0.71111755043E+03  0.11019148014E+04  0.79860314069E+02 0.  0.
        254    2    1    2    0    0  0.75037090624E+03 -0.37295293584E+03 -0.30179492416E+03  0.12698220718E+04  0.90510636313E+03 0.  0.
         23    2    4    4    0    0  0.80724096007E+03 -0.58213135971E+03 -0.26448626624E+03  0.10336575059E+04  0.89330659920E+02 0.  0.
         23    2    4    4    0    0 -0.56870053825E+02  0.20917842387E+03 -0.37308657925E+02  0.23616456599E+03  0.85976451637E+02 0.  0.
          4    1    3    3  502    0 -0.12152790486E+03  0.87495835755E+02  0.10320556941E+03  0.18186792595E+03  0.00000000000E+00 0. -1.
         -3    1    3    3    0  502 -0.62884300138E+03  0.28545710009E+03  0.60791198103E+03  0.92004687546E+03  0.00000000000E+00 0.  1.
         11    1    5    5    0    0  0.45842497948E+02 -0.59197736046E+02 -0.30143955890E+02  0.80712853052E+02  0.00000000000E+00 0. -1.
        -11    1    5    5    0    0  0.76139846212E+03 -0.52293362367E+03 -0.23434231035E+03  0.95294465280E+03  0.00000000000E+00 0.  1.
          2    1    6    6  503    0  0.23014389727E+02  0.45034276856E+02 -0.10551362640E+02  0.51663134632E+02  0.00000000000E+00 0. -1.
         -2    1    6    6    0  503 -0.79884443552E+02  0.16414414701E+03 -0.26757295285E+02  0.18450143135E+03  0.00000000000E+00 0.  1.
<mgrwt>
<rscale>  0 0.23361487E+04</rscale>
<asrwt>0</asrwt>
<pdfrwt beam="1">  1        2 0.15095494E+00 0.23361487E+04</pdfrwt>
<pdfrwt beam="2">  1       -1 0.21392765E+00 0.23361487E+04</pdfrwt>
<totfact> 0.32283422E+00</totfact>
</mgrwt>
</event>
<event>
12    6  0.1553355E-007  0.2512677E+04  0.7818608E-02  0.8398483E-01
         -1   -1    0    0    0  501 -0.00000000000E+00  0.00000000000E+00  0.49512117689E+04  0.49512117689E+04  0.00000000000E+00 0.  1.
          2   -1    0    0  501    0  0.00000000000E+00 -0.00000000000E+00 -0.31878796219E+03  0.31878796219E+03  0.00000000000E+00 0. -1.
         24    2    1    2    0    0  0.74433715011E+03 -0.75000178852E+03  0.26186843650E+04  0.28249714215E+04  0.80095277082E+02 0.  0.
        254    2    1    2    0    0 -0.74433715011E+03  0.75000178852E+03  0.20137394417E+04  0.24450283095E+04  0.89804032170E+03 0.  0.
         23    2    4    4    0    0  0.16549925222E+03 -0.50402016617E+01  0.17524700273E+03  0.25726528332E+03  0.89769192482E+02 0.  0.
         23    2    4    4    0    0 -0.90983640233E+03  0.75504199018E+03  0.18384924390E+04  0.21877630262E+04  0.91443559845E+02 0.  0.
          4    1    3    3  502    0  0.68197371579E+02 -0.44010981702E+02  0.17029247948E+03  0.18864616765E+03  0.00000000000E+00 0. -1.
         -3    1    3    3    0  502  0.67613977853E+03 -0.70599080682E+03  0.24483918855E+04  0.26363252539E+04  0.00000000000E+00 0.  1.
         11    1    5    5    0    0  0.14306460949E+03  0.24225113789E+02  0.16341629416E+03  0.21853883825E+03  0.00000000000E+00 0. -1.
        -11    1    5    5    0    0  0.22434642732E+02 -0.29265315451E+02  0.11830708575E+02  0.38726445077E+02  0.00000000000E+00 0.  1.
          4    1    6    6  503    0 -0.50908698471E+03  0.39780215713E+03  0.92735891675E+03  0.11302259397E+04  0.00000000000E+00 0. -1.
         -4    1    6    6    0  503 -0.40074941762E+03  0.35723983305E+03  0.91113352225E+03  0.10575370865E+04  0.00000000000E+00 0.  1.
<mgrwt>
<rscale>  0 0.25126772E+04</rscale>
<asrwt>0</asrwt>
<pdfrwt beam="1">  1        2 0.49044305E-01 0.25126772E+04</pdfrwt>
<pdfrwt beam="2">  1       -1 0.76172483E+00 0.25126772E+04</pdfrwt>
<totfact> 0.11739741E-02</totfact>
</mgrwt>
</event>
<event>
12    6  0.1553355E-007  0.1819207E+04  0.7818608E-02  0.8696152E-01
         -1   -1    0    0    0  501 -0.00000000000E+00  0.00000000000E+00  0.33749039858E+03  0.33749039858E+03  0.00000000000E+00 0.  1.
          2   -1    0    0  501    0  0.00000000000E+00 -0.00000000000E+00 -0.24515609426E+04  0.24515609426E+04  0.00000000000E+00 0. -1.
         24    2    1    2    0    0 -0.29467129053E+03 -0.76556150282E+01 -0.17738666101E+04  0.18000503287E+04  0.81784212279E+02 0.  0.
        254    2    1    2    0    0  0.29467129053E+03  0.76556150282E+01 -0.34020393395E+03  0.98900101254E+03  0.88062166010E+03 0.  0.
         23    2    4    4    0    0 -0.27495844479E+03 -0.15535317304E+03 -0.10653079704E+03  0.34579947224E+03  0.92150472297E+02 0.  0.
         23    2    4    4    0    0  0.56962973532E+03  0.16300878807E+03 -0.23367313690E+03  0.64320154031E+03  0.89750689123E+02 0.  0.
          4    1    3    3  502    0 -0.17839642108E+03  0.11039573559E+02 -0.12752323468E+04  0.12876974387E+04  0.00000000000E+00 0. -1.
         -3    1    3    3    0  502 -0.11627486945E+03 -0.18695188587E+02 -0.49863426329E+03  0.51235288998E+03  0.00000000000E+00 0.  1.
         11    1    5    5    0    0 -0.27733291346E+03 -0.15748980790E+03 -0.11318442142E+03  0.33841882000E+03  0.00000000000E+00 0. -1.
        -11    1    5    5    0    0  0.23744686706E+01  0.21366348598E+01  0.66536243776E+01  0.73806522307E+01  0.00000000000E+00 0.  1.
          1    1    6    6  503    0  0.50657994337E+03  0.17181494872E+03 -0.21799359153E+03  0.57763727509E+03  0.00000000000E+00 0. -1.
         -1    1    6    6    0  503  0.63049791949E+02 -0.88061606495E+01 -0.15679545371E+02  0.65564265215E+02  0.00000000000E+00 0.  1.
<mgrwt>
<rscale>  0 0.18192067E+04</rscale>
<asrwt>0</asrwt>
<pdfrwt beam="1">  1        2 0.37716321E+00 0.18192067E+04</pdfrwt>
<pdfrwt beam="2">  1       -1 0.51921601E-01 0.18192067E+04</pdfrwt>
<totfact> 0.14895867E+01</totfact>
</mgrwt>
</event>
<event>
12    6  0.1553355E-007  0.1482729E+04  0.7818608E-02  0.8896020E-01
          2   -1    0    0  501    0  0.00000000000E+00  0.00000000000E+00  0.27625846942E+04  0.27625846942E+04  0.00000000000E+00 0. -1.
         -3   -1    0    0    0  501 -0.00000000000E+00 -0.00000000000E+00 -0.19895187258E+03  0.19895187258E+03  0.00000000000E+00 0.  1.
         24    2    1    2    0    0  0.33201679623E+03 -0.13986314326E+03  0.13963181614E+04  0.14442693230E+04  0.80078821613E+02 0.  0.
        254    2    1    2    0    0 -0.33201679623E+03  0.13986314326E+03  0.11673146603E+04  0.15172672438E+04  0.89982193868E+03 0.  0.
         23    2    4    4    0    0 -0.38641750060E+03 -0.10937364018E+03  0.11781488070E+04  0.12478642287E+04  0.88597087107E+02 0.  0.
         23    2    4    4    0    0  0.54400704373E+02  0.24923678344E+03 -0.10834146755E+02  0.26940301514E+03  0.85919700741E+02 0.  0.
          4    1    3    3  502    0  0.83828507249E+02 -0.83497939757E+01  0.41924835121E+03  0.42762848090E+03  0.00000000000E+00 0. -1.
         -3    1    3    3    0  502  0.24818828898E+03 -0.13151334929E+03  0.97706981018E+03  0.10166408421E+04  0.00000000000E+00 0.  1.
         11    1    5    5    0    0 -0.73817502281E+02 -0.47588954751E+02  0.18379467372E+03  0.20370128705E+03  0.00000000000E+00 0. -1.
        -11    1    5    5    0    0 -0.31259999832E+03 -0.61784685426E+02  0.99435413329E+03  0.10441629416E+04  0.00000000000E+00 0.  1.
          4    1    6    6  503    0 -0.19565334960E+02  0.55524122454E+02  0.14156841183E+02  0.60548713105E+02  0.00000000000E+00 0. -1.
         -4    1    6    6    0  503  0.73966039333E+02  0.19371266099E+03 -0.24990987938E+02  0.20885430204E+03  0.00000000000E+00 0.  1.
<mgrwt>
<rscale>  0 0.14827291E+04</rscale>
<asrwt>0</asrwt>
<pdfrwt beam="1">  1        2 0.42501300E+00 0.14827291E+04</pdfrwt>
<pdfrwt beam="2">  1       -3 0.30607982E-01 0.14827291E+04</pdfrwt>
<totfact> 0.16050128E+01</totfact>
</mgrwt>
</event>
<event>
12    6  0.1553355E-007  0.2122922E+04  0.7818608E-02  0.8551213E-01
          2   -1    0    0  501    0  0.00000000000E+00  0.00000000000E+00  0.15207625732E+04  0.15207625732E+04  0.00000000000E+00 0. -1.
         -1   -1    0    0    0  501 -0.00000000000E+00 -0.00000000000E+00 -0.74087802222E+03  0.74087802222E+03  0.00000000000E+00 0.  1.
         24    2    1    2    0    0 -0.80539138262E+02 -0.23059277086E+03  0.12019196568E+04  0.12290189022E+04  0.78848093471E+02 0.  0.
        254    2    1    2    0    0  0.80539138262E+02  0.23059277086E+03 -0.42203510576E+03  0.10326216933E+04  0.91023862372E+03 0.  0.
         23    2    4    4    0    0 -0.26303244610E+03  0.28230889516E+03 -0.52622622705E+03  0.65873811098E+03  0.90207964292E+02 0.  0.
         23    2    4    4    0    0  0.34357158437E+03 -0.51716124303E+02  0.10419112129E+03  0.37388358228E+03  0.90648509319E+02 0.  0.
          4    1    3    3  502    0 -0.27017851553E+02 -0.39191658172E+02  0.40071550738E+03  0.40353298283E+03  0.00000000000E+00 0. -1.
         -3    1    3    3    0  502 -0.53521286709E+02 -0.19140111269E+03  0.80120414939E+03  0.82548591937E+03  0.00000000000E+00 0.  1.
         11    1    5    5    0    0 -0.65866491053E+02  0.13207449707E+03 -0.21678545781E+03  0.26225560459E+03  0.00000000000E+00 0. -1.
        -11    1    5    5    0    0 -0.19716595505E+03  0.15023439809E+03 -0.30944076925E+03  0.39648250639E+03  0.00000000000E+00 0.  1.
          1    1    6    6  503    0  0.25390987897E+03 -0.41958178550E+02  0.11715605001E+03  0.28276537171E+03  0.00000000000E+00 0. -1.
         -1    1    6    6    0  503  0.89661705392E+02 -0.97579457539E+01 -0.12964928714E+02  0.91118210561E+02  0.00000000000E+00 0.  1.
<mgrwt>
<rscale>  0 0.21229221E+04</rscale>
<asrwt>0</asrwt>
<pdfrwt beam="1">  1        2 0.23396347E+00 0.21229221E+04</pdfrwt>
<pdfrwt beam="2">  1       -1 0.11398123E+00 0.21229221E+04</pdfrwt>
<totfact> 0.90792532E+00</totfact>
</mgrwt>
</event>
<event>
12    6  0.1553355E-007  0.3181158E+04  0.7818608E-02  0.8193811E-01
         -1   -1    0    0    0  501 -0.00000000000E+00  0.00000000000E+00  0.12317476824E+04  0.12317476824E+04  0.00000000000E+00 0.  1.
          2   -1    0    0  501    0  0.00000000000E+00 -0.00000000000E+00 -0.20539451594E+04  0.20539451594E+04  0.00000000000E+00 0. -1.
         24    2    1    2    0    0  0.18708738529E+03 -0.92502345104E+03  0.77309435922E+03  0.12225938406E+04  0.79942079274E+02 0.  0.
        254    2    1    2    0    0 -0.18708738529E+03  0.92502345104E+03 -0.15952918362E+04  0.20630990012E+04  0.90595329422E+03 0.  0.
         23    2    4    4    0    0 -0.45083072950E+02  0.40398168301E+03 -0.45025698223E+02  0.41893996499E+03  0.90827843149E+02 0.  0.
         23    2    4    4    0    0 -0.14200431234E+03  0.52104176802E+03 -0.15502661380E+04  0.16441590362E+04  0.91016970630E+02 0.  0.
          4    1    3    3  502    0 -0.52534305992E+01 -0.25110614107E+02  0.32198293908E+02  0.41168818352E+02  0.00000000000E+00 0. -1.
         -3    1    3    3    0  502  0.19234081589E+03 -0.89991283693E+03  0.74089606531E+03  0.11814250222E+04  0.00000000000E+00 0.  1.
         11    1    5    5    0    0 -0.63137335078E+02  0.38302510056E+03 -0.47864145244E+02  0.39113364358E+03  0.00000000000E+00 0.  1.
        -11    1    5    5    0    0  0.18054262128E+02  0.20956582455E+02  0.28384470211E+01  0.27806321415E+02  0.00000000000E+00 0. -1.
          1    1    6    6  503    0 -0.27202300052E+02  0.17633837037E+03 -0.40280290200E+03  0.44055120457E+03  0.00000000000E+00 0. -1.
         -1    1    6    6    0  503 -0.11480201229E+03  0.34470339765E+03 -0.11474632360E+04  0.12036078316E+04  0.00000000000E+00 0.  1.
<mgrwt>
<rscale>  0 0.31811584E+04</rscale>
<asrwt>0</asrwt>
<pdfrwt beam="1">  1        2 0.31599156E+00 0.31811584E+04</pdfrwt>
<pdfrwt beam="2">  1       -1 0.18949965E+00 0.31811584E+04</pdfrwt>
<totfact> 0.10652686E+00</totfact>
</mgrwt>
</event>
<event>
12    6  0.1553355E-007  0.1563459E+04  0.7818608E-02  0.8843317E-01
         -1   -1    0    0    0  501 -0.00000000000E+00  0.00000000000E+00  0.27057170656E+03  0.27057170656E+03  0.00000000000E+00 0.  1.
          2   -1    0    0  501    0  0.00000000000E+00 -0.00000000000E+00 -0.22585537658E+04  0.22585537658E+04  0.00000000000E+00 0. -1.
         24    2    1    2    0    0 -0.45335250159E+03  0.27149517768E+02 -0.26474381808E+03  0.53167614280E+03  0.79527634192E+02 0.  0.
        254    2    1    2    0    0  0.45335250159E+03 -0.27149517768E+02 -0.17232382411E+04  0.19974493295E+04  0.90221294678E+03 0.  0.
         23    2    4    4    0    0 -0.11908607469E+03 -0.19478879929E+03 -0.98062228492E+02  0.26386352598E+03  0.88789583687E+02 0.  0.
         23    2    4    4    0    0  0.57243857628E+03  0.16763928152E+03 -0.16251760127E+04  0.17335858036E+04  0.91289725042E+02 0.  0.
          4    1    3    3  502    0 -0.13346433296E+03  0.10736360541E+02 -0.37833075682E+02  0.13913784253E+03  0.00000000000E+00 0. -1.
         -3    1    3    3    0  502 -0.31988816863E+03  0.16413157227E+02 -0.22691074240E+03  0.39253830027E+03  0.00000000000E+00 0.  1.
         11    1    5    5    0    0 -0.51793882297E+02 -0.10122611465E+03 -0.18319370345E+01  0.11372197907E+03  0.00000000000E+00 0.  1.
        -11    1    5    5    0    0 -0.67292192394E+02 -0.93562684642E+02 -0.96230291457E+02  0.15014154691E+03  0.00000000000E+00 0. -1.
          2    1    6    6  503    0  0.27636685003E+02  0.30856661941E+02 -0.98645504531E+02  0.10698997854E+03  0.00000000000E+00 0. -1.
         -2    1    6    6    0  503  0.54480189128E+03  0.13678261958E+03 -0.15265305081E+04  0.16265958250E+04  0.00000000000E+00 0.  1.
<mgrwt>
<rscale>  0 0.15634587E+04</rscale>
<asrwt>0</asrwt>
<pdfrwt beam="1">  1        2 0.34746980E+00 0.15634587E+04</pdfrwt>
<pdfrwt beam="2">  1       -1 0.41626417E-01 0.15634587E+04</pdfrwt>
<totfact> 0.29698689E+01</totfact>
</mgrwt>
</event>
<event>
12    6  0.1553355E-007  0.2439073E+04  0.7818608E-02  0.8425018E-01
         -1   -1    0    0    0  501 -0.00000000000E+00  0.00000000000E+00  0.15837163197E+04  0.15837163197E+04  0.00000000000E+00 0.  1.
          2   -1    0    0  501    0  0.00000000000E+00 -0.00000000000E+00 -0.93910062895E+03  0.93910062895E+03  0.00000000000E+00 0. -1.
         24    2    1    2    0    0 -0.56149400140E+03 -0.61852139114E+02 -0.64253480076E+03  0.85849699046E+03  0.71168193139E+02 0.  0.
        254    2    1    2    0    0  0.56149400140E+03  0.61852139114E+02  0.12871504915E+04  0.16643199581E+04  0.89112475819E+03 0.  0.
         23    2    4    4    0    0  0.28097357079E+03 -0.35370831554E+03  0.94245298860E+03  0.10490956557E+04  0.91259734898E+02 0.  0.
         23    2    4    4    0    0  0.28052043061E+03  0.41556045465E+03  0.34469750286E+03  0.61522430240E+03  0.91117343661E+02 0.  0.
          4    1    3    3  502    0 -0.41072672430E+03 -0.39257506391E+02 -0.51382136444E+03  0.65897647031E+03  0.00000000000E+00 0. -1.
         -3    1    3    3    0  502 -0.15076727710E+03 -0.22594632723E+02 -0.12871343632E+03  0.19952052015E+03  0.00000000000E+00 0.  1.
         11    1    5    5    0    0  0.20519368164E+03 -0.18728177888E+03  0.55419169947E+03  0.61992527893E+03  0.00000000000E+00 0.  1.
        -11    1    5    5    0    0  0.75779889153E+02 -0.16642653666E+03  0.38826128913E+03  0.42917037682E+03  0.00000000000E+00 0. -1.
          2    1    6    6  503    0  0.13270066471E+03  0.12094393180E+03  0.10961958274E+03  0.21036481164E+03  0.00000000000E+00 0. -1.
         -2    1    6    6    0  503  0.14781976590E+03  0.29461652285E+03  0.23507792013E+03  0.40485949076E+03  0.00000000000E+00 0.  1.
<mgrwt>
<rscale>  0 0.24390728E+04</rscale>
<asrwt>0</asrwt>
<pdfrwt beam="1">  1        2 0.14447702E+00 0.24390728E+04</pdfrwt>
<pdfrwt beam="2">  1       -1 0.24364866E+00 0.24390728E+04</pdfrwt>
<totfact> 0.21646336E+00</totfact>
</mgrwt>
</event>
<event>
12    6  0.1553355E-007  0.1354960E+04  0.7818608E-02  0.8987082E-01
          2   -1    0    0  501    0  0.00000000000E+00  0.00000000000E+00  0.27830443060E+04  0.27830443060E+04  0.00000000000E+00 0. -1.
         -1   -1    0    0    0  501 -0.00000000000E+00 -0.00000000000E+00 -0.16491973352E+03  0.16491973352E+03  0.00000000000E+00 0.  1.
         24    2    1    2    0    0 -0.14083838026E+03  0.35076681910E+02  0.14945865859E+04  0.15037525673E+04  0.80105542274E+02 0.  0.
        254    2    1    2    0    0  0.14083838026E+03 -0.35076681910E+02  0.11235379866E+04  0.14442114722E+04  0.89573620350E+03 0.  0.
         23    2    4    4    0    0 -0.17892761907E+03 -0.25854576814E+03  0.95710830469E+02  0.34092394696E+03  0.90595626000E+02 0.  0.
         23    2    4    4    0    0  0.31976599932E+03  0.22346908623E+03  0.10278271561E+04  0.11032875253E+04  0.92876120428E+02 0.  0.
          2    1    3    3  502    0 -0.14082182799E+03  0.50492667960E+02  0.13916862596E+04  0.13997038765E+04  0.00000000000E+00 0. -1.
         -1    1    3    3    0  502 -0.16552266564E-01 -0.15415986050E+02  0.10290032628E+03  0.10404869076E+03  0.00000000000E+00 0.  1.
         11    1    5    5    0    0 -0.51829758184E+02 -0.85532624546E+02 -0.12018331698E+02  0.10073030325E+03  0.00000000000E+00 0.  1.
        -11    1    5    5    0    0 -0.12709786088E+03 -0.17301314360E+03  0.10772916217E+03  0.24019364371E+03  0.00000000000E+00 0. -1.
          4    1    6    6  503    0  0.58687200371E+01  0.24819430236E+02  0.35519122812E+02  0.43727040575E+02  0.00000000000E+00 0. -1.
         -4    1    6    6    0  503  0.31389727929E+03  0.19864965600E+03  0.99230803331E+03  0.10595604847E+04  0.00000000000E+00 0.  1.
<mgrwt>
<rscale>  0 0.13549597E+04</rscale>
<asrwt>0</asrwt>
<pdfrwt beam="1">  1        2 0.42816063E+00 0.13549597E+04</pdfrwt>
<pdfrwt beam="2">  1       -1 0.25372269E-01 0.13549597E+04</pdfrwt>
<totfact> 0.36214564E+01</totfact>
</mgrwt>
</event>
<event>
12    6  0.1932643E-007  0.2586091E+04  0.7818608E-02  0.8372941E-01
          2   -1    0    0  501    0  0.00000000000E+00  0.00000000000E+00  0.19874430471E+04  0.19874430471E+04  0.00000000000E+00 0. -1.
         -1   -1    0    0    0  501 -0.00000000000E+00 -0.00000000000E+00 -0.84126532843E+03  0.84126532843E+03  0.00000000000E+00 0.  1.
         24    2    1    2    0    0 -0.42305388696E+03  0.44554814402E+03  0.15121936441E+04  0.16341489879E+04  0.78902202336E+02 0.  0.
        254    2    1    2    0    0  0.42305388696E+03 -0.44554814402E+03 -0.36601592546E+03  0.11945593876E+04  0.95682638595E+03 0.  0.
         23    2    4    4    0    0  0.60106062001E+03  0.40008796243E+02 -0.24107947131E+03  0.65513946219E+03  0.90630186619E+02 0.  0.
         23    2    4    4    0    0 -0.17800673305E+03 -0.48555694026E+03 -0.12493645415E+03  0.53941992539E+03  0.88953915525E+02 0.  0.
          2    1    3    3  502    0 -0.39199011202E+03  0.41036454853E+03  0.14425816615E+04  0.15501926205E+04  0.00000000000E+00 0. -1.
         -1    1    3    3    0  502 -0.31063774944E+02  0.35183595485E+02  0.69611982608E+02  0.83956367403E+02  0.00000000000E+00 0.  1.
         11    1    5    5    0    0  0.35889742768E+03  0.16047303719E+02 -0.96130434830E+02  0.37189506592E+03  0.00000000000E+00 0. -1.
        -11    1    5    5    0    0  0.24216319232E+03  0.23961492524E+02 -0.14494903648E+03  0.28324439627E+03  0.00000000000E+00 0.  1.
          1    1    6    6  503    0 -0.85809211406E+02 -0.17453967832E+03 -0.86135773054E+02  0.21271269701E+03  0.00000000000E+00 0. -1.
         -1    1    6    6    0  503 -0.92197521639E+02 -0.31101726194E+03 -0.38800681096E+02  0.32670722838E+03  0.00000000000E+00 0.  1.
<mgrwt>
<rscale>  0 0.25860912E+04</rscale>
<asrwt>0</asrwt>
<pdfrwt beam="1">  1        2 0.30576047E+00 0.25860912E+04</pdfrwt>
<pdfrwt beam="2">  1       -1 0.12942544E+00 0.25860912E+04</pdfrwt>
<totfact> 0.35084847E+00</totfact>
</mgrwt>
</event>
<event>
12    6  0.1553355E-007  0.1865360E+04  0.7818608E-02  0.8672294E-01
         -1   -1    0    0    0  501 -0.00000000000E+00  0.00000000000E+00  0.78520604636E+03  0.78520604636E+03  0.00000000000E+00 0.  1.
          2   -1    0    0  501    0  0.00000000000E+00 -0.00000000000E+00 -0.11078516267E+04  0.11078516267E+04  0.00000000000E+00 0. -1.
         24    2    1    2    0    0 -0.39515982826E+03 -0.14408290403E+03  0.46964511864E+03  0.63552253444E+03  0.80069852110E+02 0.  0.
        254    2    1    2    0    0  0.39515982826E+03  0.14408290403E+03 -0.79229069893E+03  0.12575351386E+04  0.88133926501E+03 0.  0.
         23    2    4    4    0    0  0.56725894545E+03 -0.73484191748E+02 -0.22799594587E+03  0.62217233626E+03  0.89070910262E+02 0.  0.
         23    2    4    4    0    0 -0.17209911719E+03  0.21756709578E+03 -0.56429475306E+03  0.63536280231E+03  0.91125051037E+02 0.  0.
          2    1    3    3  502    0 -0.18388698944E+03 -0.10936321365E+03  0.22771316830E+03  0.31245483578E+03  0.00000000000E+00 0. -1.
         -1    1    3    3    0  502 -0.21127283882E+03 -0.34719690380E+02  0.24193195034E+03  0.32306769866E+03  0.00000000000E+00 0.  1.
         11    1    5    5    0    0  0.26511400034E+03 -0.73181469960E+02 -0.84750266983E+02  0.28779084154E+03  0.00000000000E+00 0. -1.
        -11    1    5    5    0    0  0.30214494511E+03 -0.30272178790E+00 -0.14324567888E+03  0.33438149472E+03  0.00000000000E+00 0.  1.
          3    1    6    6  503    0 -0.16127036104E+03  0.22261006283E+03 -0.50590015578E+03  0.57575892267E+03  0.00000000000E+00 0. -1.
         -3    1    6    6    0  503 -0.10828756151E+02 -0.50429670440E+01 -0.58394597281E+02  0.59603879639E+02  0.00000000000E+00 0.  1.
<mgrwt>
<rscale>  0 0.18653598E+04</rscale>
<asrwt>0</asrwt>
<pdfrwt beam="1">  1        2 0.17043871E+00 0.18653598E+04</pdfrwt>
<pdfrwt beam="2">  1       -1 0.12080093E+00 0.18653598E+04</pdfrwt>
<totfact> 0.14056159E+01</totfact>
</mgrwt>
</event>
<event>
12    6  0.1553355E-007  0.1445538E+04  0.7818608E-02  0.8921500E-01
          2   -1    0    0  501    0  0.00000000000E+00  0.00000000000E+00  0.58590746113E+03  0.58590746113E+03  0.00000000000E+00 0. -1.
         -1   -1    0    0    0  501 -0.00000000000E+00 -0.00000000000E+00 -0.89159965745E+03  0.89159965745E+03  0.00000000000E+00 0.  1.
         24    2    1    2    0    0 -0.42694764265E+03 -0.13798594568E+03 -0.20539580985E+02  0.45606877880E+03  0.79072408801E+02 0.  0.
        254    2    1    2    0    0  0.42694764265E+03  0.13798594568E+03 -0.28515261533E+03  0.10214383398E+04  0.87218109196E+03 0.  0.
         23    2    4    4    0    0 -0.20013588438E+03 -0.16615866825E+03 -0.51837138639E+02  0.28064744443E+03  0.91721447167E+02 0.  0.
         23    2    4    4    0    0  0.62708352703E+03  0.30414461393E+03 -0.23331547669E+03  0.74079089536E+03  0.92721857892E+02 0.  0.
          4    1    3    3  502    0 -0.31108059944E+01 -0.91884530665E+01 -0.85517825165E+01  0.12932044227E+02  0.00000000000E+00 0. -1.
         -3    1    3    3    0  502 -0.42383683666E+03 -0.12879749261E+03 -0.11987798468E+02  0.44313673457E+03  0.00000000000E+00 0.  1.
         11    1    5    5    0    0 -0.11377552997E+03 -0.37304286957E+02 -0.34240167469E+02  0.12453461412E+03  0.00000000000E+00 0. -1.
        -11    1    5    5    0    0 -0.86360354403E+02 -0.12885438129E+03 -0.17596971170E+02  0.15611283030E+03  0.00000000000E+00 0.  1.
          3    1    6    6  503    0  0.22289108147E+03  0.65611722619E+02 -0.55315550875E+02  0.23884124960E+03  0.00000000000E+00 0. -1.
         -3    1    6    6    0  503  0.40419244556E+03  0.23853289131E+03 -0.17799992582E+03  0.50194964576E+03  0.00000000000E+00 0.  1.
<mgrwt>
<rscale>  0 0.14455378E+04</rscale>
<asrwt>0</asrwt>
<pdfrwt beam="1">  1        2 0.90139609E-01 0.14455378E+04</pdfrwt>
<pdfrwt beam="2">  1       -1 0.13716918E+00 0.14455378E+04</pdfrwt>
<totfact> 0.25021366E+01</totfact>
</mgrwt>
</event>
<event>
12    6  0.1553355E-007  0.1350774E+04  0.7818608E-02  0.8990243E-01
          2   -1    0    0  501    0  0.00000000000E+00  0.00000000000E+00  0.82576772524E+03  0.82576772524E+03  0.00000000000E+00 0. -1.
         -1   -1    0    0    0  501 -0.00000000000E+00 -0.00000000000E+00 -0.55239178246E+03  0.55239178246E+03  0.00000000000E+00 0.  1.
         24    2    1    2    0    0  0.28431509373E+03 -0.21576518880E+03 -0.17016398889E+02  0.36873371354E+03  0.91023647739E+02 0.  0.
        254    2    1    2    0    0 -0.28431509373E+03  0.21576518880E+03  0.29039234166E+03  0.10094257942E+04  0.89845591577E+03 0.  0.
         23    2    4    4    0    0 -0.17239302787E+03  0.36007416240E+03  0.54544710406E+03  0.68278752308E+03  0.96506475762E+02 0.  0.
         23    2    4    4    0    0 -0.11192206587E+03 -0.14430897360E+03 -0.25505476239E+03  0.32663827108E+03  0.91038451350E+02 0.  0.
          4    1    3    3  502    0  0.38323842309E+02 -0.77751874466E+01  0.20958883645E+02  0.44367163903E+02  0.00000000000E+00 0. -1.
         -3    1    3    3    0  502  0.24599125143E+03 -0.20799000135E+03 -0.37975282533E+02  0.32436654964E+03  0.00000000000E+00 0.  1.
         11    1    5    5    0    0 -0.17527663133E+03  0.36239859448E+03  0.52274644945E+03  0.65978669977E+03  0.00000000000E+00 0. -1.
        -11    1    5    5    0    0  0.28836034635E+01 -0.23244320879E+01  0.22700654607E+02  0.23000823312E+02  0.00000000000E+00 0.  1.
          3    1    6    6  503    0 -0.12804403882E+03 -0.13024807112E+03 -0.22965851528E+03  0.29343290468E+03  0.00000000000E+00 0. -1.
         -3    1    6    6    0  503  0.16121972950E+02 -0.14060902473E+02 -0.25396247114E+02  0.33205366398E+02  0.00000000000E+00 0.  1.
<mgrwt>
<rscale>  0 0.13507736E+04</rscale>
<asrwt>0</asrwt>
<pdfrwt beam="1">  1        2 0.12704119E+00 0.13507736E+04</pdfrwt>
<pdfrwt beam="2">  1       -1 0.84983351E-01 0.13507736E+04</pdfrwt>
<totfact> 0.50435810E+01</totfact>
</mgrwt>
</event>
<event>
12    6  0.1553355E-007  0.2201292E+04  0.7818608E-02  0.8517891E-01
          2   -1    0    0  501    0  0.00000000000E+00  0.00000000000E+00  0.17014705573E+04  0.17014705573E+04  0.00000000000E+00 0. -1.
         -1   -1    0    0    0  501 -0.00000000000E+00 -0.00000000000E+00 -0.71198484085E+03  0.71198484085E+03  0.00000000000E+00 0.  1.
         24    2    1    2    0    0 -0.47075460147E+03 -0.72917914217E+03  0.94883215078E+02  0.87682281950E+03  0.80643140587E+02 0.  0.
        254    2    1    2    0    0  0.47075460147E+03  0.72917914217E+03  0.89460250142E+03  0.15366325787E+04  0.89867342800E+03 0.  0.
         23    2    4    4    0    0 -0.90158275463E+02  0.42403188841E+03  0.75694737573E+03  0.87693216297E+03  0.90050717978E+02 0.  0.
         23    2    4    4    0    0  0.56091287694E+03  0.30514725376E+03  0.13765512569E+03  0.65970041573E+03  0.92290860317E+02 0.  0.
          4    1    3    3  502    0 -0.10946888636E+02 -0.28121986713E+01  0.53458897151E+01  0.12502854435E+02  0.00000000000E+00 0. -1.
         -3    1    3    3    0  502 -0.45980771284E+03 -0.72636694349E+03  0.89537325363E+02  0.86431996507E+03  0.00000000000E+00 0.  1.
         11    1    5    5    0    0 -0.10033854471E+03  0.27321193023E+03  0.51858430150E+03  0.59467828288E+03  0.00000000000E+00 0.  1.
        -11    1    5    5    0    0  0.10180269247E+02  0.15081995818E+03  0.23836307423E+03  0.28225388009E+03  0.00000000000E+00 0. -1.
          4    1    6    6  503    0  0.33500032882E+03  0.14027706956E+03  0.10540764043E+03  0.37817145214E+03  0.00000000000E+00 0.  1.
         -4    1    6    6    0  503  0.22591254811E+03  0.16487018420E+03  0.32247485261E+02  0.28152896359E+03  0.00000000000E+00 0. -1.
<mgrwt>
<rscale>  0 0.22012917E+04</rscale>
<asrwt>0</asrwt>
<pdfrwt beam="1">  1        2 0.26176470E+00 0.22012917E+04</pdfrwt>
<pdfrwt beam="2">  1       -1 0.10953613E+00 0.22012917E+04</pdfrwt>
<totfact> 0.78528147E+00</totfact>
</mgrwt>
</event>
<event>
12    6  0.1553355E-007  0.1775215E+04  0.7818608E-02  0.8719592E-01
          2   -1    0    0  501    0  0.00000000000E+00  0.00000000000E+00  0.30505319170E+04  0.30505319170E+04  0.00000000000E+00 0. -1.
         -1   -1    0    0    0  501 -0.00000000000E+00 -0.00000000000E+00 -0.25826553149E+03  0.25826553149E+03  0.00000000000E+00 0.  1.
         24    2    1    2    0    0  0.60258801446E+03 -0.26290400939E+03  0.92546952359E+03  0.11380443771E+04  0.80126973862E+02 0.  0.
        254    2    1    2    0    0 -0.60258801446E+03  0.26290400939E+03  0.18667968619E+04  0.21707530714E+04  0.89163195308E+03 0.  0.
         23    2    4    4    0    0 -0.57859160411E+03  0.99857697012E+02  0.46030220639E+03  0.75173466344E+03  0.92125343972E+02 0.  0.
         23    2    4    4    0    0 -0.23996410346E+02  0.16304631238E+03  0.14064946555E+04  0.14190184079E+04  0.90697840371E+02 0.  0.
          2    1    3    3  502    0  0.19956717218E+03 -0.58893311451E+02  0.33924530640E+03  0.39797343663E+03  0.00000000000E+00 0. -1.
         -1    1    3    3    0  502  0.40302084228E+03 -0.20401069794E+03  0.58622421719E+03  0.74007094052E+03  0.00000000000E+00 0.  1.
         11    1    5    5    0    0 -0.14317932618E+02  0.12579897636E+02  0.12474873866E+01  0.19100084915E+02  0.00000000000E+00 0. -1.
        -11    1    5    5    0    0 -0.56427367150E+03  0.87277799377E+02  0.45905471900E+03  0.73263457852E+03  0.00000000000E+00 0.  1.
          1    1    6    6  503    0 -0.26656995480E+02  0.26895106076E+02  0.13368348056E+03  0.13894320823E+03  0.00000000000E+00 0. -1.
         -1    1    6    6    0  503  0.26605851344E+01  0.13615120630E+03  0.12728111750E+04  0.12800751997E+04  0.00000000000E+00 0.  1.
<mgrwt>
<rscale>  0 0.17752152E+04</rscale>
<asrwt>0</asrwt>
<pdfrwt beam="1">  1        2 0.46931258E+00 0.17752152E+04</pdfrwt>
<pdfrwt beam="2">  1       -1 0.39733161E-01 0.17752152E+04</pdfrwt>
<totfact> 0.10792721E+01</totfact>
</mgrwt>
</event>
<event>
12    6  0.1553355E-007  0.2394788E+04  0.7818608E-02  0.8441457E-01
          2   -1    0    0  501    0  0.00000000000E+00  0.00000000000E+00  0.22487391320E+04  0.22487391320E+04  0.00000000000E+00 0. -1.
         -1   -1    0    0    0  501 -0.00000000000E+00 -0.00000000000E+00 -0.63758050088E+03  0.63758050088E+03  0.00000000000E+00 0.  1.
         24    2    1    2    0    0 -0.95380902997E+03  0.31407225392E+03  0.94872946571E+03  0.13838708195E+04  0.81349858661E+02 0.  0.
        254    2    1    2    0    0  0.95380902997E+03 -0.31407225392E+03  0.66242916544E+03  0.15024488135E+04  0.90008165823E+03 0.  0.
         23    2    4    4    0    0 -0.14050556453E+03 -0.35118897544E+02 -0.30380312963E+02  0.17462912808E+03  0.92721185977E+02 0.  0.
         23    2    4    4    0    0  0.10943145945E+04 -0.27895335637E+03  0.69280947840E+03  0.13278196854E+04  0.88208484489E+02 0.  0.
          4    1    3    3  502    0 -0.74982212058E+02  0.29320589671E+01  0.77251880817E+02  0.10769764243E+03  0.00000000000E+00 0. -1.
         -3    1    3    3    0  502 -0.87882681791E+03  0.31114019495E+03  0.87147758489E+03  0.12761731770E+04  0.00000000000E+00 0.  1.
         11    1    5    5    0    0 -0.77375347069E+02  0.26226143062E+02 -0.28678148818E+02  0.86586321862E+02  0.00000000000E+00 0. -1.
        -11    1    5    5    0    0 -0.63130217460E+02 -0.61345040606E+02 -0.17021641445E+01  0.88042806216E+02  0.00000000000E+00 0.  1.
          3    1    6    6  503    0  0.37819446183E+03 -0.13422281072E+03  0.27028919428E+03  0.48384198083E+03  0.00000000000E+00 0. -1.
         -3    1    6    6    0  503  0.71612013268E+03 -0.14473054566E+03  0.42252028412E+03  0.84397770454E+03  0.00000000000E+00 0.  1.
<mgrwt>
<rscale>  0 0.23947879E+04</rscale>
<asrwt>0</asrwt>
<pdfrwt beam="1">  1        2 0.34595986E+00 0.23947879E+04</pdfrwt>
<pdfrwt beam="2">  1       -1 0.98089309E-01 0.23947879E+04</pdfrwt>
<totfact> 0.49405598E+00</totfact>
</mgrwt>
</event>
<event>
12    6  0.1553355E-007  0.2109392E+04  0.7818608E-02  0.8557117E-01
         -1   -1    0    0    0  501 -0.00000000000E+00  0.00000000000E+00  0.12436394266E+04  0.12436394266E+04  0.00000000000E+00 0.  1.
          2   -1    0    0  501    0  0.00000000000E+00 -0.00000000000E+00 -0.89445852110E+03  0.89445852110E+03  0.00000000000E+00 0. -1.
         24    2    1    2    0    0  0.22950499261E+03  0.54119052639E+03  0.78020596496E+03  0.97917039115E+03  0.67034167883E+02 0.  0.
        254    2    1    2    0    0 -0.22950499261E+03 -0.54119052639E+03 -0.43102505950E+03  0.11589275565E+04  0.90098321396E+03 0.  0.
         23    2    4    4    0    0 -0.23437182750E+03  0.31038142599E+02  0.18467605736E+03  0.31346429597E+03  0.90890587289E+02 0.  0.
         23    2    4    4    0    0  0.48668348957E+01 -0.57222866899E+03 -0.61570111686E+03  0.84546326054E+03  0.90834596545E+02 0.  0.
          4    1    3    3  502    0  0.44426412802E+02  0.18386990460E+03  0.24181383011E+03  0.30701103629E+03  0.00000000000E+00 0. -1.
         -3    1    3    3    0  502  0.18507857981E+03  0.35732062180E+03  0.53839213484E+03  0.67215935486E+03  0.00000000000E+00 0.  1.
         11    1    5    5    0    0 -0.12946768408E+03 -0.18306558519E+02  0.62111516585E+02  0.14475790755E+03  0.00000000000E+00 0. -1.
        -11    1    5    5    0    0 -0.10490414343E+03  0.49344701118E+02  0.12256454078E+03  0.16870638842E+03  0.00000000000E+00 0.  1.
          3    1    6    6  503    0 -0.88592101497E+01 -0.55401485892E+03 -0.60461847592E+03  0.82010636562E+03  0.00000000000E+00 0.  1.
         -3    1    6    6    0  503  0.13726045045E+02 -0.18213810073E+02 -0.11082640939E+02  0.25356894923E+02  0.00000000000E+00 0. -1.
<mgrwt>
<rscale>  0 0.21093922E+04</rscale>
<asrwt>0</asrwt>
<pdfrwt beam="1">  1        2 0.13760900E+00 0.21093922E+04</pdfrwt>
<pdfrwt beam="2">  1       -1 0.19132914E+00 0.21093922E+04</pdfrwt>
<totfact> 0.53733726E+00</totfact>
</mgrwt>
</event>
<event>
12    6  0.1553355E-007  0.1669270E+04  0.7818608E-02  0.8779087E-01
          2   -1    0    0  501    0  0.00000000000E+00  0.00000000000E+00  0.13959839567E+04  0.13959839567E+04  0.00000000000E+00 0. -1.
         -1   -1    0    0    0  501 -0.00000000000E+00 -0.00000000000E+00 -0.49901422472E+03  0.49901422472E+03  0.00000000000E+00 0.  1.
         24    2    1    2    0    0 -0.21307398104E+03  0.20588087625E+03  0.88485832243E+03  0.93654113075E+03  0.79671715325E+02 0.  0.
        254    2    1    2    0    0  0.21307398104E+03 -0.20588087625E+03  0.12111409506E+02  0.95845705061E+03  0.91143061998E+03 0.  0.
         23    2    4    4    0    0  0.29639514799E+03  0.16122712471E+03  0.31140462487E+03  0.46908109643E+03  0.96020649555E+02 0.  0.
         23    2    4    4    0    0 -0.83321166950E+02 -0.36710800096E+03 -0.29929321536E+03  0.48937595419E+03  0.90563207429E+02 0.  0.
          4    1    3    3  502    0 -0.10983274444E+03  0.11947942744E+03  0.59853575000E+03  0.62014805439E+03  0.00000000000E+00 0. -1.
         -3    1    3    3    0  502 -0.10324123660E+03  0.86401448808E+02  0.28632257243E+03  0.31639307636E+03  0.00000000000E+00 0.  1.
         11    1    5    5    0    0  0.28757324715E+03  0.12676780841E+03  0.26853406812E+03  0.41337512681E+03  0.00000000000E+00 0. -1.
        -11    1    5    5    0    0  0.88219008361E+01  0.34459316308E+02  0.42870556751E+02  0.55705969617E+02  0.00000000000E+00 0.  1.
          4    1    6    6  503    0 -0.77712348394E+02 -0.33312002612E+03 -0.23061465229E+03  0.41254245690E+03  0.00000000000E+00 0. -1.
         -4    1    6    6    0  503 -0.56088185563E+01 -0.33987974846E+02 -0.68678563071E+02  0.76833497286E+02  0.00000000000E+00 0.  1.
<mgrwt>
<rscale>  0 0.16692703E+04</rscale>
<asrwt>0</asrwt>
<pdfrwt beam="1">  1        2 0.21476676E+00 0.16692703E+04</pdfrwt>
<pdfrwt beam="2">  1       -1 0.76771420E-01 0.16692703E+04</pdfrwt>
<totfact> 0.26922419E+01</totfact>
</mgrwt>
</event>
<event>
12    6  0.1553355E-007  0.1210666E+04  0.7818608E-02  0.9103571E-01
          2   -1    0    0  501    0  0.00000000000E+00  0.00000000000E+00  0.62921255586E+03  0.62921255586E+03  0.00000000000E+00 0. -1.
         -3   -1    0    0    0  501 -0.00000000000E+00 -0.00000000000E+00 -0.58235989372E+03  0.58235989372E+03  0.00000000000E+00 0.  1.
         24    2    1    2    0    0 -0.39144365548E+01  0.72963970243E+02  0.26225706426E+03  0.28229234305E+03  0.74640038993E+02 0.  0.
        254    2    1    2    0    0  0.39144365548E+01 -0.72963970243E+02 -0.21540440212E+03  0.92928010654E+03  0.90101242843E+03 0.  0.
         23    2    4    4    0    0 -0.19078144162E+03  0.35078246234E+03 -0.66967882645E+01  0.41030402919E+03  0.94120428397E+02 0.  0.
         23    2    4    4    0    0  0.19469587818E+03 -0.42374643258E+03 -0.20870761386E+03  0.51897607735E+03  0.91157976475E+02 0.  0.
          2    1    3    3  502    0 -0.30987242750E+02  0.62196201689E+02  0.22184023863E+03  0.23246863916E+03  0.00000000000E+00 0. -1.
         -1    1    3    3    0  502  0.27072806195E+02  0.10767768553E+02  0.40416825637E+02  0.49823703892E+02  0.00000000000E+00 0.  1.
         11    1    5    5    0    0 -0.13515914933E+03  0.16263868904E+03  0.19511495320E+02  0.21236769356E+03  0.00000000000E+00 0.  1.
        -11    1    5    5    0    0 -0.55622292292E+02  0.18814377330E+03 -0.26208283585E+02  0.19793633562E+03  0.00000000000E+00 0. -1.
          2    1    6    6  503    0  0.47478191913E+02 -0.21071347548E+03 -0.87201503869E+02  0.23293443226E+03  0.00000000000E+00 0. -1.
         -2    1    6    6    0  503  0.14721768626E+03 -0.21303295710E+03 -0.12150610999E+03  0.28604164509E+03  0.00000000000E+00 0.  1.
<mgrwt>
<rscale>  0 0.12106662E+04</rscale>
<asrwt>0</asrwt>
<pdfrwt beam="1">  1        2 0.96801931E-01 0.12106662E+04</pdfrwt>
<pdfrwt beam="2">  1       -3 0.89593830E-01 0.12106662E+04</pdfrwt>
<totfact> 0.32831619E+01</totfact>
</mgrwt>
</event>
<event>
12    6  0.1553355E-007  0.1674900E+04  0.7818608E-02  0.8775810E-01
         -1   -1    0    0    0  501 -0.00000000000E+00  0.00000000000E+00  0.30084773491E+03  0.30084773491E+03  0.00000000000E+00 0.  1.
          2   -1    0    0  501    0  0.00000000000E+00 -0.00000000000E+00 -0.23311553785E+04  0.23311553785E+04  0.00000000000E+00 0. -1.
         24    2    1    2    0    0 -0.16275541098E+03 -0.97075277018E+02 -0.16157044475E+04  0.16286833041E+04  0.78711563148E+02 0.  0.
        254    2    1    2    0    0  0.16275541098E+03  0.97075277018E+02 -0.41460319606E+03  0.10033198093E+04  0.89377955689E+03 0.  0.
         23    2    4    4    0    0 -0.90794083446E+02 -0.14862446629E+03  0.20512794117E+03  0.28402603807E+03  0.90887405526E+02 0.  0.
         23    2    4    4    0    0  0.25354949443E+03  0.24569974331E+03 -0.61973113723E+03  0.71929377122E+03  0.93065229146E+02 0.  0.
          4    1    3    3  502    0 -0.43992142972E+02 -0.50606077297E+02 -0.82916427908E+03  0.83187119520E+03  0.00000000000E+00 0. -1.
         -1    1    3    3    0  502 -0.11876326801E+03 -0.46469199721E+02 -0.78654016842E+03  0.79681210890E+03  0.00000000000E+00 0.  1.
         11    1    5    5    0    0 -0.10392606844E+03 -0.96427475250E+02  0.13642550426E+03  0.19675061346E+03  0.00000000000E+00 0. -1.
        -11    1    5    5    0    0  0.13131984991E+02 -0.52196991040E+02  0.68702436905E+02  0.87275424606E+02  0.00000000000E+00 0.  1.
          2    1    6    6  503    0  0.16556423841E+03  0.17425476821E+03 -0.49796448793E+03  0.55294201551E+03  0.00000000000E+00 0.  1.
         -2    1    6    6    0  503  0.87985256023E+02  0.71444975099E+02 -0.12176664930E+03  0.16635175571E+03  0.00000000000E+00 0. -1.
<mgrwt>
<rscale>  0 0.16749004E+04</rscale>
<asrwt>0</asrwt>
<pdfrwt beam="1">  1        2 0.35863927E+00 0.16749004E+04</pdfrwt>
<pdfrwt beam="2">  1       -1 0.46284269E-01 0.16749004E+04</pdfrwt>
<totfact> 0.21976153E+01</totfact>
</mgrwt>
</event>
<event>
12    6  0.1553355E-007  0.2554712E+04  0.7818608E-02  0.8383749E-01
         -1   -1    0    0    0  501 -0.00000000000E+00  0.00000000000E+00  0.50963359060E+03  0.50963359060E+03  0.00000000000E+00 0.  1.
          2   -1    0    0  501    0  0.00000000000E+00 -0.00000000000E+00 -0.32015919504E+04  0.32015919504E+04  0.00000000000E+00 0. -1.
         24    2    1    2    0    0  0.16869268780E+03 -0.10933159722E+04 -0.14635003068E+04  0.18362964814E+04  0.79715631009E+02 0.  0.
        254    2    1    2    0    0 -0.16869268780E+03  0.10933159722E+04 -0.12284580530E+04  0.18749290596E+04  0.88456359438E+03 0.  0.
         23    2    4    4    0    0  0.16798530217E+03  0.63950483086E+03 -0.19751900145E+03  0.69585826942E+03  0.89551575945E+02 0.  0.
         23    2    4    4    0    0 -0.33667798997E+03  0.45381114130E+03 -0.10309390516E+04  0.11790707901E+04  0.89866452265E+02 0.  0.
          2    1    3    3  502    0  0.91189705964E+01 -0.27365528383E+03 -0.34422987050E+03  0.43984607960E+03  0.00000000000E+00 0. -1.
         -1    1    3    3    0  502  0.15957371721E+03 -0.81966068833E+03 -0.11192704363E+04  0.13964504018E+04  0.00000000000E+00 0.  1.
         11    1    5    5    0    0  0.14156493427E+03  0.52330321687E+03 -0.12492636321E+03  0.55632138519E+03  0.00000000000E+00 0. -1.
        -11    1    5    5    0    0  0.26420367895E+02  0.11620161399E+03 -0.72592638237E+02  0.13953688423E+03  0.00000000000E+00 0.  1.
          2    1    6    6  503    0 -0.29968259830E+03  0.36048058221E+03 -0.89165965336E+03  0.10073791974E+04  0.00000000000E+00 0. -1.
         -2    1    6    6    0  503 -0.36995391676E+02  0.93330559090E+02 -0.13927939820E+03  0.17169159277E+03  0.00000000000E+00 0.  1.
<mgrwt>
<rscale>  0 0.25547124E+04</rscale>
<asrwt>0</asrwt>
<pdfrwt beam="1">  1        2 0.49255260E+00 0.25547124E+04</pdfrwt>
<pdfrwt beam="2">  1       -1 0.78405169E-01 0.25547124E+04</pdfrwt>
<totfact> 0.21271488E+00</totfact>
</mgrwt>
</event>
<event>
12    6  0.1553355E-007  0.1226183E+04  0.7818608E-02  0.9090242E-01
          2   -1    0    0  501    0  0.00000000000E+00  0.00000000000E+00  0.15916918921E+04  0.15916918921E+04  0.00000000000E+00 0. -1.
         -1   -1    0    0    0  501 -0.00000000000E+00 -0.00000000000E+00 -0.23615208287E+03  0.23615208287E+03  0.00000000000E+00 0.  1.
         24    2    1    2    0    0 -0.44224432608E+02  0.33415238080E+02  0.68028126016E+03  0.68760146752E+03  0.83311503649E+02 0.  0.
        254    2    1    2    0    0  0.44224432608E+02 -0.33415238080E+02  0.67525854905E+03  0.11402425074E+04  0.91711857962E+03 0.  0.
         23    2    4    4    0    0  0.18632636626E+03 -0.38934858135E+03  0.11509572709E+03  0.45552876997E+03  0.89160536716E+02 0.  0.
         23    2    4    4    0    0 -0.14210193365E+03  0.35593334327E+03  0.56016282196E+03  0.68471373746E+03  0.90382579923E+02 0.  0.
          2    1    3    3  502    0 -0.93697019702E+01  0.56701535959E+02  0.43210540553E+03  0.43591046900E+03  0.00000000000E+00 0. -1.
         -1    1    3    3    0  502 -0.34854730637E+02 -0.23286297879E+02  0.24817585463E+03  0.25169099853E+03  0.00000000000E+00 0.  1.
         11    1    5    5    0    0  0.17281084565E+03 -0.30594191166E+03  0.65110526860E+02  0.35735615623E+03  0.00000000000E+00 0. -1.
        -11    1    5    5    0    0  0.13515520612E+02 -0.83406669688E+02  0.49985200232E+02  0.98172613738E+02  0.00000000000E+00 0.  1.
          2    1    6    6  503    0 -0.78662983515E+02  0.29152202164E+03  0.40560043546E+03  0.50565271415E+03  0.00000000000E+00 0.  1.
         -2    1    6    6    0  503 -0.63438950136E+02  0.64411321636E+02  0.15456238650E+03  0.17906102331E+03  0.00000000000E+00 0. -1.
<mgrwt>
<rscale>  0 0.12261833E+04</rscale>
<asrwt>0</asrwt>
<pdfrwt beam="1">  1        2 0.24487567E+00 0.12261833E+04</pdfrwt>
<pdfrwt beam="2">  1       -1 0.36331091E-01 0.12261833E+04</pdfrwt>
<totfact> 0.91757661E+01</totfact>
</mgrwt>
</event>
<event>
12    6  0.1553355E-007  0.1421218E+04  0.7818608E-02  0.8938601E-01
         -1   -1    0    0    0  501 -0.00000000000E+00  0.00000000000E+00  0.66166142041E+03  0.66166142041E+03  0.00000000000E+00 0.  1.
          2   -1    0    0  501    0  0.00000000000E+00 -0.00000000000E+00 -0.76317760403E+03  0.76317760403E+03  0.00000000000E+00 0. -1.
         24    2    1    2    0    0 -0.65197984132E+02  0.40611494229E+03 -0.12353880586E+03  0.43563436895E+03  0.73043434841E+02 0.  0.
        254    2    1    2    0    0  0.65197984132E+02 -0.40611494229E+03  0.22022622250E+02  0.98920465549E+03  0.89936685011E+03 0.  0.
         23    2    4    4    0    0 -0.31418220610E+03 -0.44735984087E+03 -0.12864301094E+03  0.56919604257E+03  0.92702884304E+02 0.  0.
         23    2    4    4    0    0  0.37938019023E+03  0.41244898584E+02  0.15066563319E+03  0.42000861292E+03  0.89870081245E+02 0.  0.
          2    1    3    3  502    0  0.11270127859E+02  0.15365596790E+02 -0.11628046738E+01  0.19091083295E+02  0.00000000000E+00 0. -1.
         -1    1    3    3    0  502 -0.76468111991E+02  0.39074934550E+03 -0.12237600119E+03  0.41654328565E+03  0.00000000000E+00 0.  1.
         11    1    5    5    0    0 -0.16560572164E+02 -0.73845850317E+02 -0.30686456228E+02  0.81664684872E+02  0.00000000000E+00 0. -1.
        -11    1    5    5    0    0 -0.29762163394E+03 -0.37351399055E+03 -0.97956554715E+02  0.48753135770E+03  0.00000000000E+00 0.  1.
          3    1    6    6  503    0  0.13488072068E+03 -0.24865965418E+02  0.71335786272E+02  0.15459598782E+03  0.00000000000E+00 0. -1.
         -3    1    6    6    0  503  0.24449946955E+03  0.66110864002E+02  0.79329846921E+02  0.26541262510E+03  0.00000000000E+00 0.  1.
<mgrwt>
<rscale>  0 0.14212180E+04</rscale>
<asrwt>0</asrwt>
<pdfrwt beam="1">  1        2 0.11741194E+00 0.14212180E+04</pdfrwt>
<pdfrwt beam="2">  1       -1 0.10179406E+00 0.14212180E+04</pdfrwt>
<totfact> 0.37233022E+01</totfact>
</mgrwt>
</event>
<event>
12    6  0.1553355E-007  0.1246329E+04  0.7818608E-02  0.9073244E-01
          4   -1    0    0  501    0  0.00000000000E+00  0.00000000000E+00  0.63857275011E+03  0.63857275011E+03  0.00000000000E+00 0. -1.
         -3   -1    0    0    0  501 -0.00000000000E+00 -0.00000000000E+00 -0.60812798320E+03  0.60812798320E+03  0.00000000000E+00 0.  1.
         24    2    1    2    0    0  0.22984573233E+03  0.17132644455E+03 -0.79267388001E+02  0.30811361752E+03  0.80429293363E+02 0.  0.
        254    2    1    2    0    0 -0.22984573233E+03 -0.17132644455E+03  0.10971215491E+03  0.93858711579E+03  0.88697644034E+03 0.  0.
         23    2    4    4    0    0  0.10475851950E+03  0.95356944200E+02 -0.29657315003E+03  0.34156011934E+03  0.92953685184E+02 0.  0.
         23    2    4    4    0    0 -0.33460425183E+03 -0.26668338875E+03  0.40628530494E+03  0.59702699645E+03  0.91068382595E+02 0.  0.
          2    1    3    3  502    0  0.56803059511E+02  0.85647246451E+02 -0.11223048603E+02  0.10338276072E+03  0.00000000000E+00 0. -1.
         -1    1    3    3    0  502  0.17304267281E+03  0.85679198099E+02 -0.68044339398E+02  0.20473085680E+03  0.00000000000E+00 0.  1.
         11    1    5    5    0    0  0.52666970538E+02  0.69691381274E+02 -0.25659948430E+03  0.27106086725E+03  0.00000000000E+00 0. -1.
        -11    1    5    5    0    0  0.52091548962E+02  0.25665562926E+02 -0.39973665727E+02  0.70499252089E+02  0.00000000000E+00 0.  1.
          3    1    6    6  503    0 -0.21263141206E+03 -0.17771173328E+03  0.31931064303E+03  0.42279175050E+03  0.00000000000E+00 0. -1.
         -3    1    6    6    0  503 -0.12197283976E+03 -0.88971655468E+02  0.86974661908E+02  0.17423524595E+03  0.00000000000E+00 0.  1.
<mgrwt>
<rscale>  0 0.12463289E+04</rscale>
<asrwt>0</asrwt>
<pdfrwt beam="1">  1        4 0.98241961E-01 0.12463289E+04</pdfrwt>
<pdfrwt beam="2">  1       -3 0.93558151E-01 0.12463289E+04</pdfrwt>
<totfact> 0.19754288E+00</totfact>
</mgrwt>
</event>
<event>
12    6  0.1553355E-007  0.1423427E+04  0.7818608E-02  0.8937033E-01
          2   -1    0    0  501    0  0.00000000000E+00  0.00000000000E+00  0.10356500984E+04  0.10356500984E+04  0.00000000000E+00 0. -1.
         -1   -1    0    0    0  501 -0.00000000000E+00 -0.00000000000E+00 -0.48909955637E+03  0.48909955637E+03  0.00000000000E+00 0.  1.
         24    2    1    2    0    0 -0.33780855691E+02 -0.26677020073E+03  0.50313398087E+03  0.57638731043E+03  0.82286345867E+02 0.  0.
        254    2    1    2    0    0  0.33780855691E+02  0.26677020073E+03  0.43416561133E+02  0.94836234431E+03  0.90840445404E+03 0.  0.
         23    2    4    4    0    0 -0.20849591531E+02 -0.12112889399E+03  0.38905323579E+03  0.41808775950E+03  0.91258095185E+02 0.  0.
         23    2    4    4    0    0  0.54630447223E+02  0.38789909472E+03 -0.34563667466E+03  0.53027458482E+03  0.90973792882E+02 0.  0.
          4    1    3    3  502    0  0.67342456912E+01 -0.15426174288E+03  0.34630663367E+03  0.37917056835E+03  0.00000000000E+00 0. -1.
         -1    1    3    3    0  502 -0.40515101383E+02 -0.11250845785E+03  0.15682734720E+03  0.19721674208E+03  0.00000000000E+00 0.  1.
         11    1    5    5    0    0 -0.45442221416E+02 -0.83696643322E+02  0.17339764382E+03  0.19783039826E+03  0.00000000000E+00 0. -1.
        -11    1    5    5    0    0  0.24592629885E+02 -0.37432250667E+02  0.21565559196E+03  0.22025736124E+03  0.00000000000E+00 0.  1.
          4    1    6    6  503    0  0.39683947103E+02  0.30090712990E+03 -0.21239180213E+03  0.37044593950E+03  0.00000000000E+00 0. -1.
         -4    1    6    6    0  503  0.14946500120E+02  0.86991964815E+02 -0.13324487253E+03  0.15982864532E+03  0.00000000000E+00 0.  1.
<mgrwt>
<rscale>  0 0.14234269E+04</rscale>
<asrwt>0</asrwt>
<pdfrwt beam="1">  1        2 0.15933078E+00 0.14234269E+04</pdfrwt>
<pdfrwt beam="2">  1       -1 0.75246086E-01 0.14234269E+04</pdfrwt>
<totfact> 0.47053893E+01</totfact>
</mgrwt>
</event>
<event>
12    6  0.1553355E-007  0.3568626E+04  0.7818608E-02  0.8097716E-01
         -1   -1    0    0    0  501 -0.00000000000E+00  0.00000000000E+00  0.15196321000E+04  0.15196321000E+04  0.00000000000E+00 0.  1.
          2   -1    0    0  501    0  0.00000000000E+00 -0.00000000000E+00 -0.20950945148E+04  0.20950945148E+04  0.00000000000E+00 0. -1.
         24    2    1    2    0    0 -0.80200674673E+03  0.73339235510E+03  0.10127809768E+04  0.14878792554E+04  0.83547610170E+02 0.  0.
        254    2    1    2    0    0  0.80200674673E+03 -0.73339235510E+03 -0.15882433916E+04  0.21268473594E+04  0.90547415815E+03 0.  0.
         23    2    4    4    0    0  0.90151775378E+03 -0.29324269733E+03 -0.11236354992E+04  0.14727651738E+04  0.88062376583E+02 0.  0.
         23    2    4    4    0    0 -0.99511007045E+02 -0.44014965776E+03 -0.46460789241E+03  0.65408218565E+03  0.91262534171E+02 0.  0.
          4    1    3    3  502    0 -0.24183434727E+03  0.24704101656E+03  0.36903277419E+03  0.50566619801E+03  0.00000000000E+00 0. -1.
         -3    1    3    3    0  502 -0.56017239946E+03  0.48635133854E+03  0.64374820263E+03  0.98221305734E+03  0.00000000000E+00 0.  1.
         11    1    5    5    0    0  0.60470239475E+03 -0.16253180744E+03 -0.78018621168E+03  0.10003859753E+04  0.00000000000E+00 0. -1.
        -11    1    5    5    0    0  0.29681535903E+03 -0.13071088989E+03 -0.34344928753E+03  0.47237919852E+03  0.00000000000E+00 0.  1.
          4    1    6    6  503    0 -0.27028485461E+02 -0.43044981844E+02 -0.90082743147E+02  0.10343263557E+03  0.00000000000E+00 0. -1.
         -4    1    6    6    0  503 -0.72482521585E+02 -0.39710467592E+03 -0.37452514926E+03  0.55064955008E+03  0.00000000000E+00 0.  1.
<mgrwt>
<rscale>  0 0.35686260E+04</rscale>
<asrwt>0</asrwt>
<pdfrwt beam="1">  1        2 0.32232223E+00 0.35686260E+04</pdfrwt>
<pdfrwt beam="2">  1       -1 0.23378955E+00 0.35686260E+04</pdfrwt>
<totfact> 0.48956688E-01</totfact>
</mgrwt>
</event>
<event>
12    6  0.1553355E-007  0.1238692E+04  0.7818608E-02  0.9079647E-01
          2   -1    0    0  501    0  0.00000000000E+00  0.00000000000E+00  0.63385923946E+03  0.63385923946E+03  0.00000000000E+00 0. -1.
         -1   -1    0    0    0  501 -0.00000000000E+00 -0.00000000000E+00 -0.60516548756E+03  0.60516548756E+03  0.00000000000E+00 0.  1.
         24    2    1    2    0    0  0.13420437396E+03  0.19908474756E+03 -0.13437582301E+03  0.28825533349E+03  0.85957691778E+02 0.  0.
        254    2    1    2    0    0 -0.13420437396E+03 -0.19908474756E+03  0.16306957492E+03  0.95076939353E+03  0.90538676968E+03 0.  0.
         23    2    4    4    0    0 -0.90101295005E+02 -0.44777652987E+02 -0.36558500603E+03  0.39032199241E+03  0.92604425146E+02 0.  0.
         23    2    4    4    0    0 -0.44103078952E+02 -0.15430709457E+03  0.52865458094E+03  0.56044740112E+03  0.94179947266E+02 0.  0.
          2    1    3    3  502    0 -0.70141688034E+00  0.61996462934E+02 -0.42000175243E+02  0.74887035743E+02  0.00000000000E+00 0. -1.
         -1    1    3    3    0  502  0.13490579084E+03  0.13708828463E+03 -0.92375647770E+02  0.21336829775E+03  0.00000000000E+00 0.  1.
         11    1    5    5    0    0 -0.81809605078E+02 -0.49396127512E+02 -0.36826254539E+03  0.38046036750E+03  0.00000000000E+00 0. -1.
        -11    1    5    5    0    0 -0.82916899271E+01  0.46184745258E+01  0.26775393675E+01  0.98616249095E+01  0.00000000000E+00 0.  1.
          2    1    6    6  503    0 -0.66890777146E+02 -0.10650654613E+03  0.29188544755E+03  0.31782878241E+03  0.00000000000E+00 0. -1.
         -2    1    6    6    0  503  0.22787698194E+02 -0.47800548446E+02  0.23676913339E+03  0.24261861872E+03  0.00000000000E+00 0.  1.
<mgrwt>
<rscale>  0 0.12386924E+04</rscale>
<asrwt>0</asrwt>
<pdfrwt beam="1">  1        2 0.97516806E-01 0.12386924E+04</pdfrwt>
<pdfrwt beam="2">  1       -1 0.93102383E-01 0.12386924E+04</pdfrwt>
<totfact> 0.58467050E+01</totfact>
</mgrwt>
</event>
<event>
12    6  0.1553355E-007  0.1427842E+04  0.7818608E-02  0.8933908E-01
          2   -1    0    0  501    0  0.00000000000E+00  0.00000000000E+00  0.51192246609E+03  0.51192246609E+03  0.00000000000E+00 0. -1.
         -1   -1    0    0    0  501 -0.00000000000E+00 -0.00000000000E+00 -0.99562520819E+03  0.99562520819E+03  0.00000000000E+00 0.  1.
         24    2    1    2    0    0 -0.35063404753E+03 -0.18950731525E+03 -0.27939576847E+03  0.49290784800E+03  0.77710316956E+02 0.  0.
        254    2    1    2    0    0  0.35063404753E+03  0.18950731525E+03 -0.20430697363E+03  0.10146398263E+04  0.91043691696E+03 0.  0.
         23    2    4    4    0    0  0.17706360573E+03  0.22322071310E+03 -0.54445513776E+03  0.62110819342E+03  0.90360299172E+02 0.  0.
         23    2    4    4    0    0  0.17357044180E+03 -0.33713397849E+02  0.34014816413E+03  0.39353163285E+03  0.88899274638E+02 0.  0.
          2    1    3    3  502    0 -0.97424705341E-01 -0.77352711440E+01  0.20550367780E+01  0.80041918644E+01  0.00000000000E+00 0. -1.
         -1    1    3    3    0  502 -0.35053662282E+03 -0.18177204411E+03 -0.28145080525E+03  0.48490365614E+03  0.00000000000E+00 0.  1.
         11    1    5    5    0    0  0.12245633448E+03  0.10428191081E+03 -0.36621306341E+03  0.39997784762E+03  0.00000000000E+00 0. -1.
        -11    1    5    5    0    0  0.54607271248E+02  0.11893880229E+03 -0.17824207436E+03  0.22113034580E+03  0.00000000000E+00 0.  1.
          1    1    6    6  503    0  0.41784881642E+02  0.13619790662E+02  0.15670988801E+03  0.16275584177E+03  0.00000000000E+00 0. -1.
         -1    1    6    6    0  503  0.13178556016E+03 -0.47333188511E+02  0.18343827612E+03  0.23077579108E+03  0.00000000000E+00 0.  1.
<mgrwt>
<rscale>  0 0.14278416E+04</rscale>
<asrwt>0</asrwt>
<pdfrwt beam="1">  1        2 0.78757303E-01 0.14278416E+04</pdfrwt>
<pdfrwt beam="2">  1       -1 0.15317311E+00 0.14278416E+04</pdfrwt>
<totfact> 0.21932365E+01</totfact>
</mgrwt>
</event>
<event>
12    6  0.1553355E-007  0.1315535E+04  0.7818608E-02  0.9017335E-01
         -1   -1    0    0    0  501 -0.00000000000E+00  0.00000000000E+00  0.20063170173E+03  0.20063170173E+03  0.00000000000E+00 0.  1.
          2   -1    0    0  501    0  0.00000000000E+00 -0.00000000000E+00 -0.21564800810E+04  0.21564800810E+04  0.00000000000E+00 0. -1.
         24    2    1    2    0    0  0.33215560477E+03  0.34981302735E+02 -0.70355595233E+03  0.78302262708E+03  0.81132109200E+02 0.  0.
        254    2    1    2    0    0 -0.33215560477E+03 -0.34981302735E+02 -0.12522924269E+04  0.15740891556E+04  0.89329127949E+03 0.  0.
         23    2    4    4    0    0 -0.51993998631E+03  0.25705929488E+03 -0.86984280991E+03  0.10494217919E+04  0.90788286472E+02 0.  0.
         23    2    4    4    0    0  0.18778438155E+03 -0.29204059762E+03 -0.38244961703E+03  0.52466736372E+03  0.91964386454E+02 0.  0.
          2    1    3    3  502    0  0.69227158690E+02  0.19764901714E+02 -0.23188438403E+03  0.24280325039E+03  0.00000000000E+00 0. -1.
         -1    1    3    3    0  502  0.26292844608E+03  0.15216401022E+02 -0.47167156829E+03  0.54021937669E+03  0.00000000000E+00 0.  1.
         11    1    5    5    0    0 -0.49992147463E+03  0.24719720655E+03 -0.86006903404E+03  0.10250593559E+04  0.00000000000E+00 0. -1.
        -11    1    5    5    0    0 -0.20018511679E+02  0.98620883343E+01 -0.97737758711E+01  0.24362436063E+02  0.00000000000E+00 0.  1.
          1    1    6    6  503    0  0.16740518514E+03 -0.23614882415E+03 -0.26245296543E+03  0.39073305750E+03  0.00000000000E+00 0. -1.
         -1    1    6    6    0  503  0.20379196404E+02 -0.55891773467E+02 -0.11999665160E+03  0.13393430622E+03  0.00000000000E+00 0.  1.
<mgrwt>
<rscale>  0 0.13155353E+04</rscale>
<asrwt>0</asrwt>
<pdfrwt beam="1">  1        2 0.33176615E+00 0.13155353E+04</pdfrwt>
<pdfrwt beam="2">  1       -1 0.30866417E-01 0.13155353E+04</pdfrwt>
<totfact> 0.59231423E+01</totfact>
</mgrwt>
</event>
<event>
12    6  0.1553355E-007  0.1696868E+04  0.7818608E-02  0.8763152E-01
         -1   -1    0    0    0  501 -0.00000000000E+00  0.00000000000E+00  0.29722905175E+03  0.29722905175E+03  0.00000000000E+00 0.  1.
          2   -1    0    0  501    0  0.00000000000E+00 -0.00000000000E+00 -0.24218380759E+04  0.24218380759E+04  0.00000000000E+00 0. -1.
         24    2    1    2    0    0 -0.38729260496E+03  0.41419088857E+03 -0.46973568451E+03  0.74220581499E+03  0.93103192584E+02 0.  0.
        254    2    1    2    0    0  0.38729260496E+03 -0.41419088857E+03 -0.16548733396E+04  0.19768613126E+04  0.92077425310E+03 0.  0.
         23    2    4    4    0    0  0.15738411599E+02 -0.15917554539E+03  0.66521290748E+02  0.19512262056E+03  0.89795339970E+02 0.  0.
         23    2    4    4    0    0  0.37155419336E+03 -0.25501534317E+03 -0.17213946304E+04  0.17817386921E+04  0.91147953982E+02 0.  0.
          4    1    3    3  502    0 -0.28749238202E+03  0.32284543832E+03 -0.30513653153E+03  0.52914019847E+03  0.00000000000E+00 0. -1.
         -3    1    3    3    0  502 -0.99800222938E+02  0.91345450248E+02 -0.16459915298E+03  0.21306561651E+03  0.00000000000E+00 0.  1.
         11    1    5    5    0    0  0.25335236067E+02 -0.90738368828E+02  0.81316776478E+02  0.12444976457E+03  0.00000000000E+00 0.  1.
        -11    1    5    5    0    0 -0.95968244679E+01 -0.68437176566E+02 -0.14795485730E+02  0.70672855993E+02  0.00000000000E+00 0. -1.
          3    1    6    6  503    0  0.35569506481E+01 -0.46935064222E+01 -0.10573559213E+03  0.10589946338E+03  0.00000000000E+00 0. -1.
         -3    1    6    6    0  503  0.36799724271E+03 -0.25032183675E+03 -0.16156590382E+04  0.16758392287E+04  0.00000000000E+00 0.  1.
<mgrwt>
<rscale>  0 0.16968685E+04</rscale>
<asrwt>0</asrwt>
<pdfrwt beam="1">  1        2 0.37259048E+00 0.16968685E+04</pdfrwt>
<pdfrwt beam="2">  1       -1 0.45727545E-01 0.16968685E+04</pdfrwt>
<totfact> 0.19920506E+01</totfact>
</mgrwt>
</event>
<event>
12    6  0.1804521E-007  0.2553268E+04  0.7818608E-02  0.8384250E-01
         -1   -1    0    0    0  501 -0.00000000000E+00  0.00000000000E+00  0.96021307857E+03  0.96021307857E+03  0.00000000000E+00 0.  1.
          2   -1    0    0  501    0  0.00000000000E+00 -0.00000000000E+00 -0.16973259855E+04  0.16973259855E+04  0.00000000000E+00 0. -1.
         24    2    1    2    0    0 -0.16140245747E+03  0.55750220327E+03  0.67772815331E+03  0.89610674941E+03  0.82658312466E+02 0.  0.
        254    2    1    2    0    0  0.16140245747E+03 -0.55750220327E+03 -0.14148410603E+04  0.17614323147E+04  0.87407614859E+03 0.  0.
         23    2    4    4    0    0 -0.64430811680E+02 -0.35317329407E+03 -0.13960597967E+04  0.14442399311E+04  0.89237422359E+02 0.  0.
         23    2    4    4    0    0  0.22583326915E+03 -0.20432890920E+03 -0.18781263605E+02  0.31719238362E+03  0.86644698446E+02 0.  0.
          4    1    3    3  502    0 -0.35156482605E+02  0.40685360581E+02  0.73015767856E+02  0.90678438398E+02  0.00000000000E+00 0. -1.
         -3    1    3    3    0  502 -0.12624597487E+03  0.51681684269E+03  0.60471238545E+03  0.80542831101E+03  0.00000000000E+00 0.  1.
         11    1    5    5    0    0 -0.15761389449E+02 -0.29707700112E+02 -0.60631539106E+02  0.69333630928E+02  0.00000000000E+00 0.  1.
        -11    1    5    5    0    0 -0.48669422231E+02 -0.32346559396E+03 -0.13354282576E+04  0.13749063002E+04  0.00000000000E+00 0. -1.
          2    1    6    6  503    0  0.16551209501E+03 -0.19312366497E+03 -0.54238774208E+01  0.25440208728E+03  0.00000000000E+00 0. -1.
         -2    1    6    6    0  503  0.60321174141E+02 -0.11205244232E+02 -0.13357386184E+02  0.62790296335E+02  0.00000000000E+00 0.  1.
<mgrwt>
<rscale>  0 0.25532682E+04</rscale>
<asrwt>0</asrwt>
<pdfrwt beam="1">  1        2 0.26112707E+00 0.25532682E+04</pdfrwt>
<pdfrwt beam="2">  1       -1 0.14772509E+00 0.25532682E+04</pdfrwt>
<totfact> 0.36167537E+00</totfact>
</mgrwt>
</event>
<event>
12    6  0.1553355E-007  0.2062779E+04  0.7818608E-02  0.8577819E-01
         -1   -1    0    0    0  501 -0.00000000000E+00  0.00000000000E+00  0.47239158793E+03  0.47239158793E+03  0.00000000000E+00 0.  1.
          2   -1    0    0  501    0  0.00000000000E+00 -0.00000000000E+00 -0.22518686493E+04  0.22518686493E+04  0.00000000000E+00 0. -1.
         24    2    1    2    0    0 -0.62103549028E+03  0.16007418496E+03 -0.25080733450E+02  0.64703042460E+03  0.81917655555E+02 0.  0.
        254    2    1    2    0    0  0.62103549028E+03 -0.16007418496E+03 -0.17543963279E+04  0.20772298127E+04  0.90866297064E+03 0.  0.
         23    2    4    4    0    0  0.46604650913E+03 -0.39397149335E+02 -0.21503548949E+03  0.52271468074E+03  0.90768340732E+02 0.  0.
         23    2    4    4    0    0  0.15498898115E+03 -0.12067703562E+03 -0.15393608385E+04  0.15545151319E+04  0.91109676625E+02 0.  0.
          4    1    3    3  502    0  0.13914242461E+00  0.10629378987E+01  0.50074658867E+01  0.51209288413E+01  0.00000000000E+00 0. -1.
         -3    1    3    3    0  502 -0.62117463270E+03  0.15901124706E+03 -0.30088199337E+02  0.64190949576E+03  0.00000000000E+00 0.  1.
         11    1    5    5    0    0  0.14995257507E+03 -0.53235627982E+02 -0.87387596888E+02  0.18153897363E+03  0.00000000000E+00 0. -1.
        -11    1    5    5    0    0  0.31609393405E+03  0.13838478647E+02 -0.12764789260E+03  0.34117570711E+03  0.00000000000E+00 0.  1.
          1    1    6    6  503    0  0.32427793756E+02 -0.65656415757E+02 -0.77367682003E+03  0.77713457560E+03  0.00000000000E+00 0. -1.
         -1    1    6    6    0  503  0.12256118740E+03 -0.55020619864E+02 -0.76568401842E+03  0.77738055632E+03  0.00000000000E+00 0.  1.
<mgrwt>
<rscale>  0 0.20627785E+04</rscale>
<asrwt>0</asrwt>
<pdfrwt beam="1">  1        2 0.34644132E+00 0.20627785E+04</pdfrwt>
<pdfrwt beam="2">  1       -1 0.72675630E-01 0.20627785E+04</pdfrwt>
<totfact> 0.96981459E+00</totfact>
</mgrwt>
</event>
<event>
12    6  0.1553355E-007  0.2589675E+04  0.7818608E-02  0.8371717E-01
          2   -1    0    0  501    0  0.00000000000E+00  0.00000000000E+00  0.20482741753E+04  0.20482741753E+04  0.00000000000E+00 0. -1.
         -1   -1    0    0    0  501 -0.00000000000E+00 -0.00000000000E+00 -0.81854489239E+03  0.81854489239E+03  0.00000000000E+00 0.  1.
         24    2    1    2    0    0 -0.11118437800E+04 -0.11322628130E+03  0.30122308315E+03  0.11603427436E+04  0.81505550934E+02 0.  0.
        254    2    1    2    0    0  0.11118437800E+04  0.11322628130E+03  0.92850619975E+03  0.17064763241E+04  0.89494184151E+03 0.  0.
         23    2    4    4    0    0  0.26407285874E+03  0.43456461610E+03  0.40177280179E+03  0.65435119917E+03  0.90405903082E+02 0.  0.
         23    2    4    4    0    0  0.84777092129E+03 -0.32133833481E+03  0.52673339796E+03  0.10521251249E+04  0.86863948303E+02 0.  0.
          2    1    3    3  502    0 -0.16473625372E+03 -0.24218555784E+02  0.16268351048E+02  0.16729982361E+03  0.00000000000E+00 0. -1.
         -1    1    3    3    0  502 -0.94710752631E+03 -0.89007725511E+02  0.28495473210E+03  0.99304291999E+03  0.00000000000E+00 0.  1.
         11    1    5    5    0    0  0.13971731796E+03  0.30995712604E+03  0.27750723015E+03  0.43886741928E+03  0.00000000000E+00 0.  1.
        -11    1    5    5    0    0  0.12435554078E+03  0.12460749006E+03  0.12426557164E+03  0.21548377989E+03  0.00000000000E+00 0. -1.
          1    1    6    6  503    0  0.42424790845E+03 -0.19832612043E+03  0.30078223281E+03  0.55658736011E+03  0.00000000000E+00 0. -1.
         -1    1    6    6    0  503  0.42352301285E+03 -0.12301221438E+03  0.22595116516E+03  0.49553776479E+03  0.00000000000E+00 0.  1.
<mgrwt>
<rscale>  0 0.25896752E+04</rscale>
<asrwt>0</asrwt>
<pdfrwt beam="1">  1        2 0.31511910E+00 0.25896752E+04</pdfrwt>
<pdfrwt beam="2">  1       -1 0.12592998E+00 0.25896752E+04</pdfrwt>
<totfact> 0.34747681E+00</totfact>
</mgrwt>
</event>
<event>
12    6  0.1553355E-007  0.2639065E+04  0.7818608E-02  0.8355052E-01
          2   -1    0    0  501    0  0.00000000000E+00  0.00000000000E+00  0.22008075218E+04  0.22008075218E+04  0.00000000000E+00 0. -1.
         -1   -1    0    0    0  501 -0.00000000000E+00 -0.00000000000E+00 -0.79114844828E+03  0.79114844828E+03  0.00000000000E+00 0.  1.
         24    2    1    2    0    0  0.53747206245E+03 -0.31072149135E+03 -0.49501135699E+03  0.79790762577E+03  0.78716406161E+02 0.  0.
        254    2    1    2    0    0 -0.53747206245E+03  0.31072149135E+03  0.19046704305E+04  0.21940483443E+04  0.89479306277E+03 0.  0.
         23    2    4    4    0    0 -0.66018097773E+03 -0.42045099332E+02  0.91849638896E+03  0.11354397078E+04  0.89336440953E+02 0.  0.
         23    2    4    4    0    0  0.12270891527E+03  0.35276659068E+03  0.98617404157E+03  0.10586086366E+04  0.92796873650E+02 0.  0.
          4    1    3    3  502    0  0.54924390042E+02 -0.60162704840E+02 -0.52967297902E+02  0.97168792944E+02  0.00000000000E+00 0. -1.
         -3    1    3    3    0  502  0.48254767241E+03 -0.25055878651E+03 -0.44204405909E+03  0.70073883282E+03  0.00000000000E+00 0.  1.
         11    1    5    5    0    0 -0.50946789923E+03  0.45679790387E+01  0.68720071422E+03  0.85546667288E+03  0.00000000000E+00 0. -1.
        -11    1    5    5    0    0 -0.15071307850E+03 -0.46613078371E+02  0.23129567474E+03  0.27997303488E+03  0.00000000000E+00 0.  1.
          3    1    6    6  503    0  0.44156012892E+02  0.16263982033E+03  0.56961689549E+03  0.59402430275E+03  0.00000000000E+00 0. -1.
         -3    1    6    6    0  503  0.78552902381E+02  0.19012677035E+03  0.41655714608E+03  0.46458433382E+03  0.00000000000E+00 0.  1.
<mgrwt>
<rscale>  0 0.26390646E+04</rscale>
<asrwt>0</asrwt>
<pdfrwt beam="1">  1        2 0.33858577E+00 0.26390646E+04</pdfrwt>
<pdfrwt beam="2">  1       -1 0.12171515E+00 0.26390646E+04</pdfrwt>
<totfact> 0.30923560E+00</totfact>
</mgrwt>
</event>
<event>
12    6  0.1553355E-007  0.1871618E+04  0.7818608E-02  0.8669114E-01
         -1   -1    0    0    0  501 -0.00000000000E+00  0.00000000000E+00  0.44743348912E+03  0.44743348912E+03  0.00000000000E+00 0.  1.
          2   -1    0    0  501    0  0.00000000000E+00 -0.00000000000E+00 -0.19572484705E+04  0.19572484705E+04  0.00000000000E+00 0. -1.
         24    2    1    2    0    0 -0.39994190664E+03 -0.54742144531E+03 -0.89502753778E+03  0.11255891186E+04  0.79074668129E+02 0.  0.
        254    2    1    2    0    0  0.39994190664E+03  0.54742144531E+03 -0.61478744355E+03  0.12790928409E+04  0.89358330755E+03 0.  0.
         23    2    4    4    0    0 -0.14303836779E+03  0.53952940958E+03 -0.37690766546E+03  0.67998068043E+03  0.93607579898E+02 0.  0.
         23    2    4    4    0    0  0.54298027442E+03  0.78920357257E+01 -0.23787977810E+03  0.59911216051E+03  0.86363935785E+02 0.  0.
          2    1    3    3  502    0 -0.36611929768E+03 -0.45451880291E+03 -0.77001888689E+03  0.96620896730E+03  0.00000000000E+00 0. -1.
         -1    1    3    3    0  502 -0.33822608960E+02 -0.92902642400E+02 -0.12500865089E+03  0.15938015133E+03  0.00000000000E+00 0.  1.
         11    1    5    5    0    0  0.43327125799E+01  0.38756806301E+02 -0.56267348534E+01  0.39402063119E+02  0.00000000000E+00 0.  1.
        -11    1    5    5    0    0 -0.14737108037E+03  0.50077260328E+03 -0.37128093061E+03  0.64057861731E+03  0.00000000000E+00 0. -1.
          4    1    6    6  503    0  0.47482792133E+03 -0.12597867706E+02 -0.22925386521E+03  0.52742544105E+03  0.00000000000E+00 0. -1.
         -4    1    6    6    0  503  0.68152353090E+02  0.20489903432E+02 -0.86259128811E+01  0.71686719464E+02  0.00000000000E+00 0.  1.
<mgrwt>
<rscale>  0 0.18716180E+04</rscale>
<asrwt>0</asrwt>
<pdfrwt beam="1">  1        2 0.30111515E+00 0.18716180E+04</pdfrwt>
<pdfrwt beam="2">  1       -1 0.68835921E-01 0.18716180E+04</pdfrwt>
<totfact> 0.16109243E+01</totfact>
</mgrwt>
</event>
<event>
12    6  0.1553355E-007  0.1989634E+04  0.7818608E-02  0.8611482E-01
          2   -1    0    0  501    0  0.00000000000E+00  0.00000000000E+00  0.21655176067E+04  0.21655176067E+04  0.00000000000E+00 0. -1.
         -1   -1    0    0    0  501 -0.00000000000E+00 -0.00000000000E+00 -0.45700904078E+03  0.45700904078E+03  0.00000000000E+00 0.  1.
         24    2    1    2    0    0  0.96612874180E+02 -0.14822590266E+03 -0.33339208187E+03  0.38587174906E+03  0.80260580545E+02 0.  0.
        254    2    1    2    0    0 -0.96612874180E+02  0.14822590266E+03  0.20419006478E+04  0.22366548984E+04  0.89552326240E+03 0.  0.
         23    2    4    4    0    0  0.11916424481E+03  0.14687089182E+03  0.19893095542E+04  0.20003492093E+04  0.90957574285E+02 0.  0.
         23    2    4    4    0    0 -0.21577711899E+03  0.13550108342E+01  0.52591093559E+02  0.23630568916E+03  0.80702877731E+02 0.  0.
          2    1    3    3  502    0  0.18583672239E+02 -0.19723332549E+01 -0.72969745005E+01  0.20062123746E+02  0.00000000000E+00 0. -1.
         -1    1    3    3    0  502  0.78029201942E+02 -0.14625356940E+03 -0.32609510737E+03  0.36580962531E+03  0.00000000000E+00 0.  1.
         11    1    5    5    0    0 -0.12247110356E+02  0.19694494516E+02  0.37454467240E+03  0.37526201040E+03  0.00000000000E+00 0.  1.
        -11    1    5    5    0    0  0.13141135516E+03  0.12717639731E+03  0.16147648818E+04  0.16250871989E+04  0.00000000000E+00 0. -1.
          4    1    6    6  503    0 -0.67936617280E+02 -0.34592215415E+02  0.30582881179E+01  0.76297827368E+02  0.00000000000E+00 0.  1.
         -4    1    6    6    0  503 -0.14784050171E+03  0.35947226249E+02  0.49532805441E+02  0.16000786179E+03  0.00000000000E+00 0. -1.
<mgrwt>
<rscale>  0 0.19896343E+04</rscale>
<asrwt>0</asrwt>
<pdfrwt beam="1">  1        2 0.33315655E+00 0.19896343E+04</pdfrwt>
<pdfrwt beam="2">  1       -1 0.70309085E-01 0.19896343E+04</pdfrwt>
<totfact> 0.11687193E+01</totfact>
</mgrwt>
</event>
<event>
12    6  0.1553355E-007  0.1197667E+04  0.7818608E-02  0.9114901E-01
          2   -1    0    0  501    0  0.00000000000E+00  0.00000000000E+00  0.89853918623E+03  0.89853918623E+03  0.00000000000E+00 0. -1.
         -1   -1    0    0    0  501 -0.00000000000E+00 -0.00000000000E+00 -0.39909390851E+03  0.39909390851E+03  0.00000000000E+00 0.  1.
         24    2    1    2    0    0 -0.47785238543E+02  0.15261495604E+03  0.28651675099E+03  0.33745073950E+03  0.78780702967E+02 0.  0.
        254    2    1    2    0    0  0.47785238543E+02 -0.15261495604E+03  0.21292852673E+03  0.96018235524E+03  0.92251658196E+03 0.  0.
         23    2    4    4    0    0  0.37553227420E+03 -0.38132988994E+02 -0.17929723548E+03  0.42835232812E+03  0.94125472313E+02 0.  0.
         23    2    4    4    0    0 -0.32774703566E+03 -0.11448196704E+03  0.39222576221E+03  0.53183002712E+03  0.92075452986E+02 0.  0.
          2    1    3    3  502    0 -0.54803329939E+02  0.12968326377E+03  0.18135012209E+03  0.22958445212E+03  0.00000000000E+00 0. -1.
         -1    1    3    3    0  502  0.70180913964E+01  0.22931692264E+02  0.10516662891E+03  0.10786628738E+03  0.00000000000E+00 0.  1.
         11    1    5    5    0    0  0.15370510682E+03 -0.56213034670E+02 -0.10151679689E+03  0.19258978473E+03  0.00000000000E+00 0. -1.
        -11    1    5    5    0    0  0.22182716739E+03  0.18080045676E+02 -0.77780438583E+02  0.23576254340E+03  0.00000000000E+00 0.  1.
          2    1    6    6  503    0 -0.11547675438E+03  0.49555329880E+01  0.12888851830E+03  0.17312333251E+03  0.00000000000E+00 0. -1.
         -2    1    6    6    0  503 -0.21227028128E+03 -0.11943750003E+03  0.26333724391E+03  0.35870669461E+03  0.00000000000E+00 0.  1.
<mgrwt>
<rscale>  0 0.11976669E+04</rscale>
<asrwt>0</asrwt>
<pdfrwt beam="1">  1        2 0.13823680E+00 0.11976669E+04</pdfrwt>
<pdfrwt beam="2">  1       -1 0.61399063E-01 0.11976669E+04</pdfrwt>
<totfact> 0.89049777E+01</totfact>
</mgrwt>
</event>
<event>
12    6  0.1553355E-007  0.3281157E+04  0.7818608E-02  0.8167707E-01
         -1   -1    0    0    0  501 -0.00000000000E+00  0.00000000000E+00  0.19410088877E+04  0.19410088877E+04  0.00000000000E+00 0.  1.
          2   -1    0    0  501    0  0.00000000000E+00 -0.00000000000E+00 -0.13866490117E+04  0.13866490117E+04  0.00000000000E+00 0. -1.
         24    2    1    2    0    0  0.97148776064E+03 -0.39541980066E+03  0.13651336849E+04  0.17234560993E+04  0.81028765876E+02 0.  0.
        254    2    1    2    0    0 -0.97148776064E+03  0.39541980066E+03 -0.81077380885E+03  0.16042018001E+04  0.90330723368E+03 0.  0.
         23    2    4    4    0    0 -0.10527482028E+03 -0.16346864026E+03  0.89396707485E+02  0.23246865490E+03  0.90802643509E+02 0.  0.
         23    2    4    4    0    0 -0.86621294036E+03  0.55888844091E+03 -0.90017051634E+03  0.13717331452E+04  0.93079082828E+02 0.  0.
          4    1    3    3  502    0  0.62922489117E+02 -0.46324139564E+02  0.87488411644E+02  0.11730041652E+03  0.00000000000E+00 0. -1.
         -3    1    3    3    0  502  0.90856527152E+03 -0.34909566109E+03  0.12776452732E+04  0.16061556828E+04  0.00000000000E+00 0.  1.
         11    1    5    5    0    0 -0.49083467885E+02 -0.12621363163E+02  0.55943367204E+01  0.50988059691E+02  0.00000000000E+00 0. -1.
        -11    1    5    5    0    0 -0.56191352392E+02 -0.15084727709E+03  0.83802370765E+02  0.18148059520E+03  0.00000000000E+00 0.  1.
          3    1    6    6  503    0 -0.32609084056E+03  0.23315402059E+03 -0.29592610143E+03  0.49826528187E+03  0.00000000000E+00 0. -1.
         -3    1    6    6    0  503 -0.54012209980E+03  0.32573442033E+03 -0.60424441490E+03  0.87346786330E+03  0.00000000000E+00 0.  1.
<mgrwt>
<rscale>  0 0.32811571E+04</rscale>
<asrwt>0</asrwt>
<pdfrwt beam="1">  1        2 0.21333062E+00 0.32811571E+04</pdfrwt>
<pdfrwt beam="2">  1       -1 0.29861675E+00 0.32811571E+04</pdfrwt>
<totfact> 0.47293040E-01</totfact>
</mgrwt>
</event>
<event>
12    6  0.1553355E-007  0.2329925E+04  0.7818608E-02  0.8466215E-01
         -1   -1    0    0    0  501 -0.00000000000E+00  0.00000000000E+00  0.46032676365E+03  0.46032676365E+03  0.00000000000E+00 0.  1.
          2   -1    0    0  501    0  0.00000000000E+00 -0.00000000000E+00 -0.29482038102E+04  0.29482038102E+04  0.00000000000E+00 0. -1.
         24    2    1    2    0    0  0.30007708916E+03 -0.89561237435E+03 -0.14789509551E+04  0.17565809229E+04  0.78184568772E+02 0.  0.
        254    2    1    2    0    0 -0.30007708916E+03  0.89561237435E+03 -0.10089260915E+04  0.16519496509E+04  0.90489668280E+03 0.  0.
         23    2    4    4    0    0  0.12408521157E+03  0.56530767476E+03 -0.93179184186E+03  0.11007099603E+04  0.91413748285E+02 0.  0.
         23    2    4    4    0    0 -0.42416230073E+03  0.33030469958E+03 -0.77134249601E+02  0.55123969055E+03  0.94343267121E+02 0.  0.
          4    1    3    3  502    0  0.53916036607E+02 -0.10441376138E+03 -0.21995074671E+03  0.24937422390E+03  0.00000000000E+00 0. -1.
         -3    1    3    3    0  502  0.24616105255E+03 -0.79119861297E+03 -0.12590002084E+04  0.15072066990E+04  0.00000000000E+00 0.  1.
         11    1    5    5    0    0 -0.57805861169E+01  0.12080917753E+03 -0.15867853659E+03  0.19951729380E+03  0.00000000000E+00 0.  1.
        -11    1    5    5    0    0  0.12986579769E+03  0.44449849723E+03 -0.77311330527E+03  0.90119266655E+03  0.00000000000E+00 0. -1.
          1    1    6    6  503    0 -0.28899045101E+03  0.26644938562E+03 -0.28832147360E+02  0.39413455645E+03  0.00000000000E+00 0. -1.
         -1    1    6    6    0  503 -0.13517184972E+03  0.63855313964E+02 -0.48302102241E+02  0.15710513410E+03  0.00000000000E+00 0.  1.
<mgrwt>
<rscale>  0 0.23299246E+04</rscale>
<asrwt>0</asrwt>
<pdfrwt beam="1">  1        2 0.45356981E+00 0.23299246E+04</pdfrwt>
<pdfrwt beam="2">  1       -1 0.70819503E-01 0.23299246E+04</pdfrwt>
<totfact> 0.38896838E+00</totfact>
</mgrwt>
</event>
<event>
12    6  0.1553355E-007  0.1564510E+04  0.7818608E-02  0.8842652E-01
         -1   -1    0    0    0  501 -0.00000000000E+00  0.00000000000E+00  0.31573926483E+03  0.31573926483E+03  0.00000000000E+00 0.  1.
          2   -1    0    0  501    0  0.00000000000E+00 -0.00000000000E+00 -0.19380641363E+04  0.19380641363E+04  0.00000000000E+00 0. -1.
         24    2    1    2    0    0  0.46769657668E+03  0.19353299061E+03 -0.66785835484E+03  0.84165456523E+03  0.78437993045E+02 0.  0.
        254    2    1    2    0    0 -0.46769657668E+03 -0.19353299061E+03 -0.95446651662E+03  0.14121488359E+04  0.90937500355E+03 0.  0.
         23    2    4    4    0    0  0.88088481580E+02 -0.23308732292E+03 -0.77572438743E+03  0.81968972759E+03  0.89742094727E+02 0.  0.
         23    2    4    4    0    0 -0.55578505826E+03  0.39554332308E+02 -0.17874212919E+03  0.59245910830E+03  0.92722543523E+02 0.  0.
          2    1    3    3  502    0  0.44154461640E+03  0.19549799965E+03 -0.60897302614E+03  0.77719319523E+03  0.00000000000E+00 0. -1.
         -1    1    3    3    0  502  0.26151960274E+02 -0.19650090388E+01 -0.58885328691E+02  0.64461369996E+02  0.00000000000E+00 0.  1.
         11    1    5    5    0    0  0.40128326519E+02 -0.20293602209E+03 -0.57297098029E+03  0.60917079371E+03  0.00000000000E+00 0.  1.
        -11    1    5    5    0    0  0.47960155061E+02 -0.30151300826E+02 -0.20275340714E+03  0.21051893388E+03  0.00000000000E+00 0. -1.
          4    1    6    6  503    0 -0.12266027842E+02 -0.13356756678E+02 -0.10904962665E+02  0.21160732470E+02  0.00000000000E+00 0. -1.
         -4    1    6    6    0  503 -0.54351903042E+03  0.52911088986E+02 -0.16783716652E+03  0.57129837583E+03  0.00000000000E+00 0.  1.
<mgrwt>
<rscale>  0 0.15645101E+04</rscale>
<asrwt>0</asrwt>
<pdfrwt beam="1">  1        2 0.29816371E+00 0.15645101E+04</pdfrwt>
<pdfrwt beam="2">  1       -1 0.48575271E-01 0.15645101E+04</pdfrwt>
<totfact> 0.33598492E+01</totfact>
</mgrwt>
</event>
<event>
12    6  0.1553355E-007  0.1876243E+04  0.7818608E-02  0.8666773E-01
         -1   -1    0    0    0  501 -0.00000000000E+00  0.00000000000E+00  0.50935092147E+03  0.50935092147E+03  0.00000000000E+00 0.  1.
          2   -1    0    0  501    0  0.00000000000E+00 -0.00000000000E+00 -0.17278296169E+04  0.17278296169E+04  0.00000000000E+00 0. -1.
         24    2    1    2    0    0 -0.57578475397E+03  0.17477017479E+03 -0.93697821506E+03  0.11165247994E+04  0.81404885186E+02 0.  0.
        254    2    1    2    0    0  0.57578475397E+03 -0.17477017479E+03 -0.28150048040E+03  0.11206557390E+04  0.90252649154E+03 0.  0.
         23    2    4    4    0    0 -0.83102953586E+02  0.17240297342E+03  0.14536515405E+03  0.25750018963E+03  0.92446922657E+02 0.  0.
         23    2    4    4    0    0  0.65888770756E+03 -0.34717314821E+03 -0.42686563445E+03  0.86315554935E+03  0.90338399843E+02 0.  0.
          2    1    3    3  502    0 -0.48896249305E+03  0.14594264740E+03 -0.84272703819E+03  0.98517634809E+03  0.00000000000E+00 0. -1.
         -1    1    3    3    0  502 -0.86822260921E+02  0.28827527383E+02 -0.94251176872E+02  0.13134845134E+03  0.00000000000E+00 0.  1.
         11    1    5    5    0    0 -0.21068461627E+02  0.16697708731E+02 -0.10268283491E+02  0.28777268773E+02  0.00000000000E+00 0.  1.
        -11    1    5    5    0    0 -0.62034491959E+02  0.15570526469E+03  0.15563343754E+03  0.22872292086E+03  0.00000000000E+00 0. -1.
          4    1    6    6  503    0  0.32588204851E+03 -0.22022874716E+03 -0.23990590906E+03  0.46071103288E+03  0.00000000000E+00 0. -1.
         -4    1    6    6    0  503  0.33300565905E+03 -0.12694440105E+03 -0.18695972539E+03  0.40244451646E+03  0.00000000000E+00 0.  1.
<mgrwt>
<rscale>  0 0.18762426E+04</rscale>
<asrwt>0</asrwt>
<pdfrwt beam="1">  1        2 0.26581994E+00 0.18762426E+04</pdfrwt>
<pdfrwt beam="2">  1       -1 0.78361681E-01 0.18762426E+04</pdfrwt>
<totfact> 0.16486192E+01</totfact>
</mgrwt>
</event>
<event>
12    6  0.1553355E-007  0.2040153E+04  0.7818608E-02  0.8588074E-01
         -1   -1    0    0    0  501 -0.00000000000E+00  0.00000000000E+00  0.49304357336E+03  0.49304357336E+03  0.00000000000E+00 0.  1.
          2   -1    0    0  501    0  0.00000000000E+00 -0.00000000000E+00 -0.21104758139E+04  0.21104758139E+04  0.00000000000E+00 0. -1.
         24    2    1    2    0    0 -0.36508415563E+02  0.80503379718E+03 -0.86417722058E+03  0.11842515244E+04  0.78975473809E+02 0.  0.
        254    2    1    2    0    0  0.36508415563E+02 -0.80503379718E+03 -0.75325501993E+03  0.14192678628E+04  0.89303743617E+03 0.  0.
         23    2    4    4    0    0 -0.25056138653E+03 -0.69154280894E+03 -0.18150751250E+03  0.76335391508E+03  0.93550828711E+02 0.  0.
         23    2    4    4    0    0  0.28706980210E+03 -0.11349098823E+03 -0.57174750743E+03  0.65591394774E+03  0.89658345447E+02 0.  0.
          2    1    3    3  502    0 -0.30729338721E+02  0.79482993287E+03 -0.86081984443E+03  0.11720536332E+04  0.00000000000E+00 0. -1.
         -1    1    3    3    0  502 -0.57790768423E+01  0.10203864304E+02 -0.33573761472E+01  0.12197891231E+02  0.00000000000E+00 0.  1.
         11    1    5    5    0    0 -0.15686984207E+03 -0.33082484268E+03 -0.12213972174E+03  0.38596804986E+03  0.00000000000E+00 0. -1.
        -11    1    5    5    0    0 -0.93691544459E+02 -0.36071796627E+03 -0.59367790766E+02  0.37738586523E+03  0.00000000000E+00 0.  1.
          4    1    6    6  503    0  0.28832736987E+03 -0.10706060019E+03 -0.57190350539E+03  0.64935988774E+03  0.00000000000E+00 0. -1.
         -4    1    6    6    0  503 -0.12575677762E+01 -0.64303880467E+01  0.15599796238E+00  0.65540600018E+01  0.00000000000E+00 0.  1.
<mgrwt>
<rscale>  0 0.20401535E+04</rscale>
<asrwt>0</asrwt>
<pdfrwt beam="1">  1        2 0.32468858E+00 0.20401535E+04</pdfrwt>
<pdfrwt beam="2">  1       -1 0.75852859E-01 0.20401535E+04</pdfrwt>
<totfact> 0.10670174E+01</totfact>
</mgrwt>
</event>
<event>
12    6  0.1553355E-007  0.1085315E+04  0.7818608E-02  0.9219625E-01
          2   -1    0    0  501    0  0.00000000000E+00  0.00000000000E+00  0.28882778076E+04  0.28882778076E+04  0.00000000000E+00 0. -1.
         -1   -1    0    0    0  501 -0.00000000000E+00 -0.00000000000E+00 -0.10195587703E+03  0.10195587703E+03  0.00000000000E+00 0.  1.
         24    2    1    2    0    0  0.12002769277E+03 -0.74606072613E+02  0.27692720828E+03  0.32114280393E+03  0.80444444989E+02 0.  0.
        254    2    1    2    0    0 -0.12002769277E+03  0.74606072613E+02  0.25093947223E+04  0.26690908807E+04  0.89833821251E+03 0.  0.
         23    2    4    4    0    0 -0.12323312427E+02  0.47540721762E+03  0.13068363263E+04  0.13937664378E+04  0.92735175773E+02 0.  0.
         23    2    4    4    0    0 -0.10770438034E+03 -0.40080114501E+03  0.12025583960E+04  0.12753244429E+04  0.89799484844E+02 0.  0.
          2    1    3    3  502    0  0.64978590667E+02 -0.74663650744E+02  0.22347027759E+03  0.24440917118E+03  0.00000000000E+00 0. -1.
         -1    1    3    3    0  502  0.55049102102E+02  0.57578131406E-01  0.53456930687E+02  0.76733632756E+02  0.00000000000E+00 0.  1.
         11    1    5    5    0    0  0.76565813003E+01  0.43528052639E+03  0.12304932271E+04  0.13052361249E+04  0.00000000000E+00 0.  1.
        -11    1    5    5    0    0 -0.19979893727E+02  0.40126691233E+02  0.76343099229E+02  0.88530312902E+02  0.00000000000E+00 0. -1.
          4    1    6    6  503    0 -0.89783087010E+02 -0.19579586732E+03  0.53382851742E+03  0.57564738371E+03  0.00000000000E+00 0.  1.
         -4    1    6    6    0  503 -0.17921293332E+02 -0.20500527769E+03  0.66872987857E+03  0.69967705917E+03  0.00000000000E+00 0. -1.
<mgrwt>
<rscale>  0 0.10853145E+04</rscale>
<asrwt>0</asrwt>
<pdfrwt beam="1">  1        2 0.44435037E+00 0.10853145E+04</pdfrwt>
<pdfrwt beam="2">  1       -1 0.15685522E-01 0.10853145E+04</pdfrwt>
<totfact> 0.71928081E+01</totfact>
</mgrwt>
</event>
<event>
12    6  0.1553355E-007  0.1520127E+04  0.7818608E-02  0.8871178E-01
         -1   -1    0    0    0  501 -0.00000000000E+00  0.00000000000E+00  0.14671843324E+03  0.14671843324E+03  0.00000000000E+00 0.  1.
          2   -1    0    0  501    0  0.00000000000E+00 -0.00000000000E+00 -0.39374504392E+04  0.39374504392E+04  0.00000000000E+00 0. -1.
         24    2    1    2    0    0  0.38580718563E+03  0.94584525900E+02 -0.19751772388E+04  0.20162150940E+04  0.77490409743E+02 0.  0.
        254    2    1    2    0    0 -0.38580718563E+03 -0.94584525900E+02 -0.18155547672E+04  0.20679537784E+04  0.90686288941E+03 0.  0.
         23    2    4    4    0    0  0.61260284757E+02  0.84192140203E+02  0.43879696360E+02  0.14504968093E+03  0.90955171505E+02 0.  0.
         23    2    4    4    0    0 -0.44706747039E+03 -0.17877666610E+03 -0.18594344635E+04  0.19229040975E+04  0.90737118622E+02 0.  0.
          2    1    3    3  502    0  0.36616312738E+03  0.70663546990E+02 -0.18551729218E+04  0.18922831031E+04  0.00000000000E+00 0. -1.
         -1    1    3    3    0  502  0.19644058256E+02  0.23920978910E+02 -0.12000431702E+03  0.12393199087E+03  0.00000000000E+00 0.  1.
         11    1    5    5    0    0  0.25864644194E+02  0.62409442643E+02 -0.18544273708E+02  0.70055752352E+02  0.00000000000E+00 0. -1.
        -11    1    5    5    0    0  0.35395640563E+02  0.21782697560E+02  0.62423970068E+02  0.74993928573E+02  0.00000000000E+00 0.  1.
          2    1    6    6  503    0 -0.21709906929E+03 -0.52806905340E+02 -0.72972527324E+03  0.76316416946E+03  0.00000000000E+00 0. -1.
         -2    1    6    6    0  503 -0.22996840110E+03 -0.12596976076E+03 -0.11297091903E+04  0.11597399281E+04  0.00000000000E+00 0.  1.
<mgrwt>
<rscale>  0 0.15201270E+04</rscale>
<asrwt>0</asrwt>
<pdfrwt beam="1">  1        2 0.60576148E+00 0.15201270E+04</pdfrwt>
<pdfrwt beam="2">  1       -1 0.22572071E-01 0.15201270E+04</pdfrwt>
<totfact> 0.71896930E+00</totfact>
</mgrwt>
</event>
<event>
12    6  0.1553355E-007  0.1605085E+04  0.7818608E-02  0.8817430E-01
          2   -1    0    0  501    0  0.00000000000E+00  0.00000000000E+00  0.60439355720E+03  0.60439355720E+03  0.00000000000E+00 0. -1.
         -1   -1    0    0    0  501 -0.00000000000E+00 -0.00000000000E+00 -0.10656534877E+04  0.10656534877E+04  0.00000000000E+00 0.  1.
         24    2    1    2    0    0  0.27939155452E+03 -0.18490079423E+03 -0.59464980205E+03  0.68750049301E+03  0.82465728498E+02 0.  0.
        254    2    1    2    0    0 -0.27939155452E+03  0.18490079423E+03  0.13338987156E+03  0.98254655187E+03  0.91397862356E+03 0.  0.
         23    2    4    4    0    0  0.10891118145E+03  0.29802641007E+03 -0.25304864632E+03  0.41570589172E+03  0.89979911402E+02 0.  0.
         23    2    4    4    0    0 -0.38830273597E+03 -0.11312561584E+03  0.38643851788E+03  0.56684066016E+03  0.91636161988E+02 0.  0.
          2    1    3    3  502    0  0.32750890513E+02 -0.58819143006E+02 -0.13455753756E+03  0.15045944080E+03  0.00000000000E+00 0. -1.
         -3    1    3    3    0  502  0.24664066400E+03 -0.12608165122E+03 -0.46009226449E+03  0.53704105221E+03  0.00000000000E+00 0.  1.
         11    1    5    5    0    0  0.23445909485E+02  0.68824276631E+01 -0.32167489105E+02  0.40395864113E+02  0.00000000000E+00 0.  1.
        -11    1    5    5    0    0  0.85465271967E+02  0.29114398241E+03 -0.22088115722E+03  0.37531002760E+03  0.00000000000E+00 0. -1.
          1    1    6    6  503    0 -0.26721134481E+03 -0.48719767373E+02  0.20980907973E+03  0.34321329879E+03  0.00000000000E+00 0. -1.
         -1    1    6    6    0  503 -0.12109139115E+03 -0.64405848467E+02  0.17662943816E+03  0.22362736137E+03  0.00000000000E+00 0.  1.
<mgrwt>
<rscale>  0 0.16050845E+04</rscale>
<asrwt>0</asrwt>
<pdfrwt beam="1">  1        2 0.92983625E-01 0.16050845E+04</pdfrwt>
<pdfrwt beam="2">  1       -1 0.16394669E+00 0.16050845E+04</pdfrwt>
<totfact> 0.14691489E+01</totfact>
</mgrwt>
</event>
<event>
12    6  0.1553355E-007  0.2190946E+04  0.7818608E-02  0.8522206E-01
         -1   -1    0    0    0  501 -0.00000000000E+00  0.00000000000E+00  0.68150077039E+03  0.68150077039E+03  0.00000000000E+00 0.  1.
          2   -1    0    0  501    0  0.00000000000E+00 -0.00000000000E+00 -0.17609094340E+04  0.17609094340E+04  0.00000000000E+00 0. -1.
         24    2    1    2    0    0 -0.21287967075E+03  0.37397241825E+03 -0.12586492636E+04  0.13327638702E+04  0.82996633815E+02 0.  0.
        254    2    1    2    0    0  0.21287967075E+03 -0.37397241825E+03  0.17924059999E+03  0.11096463342E+04  0.10069829544E+04 0.  0.
         23    2    4    4    0    0  0.42785015965E+03 -0.14713990958E+03 -0.28505934973E+03  0.54266171447E+03  0.92287547237E+02 0.  0.
         23    2    4    4    0    0 -0.21497048890E+03 -0.22683250867E+03  0.46429994972E+03  0.56698461968E+03  0.90729364355E+02 0.  0.
          2    1    3    3  502    0 -0.19636227333E+03  0.36800943173E+03 -0.12332805152E+04  0.13019101019E+04  0.00000000000E+00 0. -1.
         -1    1    3    3    0  502 -0.16517397420E+02  0.59629865208E+01 -0.25368748366E+02  0.30853768319E+02  0.00000000000E+00 0.  1.
         11    1    5    5    0    0  0.39111175068E+03 -0.15345806332E+03 -0.23884029283E+03  0.48328300632E+03  0.00000000000E+00 0. -1.
        -11    1    5    5    0    0  0.36738408967E+02  0.63181537396E+01 -0.46219056903E+02  0.59378708146E+02  0.00000000000E+00 0.  1.
          4    1    6    6  503    0 -0.69858181512E+02 -0.13959897930E+03  0.22361123345E+03  0.27270868022E+03  0.00000000000E+00 0.  1.
         -4    1    6    6    0  503 -0.14511230739E+03 -0.87233529372E+02  0.24068871628E+03  0.29427593946E+03  0.00000000000E+00 0. -1.
<mgrwt>
<rscale>  0 0.21909460E+04</rscale>
<asrwt>0</asrwt>
<pdfrwt beam="1">  1        2 0.27090914E+00 0.21909460E+04</pdfrwt>
<pdfrwt beam="2">  1       -1 0.10484627E+00 0.21909460E+04</pdfrwt>
<totfact> 0.80708685E+00</totfact>
</mgrwt>
</event>
<event>
12    6  0.1553355E-007  0.2417652E+04  0.7818608E-02  0.8432924E-01
          2   -1    0    0  501    0  0.00000000000E+00  0.00000000000E+00  0.34611633709E+04  0.34611633709E+04  0.00000000000E+00 0. -1.
         -1   -1    0    0    0  501 -0.00000000000E+00 -0.00000000000E+00 -0.42218774237E+03  0.42218774237E+03  0.00000000000E+00 0.  1.
         24    2    1    2    0    0 -0.45651354428E+03 -0.52741645422E+03  0.25527429239E+04  0.26475473173E+04  0.80234840132E+02 0.  0.
        254    2    1    2    0    0  0.45651354428E+03  0.52741645422E+03  0.48623270470E+03  0.12358037960E+04  0.89678093584E+03 0.  0.
         23    2    4    4    0    0  0.61913530194E+03  0.32096578079E+03  0.61016437510E+03  0.93106596677E+03  0.90750841788E+02 0.  0.
         23    2    4    4    0    0 -0.16262175766E+03  0.20645067343E+03 -0.12393167040E+03  0.30473782927E+03  0.91860595658E+02 0.  0.
          4    1    3    3  502    0 -0.43666870287E+03 -0.48127510613E+03  0.24159947105E+04  0.25018664482E+04  0.00000000000E+00 0. -1.
         -3    1    3    3    0  502 -0.19844841414E+02 -0.46141348084E+02  0.13674821341E+03  0.14568086904E+03  0.00000000000E+00 0.  1.
         11    1    5    5    0    0  0.95777274780E+02  0.77531901978E+02  0.77031289050E+02  0.14532137379E+03  0.00000000000E+00 0. -1.
        -11    1    5    5    0    0  0.52335802716E+03  0.24343387881E+03  0.53313308605E+03  0.78574459297E+03  0.00000000000E+00 0.  1.
          4    1    6    6  503    0 -0.14424916673E+03  0.11987892856E+03 -0.10225001876E+03  0.21362079944E+03  0.00000000000E+00 0. -1.
         -4    1    6    6    0  503 -0.18372590929E+02  0.86571744871E+02 -0.21681651636E+02  0.91117029831E+02  0.00000000000E+00 0.  1.
<mgrwt>
<rscale>  0 0.24176524E+04</rscale>
<asrwt>0</asrwt>
<pdfrwt beam="1">  1        2 0.53248665E+00 0.24176524E+04</pdfrwt>
<pdfrwt beam="2">  1       -1 0.64951963E-01 0.24176524E+04</pdfrwt>
<totfact> 0.21274340E+00</totfact>
</mgrwt>
</event>
<event>
12    6  0.1553355E-007  0.1625048E+04  0.7818608E-02  0.8805306E-01
         -1   -1    0    0    0  501 -0.00000000000E+00  0.00000000000E+00  0.18030317111E+03  0.18030317111E+03  0.00000000000E+00 0.  1.
          2   -1    0    0  501    0  0.00000000000E+00 -0.00000000000E+00 -0.36615830148E+04  0.36615830148E+04  0.00000000000E+00 0. -1.
         24    2    1    2    0    0 -0.83755471747E+02  0.27445736897E+03 -0.23334977161E+04  0.23523431487E+04  0.77232582908E+02 0.  0.
        254    2    1    2    0    0  0.83755471747E+02 -0.27445736897E+03 -0.11477821276E+04  0.14895430372E+04  0.90498222126E+03 0.  0.
         23    2    4    4    0    0 -0.39518991133E+03 -0.19127680872E+03 -0.46839887312E+03  0.64930008885E+03  0.97114455469E+02 0.  0.
         23    2    4    4    0    0  0.47894538308E+03 -0.83180560249E+02 -0.67938325445E+03  0.84024294833E+03  0.90215964247E+02 0.  0.
          2    1    3    3  502    0 -0.89714452042E+02  0.22407977438E+03 -0.17366646814E+04  0.17533581049E+04  0.00000000000E+00 0. -1.
         -3    1    3    3    0  502  0.59589802948E+01  0.50377594595E+02 -0.59683303467E+03  0.59898504385E+03  0.00000000000E+00 0.  1.
         11    1    5    5    0    0 -0.28901777248E+02 -0.19897496307E+02 -0.70295187223E+01  0.35785991964E+02  0.00000000000E+00 0.  1.
        -11    1    5    5    0    0 -0.36628813409E+03 -0.17137931242E+03 -0.46136935440E+03  0.61351409689E+03  0.00000000000E+00 0. -1.
          3    1    6    6  503    0  0.46999914645E+03 -0.83705900094E+02 -0.68045342954E+03  0.83121762803E+03  0.00000000000E+00 0. -1.
         -3    1    6    6    0  503  0.89462366333E+01  0.52533984570E+00  0.10701750831E+01  0.90253203024E+01  0.00000000000E+00 0.  1.
<mgrwt>
<rscale>  0 0.16250477E+04</rscale>
<asrwt>0</asrwt>
<pdfrwt beam="1">  1        2 0.56332051E+00 0.16250477E+04</pdfrwt>
<pdfrwt beam="2">  1       -1 0.27738947E-01 0.16250477E+04</pdfrwt>
<totfact> 0.80539806E+00</totfact>
</mgrwt>
</event>
<event>
12    6  0.1553355E-007  0.1448826E+04  0.7818608E-02  0.8919215E-01
          2   -1    0    0  501    0  0.00000000000E+00  0.00000000000E+00  0.12604484387E+04  0.12604484387E+04  0.00000000000E+00 0. -1.
         -1   -1    0    0    0  501 -0.00000000000E+00 -0.00000000000E+00 -0.41633938905E+03  0.41633938905E+03  0.00000000000E+00 0.  1.
         24    2    1    2    0    0 -0.42023112761E+03 -0.30758367298E+02  0.10830490856E+03  0.44253361614E+03  0.81029441736E+02 0.  0.
        254    2    1    2    0    0  0.42023112761E+03  0.30758367298E+02  0.73580414107E+03  0.12342542116E+04  0.89690325400E+03 0.  0.
         23    2    4    4    0    0 -0.16542319960E+03  0.24573935084E+03  0.43548663454E+03  0.53585710870E+03  0.98699384821E+02 0.  0.
         23    2    4    4    0    0  0.58565432721E+03 -0.21498098355E+03  0.30031750653E+03  0.69839710289E+03  0.91433551470E+02 0.  0.
          2    1    3    3  502    0 -0.37341440153E+03 -0.37182123374E+02  0.70068956263E+02  0.38174662304E+03  0.00000000000E+00 0. -1.
         -1    1    3    3    0  502 -0.46816726081E+02  0.64237560759E+01  0.38235952295E+02  0.60786993107E+02  0.00000000000E+00 0.  1.
         11    1    5    5    0    0 -0.11561588445E+03  0.22491458297E+03  0.39218787302E+03  0.46665290111E+03  0.00000000000E+00 0. -1.
        -11    1    5    5    0    0 -0.49807315149E+02  0.20824767873E+02  0.43298761523E+02  0.69204207594E+02  0.00000000000E+00 0.  1.
          1    1    6    6  503    0  0.53401241353E+03 -0.17633499692E+03  0.24499763388E+03  0.61342247232E+03  0.00000000000E+00 0. -1.
         -1    1    6    6    0  503  0.51641913679E+02 -0.38645986626E+02  0.55319872644E+02  0.84974630568E+02  0.00000000000E+00 0.  1.
<mgrwt>
<rscale>  0 0.14488262E+04</rscale>
<asrwt>0</asrwt>
<pdfrwt beam="1">  1        2 0.19391514E+00 0.14488262E+04</pdfrwt>
<pdfrwt beam="2">  1       -1 0.64052214E-01 0.14488262E+04</pdfrwt>
<totfact> 0.47660998E+01</totfact>
</mgrwt>
</event>
<event>
12    6  0.1553355E-007  0.2670434E+04  0.7818608E-02  0.8344662E-01
         -1   -1    0    0    0  501 -0.00000000000E+00  0.00000000000E+00  0.26842390367E+04  0.26842390367E+04  0.00000000000E+00 0.  1.
          2   -1    0    0  501    0  0.00000000000E+00 -0.00000000000E+00 -0.66417478870E+03  0.66417478870E+03  0.00000000000E+00 0. -1.
         24    2    1    2    0    0 -0.42557492868E+03  0.96296300268E+03  0.22763972640E+03  0.10799692960E+04  0.78115752234E+02 0.  0.
        254    2    1    2    0    0  0.42557492868E+03 -0.96296300268E+03  0.17924245216E+04  0.22684445294E+04  0.90809864713E+03 0.  0.
         23    2    4    4    0    0  0.36571732267E+03 -0.43833994963E+03  0.15960727754E+04  0.16975647338E+04  0.91578650493E+02 0.  0.
         23    2    4    4    0    0  0.59857606017E+02 -0.52462305305E+03  0.19635174612E+03  0.57087979563E+03  0.92398333665E+02 0.  0.
          2    1    3    3  502    0 -0.29238102302E+03  0.74090213426E+03  0.16153813207E+03  0.81272209474E+03  0.00000000000E+00 0. -1.
         -1    1    3    3    0  502 -0.13319390567E+03  0.22206086842E+03  0.66101594327E+02  0.26724720123E+03  0.00000000000E+00 0.  1.
         11    1    5    5    0    0  0.36421410912E+03 -0.42747638526E+03  0.15866483636E+04  0.16831045740E+04  0.00000000000E+00 0. -1.
        -11    1    5    5    0    0  0.15032135464E+01 -0.10863564378E+02  0.94244118267E+01  0.14460159758E+02  0.00000000000E+00 0.  1.
          1    1    6    6  503    0  0.57703609111E+02 -0.49028755868E+03  0.15573969553E+03  0.51765475895E+03  0.00000000000E+00 0. -1.
         -1    1    6    6    0  503  0.21539969065E+01 -0.34335494374E+02  0.40612050593E+02  0.53225036684E+02  0.00000000000E+00 0.  1.
<mgrwt>
<rscale>  0 0.26704336E+04</rscale>
<asrwt>0</asrwt>
<pdfrwt beam="1">  1        2 0.10218074E+00 0.26704336E+04</pdfrwt>
<pdfrwt beam="2">  1       -1 0.41295985E+00 0.26704336E+04</pdfrwt>
<totfact> 0.25585391E-01</totfact>
</mgrwt>
</event>
<event>
12    6  0.1553355E-007  0.2157109E+04  0.7818608E-02  0.8536495E-01
          2   -1    0    0  501    0  0.00000000000E+00  0.00000000000E+00  0.25341924626E+04  0.25341924626E+04  0.00000000000E+00 0. -1.
         -1   -1    0    0    0  501 -0.00000000000E+00 -0.00000000000E+00 -0.45903378978E+03  0.45903378978E+03  0.00000000000E+00 0.  1.
         24    2    1    2    0    0  0.28467997096E+03 -0.20412295693E+02  0.20747824362E+04  0.20958281101E+04  0.79460440823E+02 0.  0.
        254    2    1    2    0    0 -0.28467997096E+03  0.20412295693E+02  0.37623664380E+00  0.89739814235E+03  0.85080193739E+03 0.  0.
         23    2    4    4    0    0 -0.49746288055E+03  0.89611134515E+02  0.22883333159E+03  0.56224451697E+03  0.90855546118E+02 0.  0.
         23    2    4    4    0    0  0.21278290959E+03 -0.69198838822E+02 -0.22845709495E+03  0.33515362539E+03  0.10035069740E+03 0.  0.
          2    1    3    3  502    0  0.12151160437E+03 -0.45950633703E+02  0.82088493196E+03  0.83110083760E+03  0.00000000000E+00 0. -1.
         -1    1    3    3    0  502  0.16316836658E+03  0.25538338010E+02  0.12538975043E+04  0.12647272725E+04  0.00000000000E+00 0.  1.
         11    1    5    5    0    0 -0.12949012997E+03 -0.15362284905E+02  0.69278152605E+02  0.14765891773E+03  0.00000000000E+00 0. -1.
        -11    1    5    5    0    0 -0.36797275057E+03  0.10497341942E+03  0.15955517899E+03  0.41458559923E+03  0.00000000000E+00 0.  1.
          1    1    6    6  503    0  0.49634755085E+02  0.25919226673E+02 -0.44609623993E+02  0.71592134878E+02  0.00000000000E+00 0. -1.
         -1    1    6    6    0  503  0.16314815450E+03 -0.95118065495E+02 -0.18384747096E+03  0.26356149051E+03  0.00000000000E+00 0.  1.
<mgrwt>
<rscale>  0 0.21571091E+04</rscale>
<asrwt>0</asrwt>
<pdfrwt beam="1">  1        2 0.38987575E+00 0.21571091E+04</pdfrwt>
<pdfrwt beam="2">  1       -1 0.70620585E-01 0.21571091E+04</pdfrwt>
<totfact> 0.70347267E+00</totfact>
</mgrwt>
</event>
<event>
12    6  0.1553355E-007  0.1341074E+04  0.7818608E-02  0.8997613E-01
         -1   -1    0    0    0  501 -0.00000000000E+00  0.00000000000E+00  0.27409928584E+03  0.27409928584E+03  0.00000000000E+00 0.  1.
          2   -1    0    0  501    0  0.00000000000E+00 -0.00000000000E+00 -0.16403533057E+04  0.16403533057E+04  0.00000000000E+00 0. -1.
         24    2    1    2    0    0  0.12480124106E+03 -0.33758159526E+02 -0.86570438423E+03  0.87891738602E+03  0.79603564411E+02 0.  0.
        254    2    1    2    0    0 -0.12480124106E+03  0.33758159526E+02 -0.50054963568E+03  0.10355352056E+04  0.89725596185E+03 0.  0.
         23    2    4    4    0    0  0.54206993194E+02 -0.38713716608E+03 -0.83153967432E+02  0.40961994844E+03  0.89779376207E+02 0.  0.
         23    2    4    4    0    0 -0.17900823425E+03  0.42089532560E+03 -0.41739566825E+03  0.62591525712E+03  0.91399902512E+02 0.  0.
          4    1    3    3  502    0  0.83325562971E+02 -0.48743129151E+02 -0.72673777395E+03  0.73312129567E+03  0.00000000000E+00 0. -1.
         -3    1    3    3    0  502  0.41475678085E+02  0.14984969626E+02 -0.13896661029E+03  0.14579609035E+03  0.00000000000E+00 0.  1.
         11    1    5    5    0    0  0.21421717538E+02 -0.30936571667E+02 -0.29708117367E+02  0.47943025419E+02  0.00000000000E+00 0. -1.
        -11    1    5    5    0    0  0.32785275656E+02 -0.35620059441E+03 -0.53445850065E+02  0.36167692302E+03  0.00000000000E+00 0.  1.
          3    1    6    6  503    0 -0.19642589272E+02  0.41197761635E+01 -0.14882108347E+02  0.24985616218E+02  0.00000000000E+00 0. -1.
         -3    1    6    6    0  503 -0.15936564498E+03  0.41677554944E+03 -0.40251355990E+03  0.60092964090E+03  0.00000000000E+00 0.  1.
<mgrwt>
<rscale>  0 0.13410737E+04</rscale>
<asrwt>0</asrwt>
<pdfrwt beam="1">  1        2 0.25236205E+00 0.13410737E+04</pdfrwt>
<pdfrwt beam="2">  1       -1 0.42169121E-01 0.13410737E+04</pdfrwt>
<totfact> 0.65145637E+01</totfact>
</mgrwt>
</event>
<event>
12    6  0.1553355E-007  0.2185742E+04  0.7818608E-02  0.8524386E-01
          2   -1    0    0  501    0  0.00000000000E+00  0.00000000000E+00  0.86444082112E+03  0.86444082112E+03  0.00000000000E+00 0. -1.
         -1   -1    0    0    0  501 -0.00000000000E+00 -0.00000000000E+00 -0.13816640760E+04  0.13816640760E+04  0.00000000000E+00 0.  1.
         24    2    1    2    0    0  0.46301822843E+03 -0.68775479839E+03 -0.58818704905E+03  0.10195494490E+04  0.78259387461E+02 0.  0.
        254    2    1    2    0    0 -0.46301822843E+03  0.68775479839E+03  0.70963794131E+02  0.12265554481E+04  0.90111589972E+03 0.  0.
         23    2    4    4    0    0 -0.44034379856E+03  0.44589323035E+03 -0.35622975539E+03  0.72659827981E+03  0.91224929680E+02 0.  0.
         23    2    4    4    0    0 -0.22674429873E+02  0.24186156804E+03  0.42719354952E+03  0.49995716834E+03  0.91933092809E+02 0.  0.
          2    1    3    3  502    0  0.24324903316E+03 -0.40270502837E+03 -0.37114365325E+03  0.59924038862E+03  0.00000000000E+00 0. -1.
         -1    1    3    3    0  502  0.21976919528E+03 -0.28504977002E+03 -0.21704339580E+03  0.42030906039E+03  0.00000000000E+00 0.  1.
         11    1    5    5    0    0 -0.41489729779E+03  0.42342776032E+03 -0.35813989175E+03  0.69260018625E+03  0.00000000000E+00 0. -1.
        -11    1    5    5    0    0 -0.25446500767E+02  0.22465470036E+02  0.19101363617E+01  0.33998093566E+02  0.00000000000E+00 0.  1.
          4    1    6    6  503    0 -0.54870446623E+02  0.10732297273E+03  0.21931385369E+03  0.25025497560E+03  0.00000000000E+00 0. -1.
         -4    1    6    6    0  503  0.32196016750E+02  0.13453859530E+03  0.20787969583E+03  0.24970219274E+03  0.00000000000E+00 0.  1.
<mgrwt>
<rscale>  0 0.21857418E+04</rscale>
<asrwt>0</asrwt>
<pdfrwt beam="1">  1        2 0.13299090E+00 0.21857418E+04</pdfrwt>
<pdfrwt beam="2">  1       -1 0.21256370E+00 0.21857418E+04</pdfrwt>
<totfact> 0.39985671E+00</totfact>
</mgrwt>
</event>
<event>
12    6  0.1553355E-007  0.2745984E+04  0.7818608E-02  0.8320237E-01
         -1   -1    0    0    0  501 -0.00000000000E+00  0.00000000000E+00  0.74180946400E+03  0.74180946400E+03  0.00000000000E+00 0.  1.
          2   -1    0    0  501    0  0.00000000000E+00 -0.00000000000E+00 -0.25412287769E+04  0.25412287769E+04  0.00000000000E+00 0. -1.
         24    2    1    2    0    0  0.84340180476E+03  0.69162087804E+03 -0.14637684747E+04  0.18272292735E+04  0.80514762158E+02 0.  0.
        254    2    1    2    0    0 -0.84340180476E+03 -0.69162087804E+03 -0.33565083814E+03  0.14558089674E+04  0.90390940990E+03 0.  0.
         23    2    4    4    0    0 -0.82135533269E+03 -0.47787157524E+03 -0.58024201013E+03  0.11173840102E+04  0.94235932295E+02 0.  0.
         23    2    4    4    0    0 -0.22046472077E+02 -0.21374930279E+03  0.24459117198E+03  0.33842495725E+03  0.92367737363E+02 0.  0.
          4    1    3    3  502    0  0.83742183260E+03  0.69029605692E+03 -0.14621443061E+04  0.18208926228E+04  0.00000000000E+00 0. -1.
         -3    1    3    3    0  502  0.59799721637E+01  0.13248211129E+01 -0.16241686849E+01  0.63366506908E+01  0.00000000000E+00 0.  1.
         11    1    5    5    0    0 -0.29762334354E+03 -0.21064716741E+03 -0.26031482207E+03  0.44801304707E+03  0.00000000000E+00 0.  1.
        -11    1    5    5    0    0 -0.52373198914E+03 -0.26722440784E+03 -0.31992718806E+03  0.66937096311E+03  0.00000000000E+00 0. -1.
          2    1    6    6  503    0  0.23338361495E+02 -0.13691594578E+02  0.16672784562E+02  0.31782394881E+02  0.00000000000E+00 0. -1.
         -2    1    6    6    0  503 -0.45384833572E+02 -0.20005770821E+03  0.22791838742E+03  0.30664256237E+03  0.00000000000E+00 0.  1.
<mgrwt>
<rscale>  0 0.27459844E+04</rscale>
<asrwt>0</asrwt>
<pdfrwt beam="1">  1        2 0.39095827E+00 0.27459844E+04</pdfrwt>
<pdfrwt beam="2">  1       -1 0.11412453E+00 0.27459844E+04</pdfrwt>
<totfact> 0.22877260E+00</totfact>
</mgrwt>
</event>
<event>
12    6  0.1553355E-007  0.2737426E+04  0.7818608E-02  0.8322963E-01
         -1   -1    0    0    0  501 -0.00000000000E+00  0.00000000000E+00  0.12028259566E+04  0.12028259566E+04  0.00000000000E+00 0.  1.
          2   -1    0    0  501    0  0.00000000000E+00 -0.00000000000E+00 -0.15574777921E+04  0.15574777921E+04  0.00000000000E+00 0. -1.
         24    2    1    2    0    0  0.59034440494E+03  0.11650935594E+03  0.90753685069E+03  0.10917070716E+04  0.78232015660E+02 0.  0.
        254    2    1    2    0    0 -0.59034440494E+03 -0.11650935594E+03 -0.12621886862E+04  0.16685966771E+04  0.91050186430E+03 0.  0.
         23    2    4    4    0    0 -0.26006084800E+03  0.34925675736E+03 -0.27075711650E+03  0.52068307587E+03  0.90495978576E+02 0.  0.
         23    2    4    4    0    0 -0.33028355695E+03 -0.46576611330E+03 -0.99143156966E+03  0.11479136012E+04  0.93508172293E+02 0.  0.
          4    1    3    3  502    0  0.20457668700E+03  0.52163156318E+01  0.28278723329E+03  0.34906654111E+03  0.00000000000E+00 0. -1.
         -3    1    3    3    0  502  0.38576771794E+03  0.11129304031E+03  0.62474961741E+03  0.74264053046E+03  0.00000000000E+00 0.  1.
         11    1    5    5    0    0 -0.87993714379E+01  0.29207578533E+01  0.60513990519E+01  0.11071548881E+02  0.00000000000E+00 0.  1.
        -11    1    5    5    0    0 -0.25126147656E+03  0.34633599951E+03 -0.27680851555E+03  0.50961152699E+03  0.00000000000E+00 0. -1.
          3    1    6    6  503    0 -0.25187528437E+03 -0.28169117214E+03 -0.62226330650E+03  0.72801284189E+03  0.00000000000E+00 0. -1.
         -3    1    6    6    0  503 -0.78408272572E+02 -0.18407494116E+03 -0.36916826316E+03  0.41990075934E+03  0.00000000000E+00 0.  1.
<mgrwt>
<rscale>  0 0.27374256E+04</rscale>
<asrwt>0</asrwt>
<pdfrwt beam="1">  1        2 0.23961197E+00 0.27374256E+04</pdfrwt>
<pdfrwt beam="2">  1       -1 0.18505015E+00 0.27374256E+04</pdfrwt>
<totfact> 0.22472076E+00</totfact>
</mgrwt>
</event>
<event>
12    6  0.1553355E-007  0.1684850E+04  0.7818608E-02  0.8770052E-01
          2   -1    0    0  501    0  0.00000000000E+00  0.00000000000E+00  0.26464435878E+04  0.26464435878E+04  0.00000000000E+00 0. -1.
         -1   -1    0    0    0  501 -0.00000000000E+00 -0.00000000000E+00 -0.26816361817E+03  0.26816361817E+03  0.00000000000E+00 0.  1.
         24    2    1    2    0    0  0.27615785985E+03  0.20330840991E+03  0.69960131659E+01  0.35403358700E+03  0.87711820335E+02 0.  0.
        254    2    1    2    0    0 -0.27615785985E+03 -0.20330840991E+03  0.23712839565E+04  0.25605736190E+04  0.90330071566E+03 0.  0.
         23    2    4    4    0    0 -0.31571327337E+03  0.26954540289E+03  0.15538366679E+04  0.16109558422E+04  0.91873499083E+02 0.  0.
         23    2    4    4    0    0  0.39555413519E+02 -0.47285381280E+03  0.81744728855E+03  0.94961777675E+03  0.91643294092E+02 0.  0.
          2    1    3    3  502    0 -0.35781337556E+00  0.17849195050E+02  0.11165767421E+02  0.21056974058E+02  0.00000000000E+00 0. -1.
         -1    1    3    3    0  502  0.27651567322E+03  0.18545921486E+03 -0.41697542553E+01  0.33297661294E+03  0.00000000000E+00 0.  1.
         11    1    5    5    0    0 -0.78904153962E+01  0.38783596625E+02  0.17775307663E+03  0.18210596441E+03  0.00000000000E+00 0. -1.
        -11    1    5    5    0    0 -0.30782285797E+03  0.23076180626E+03  0.13760835913E+04  0.14288498778E+04  0.00000000000E+00 0.  1.
          3    1    6    6  503    0  0.27669411961E+02 -0.32180041804E+02  0.71628499089E+02  0.83257392047E+02  0.00000000000E+00 0. -1.
         -3    1    6    6    0  503  0.11886001558E+02 -0.44067377099E+03  0.74581878946E+03  0.86636038470E+03  0.00000000000E+00 0.  1.
<mgrwt>
<rscale>  0 0.16848500E+04</rscale>
<asrwt>0</asrwt>
<pdfrwt beam="1">  1        2 0.40714515E+00 0.16848500E+04</pdfrwt>
<pdfrwt beam="2">  1       -1 0.41255943E-01 0.16848500E+04</pdfrwt>
<totfact> 0.17880689E+01</totfact>
</mgrwt>
</event>
<event>
12    6  0.1553355E-007  0.1857647E+04  0.7818608E-02  0.8676230E-01
         -1   -1    0    0    0  501 -0.00000000000E+00  0.00000000000E+00  0.11825133308E+04  0.11825133308E+04  0.00000000000E+00 0.  1.
          2   -1    0    0  501    0  0.00000000000E+00 -0.00000000000E+00 -0.72955855462E+03  0.72955855462E+03  0.00000000000E+00 0. -1.
         24    2    1    2    0    0 -0.39515424999E+03  0.42850806565E+03  0.58430356985E+03  0.82908482624E+03  0.78771465399E+02 0.  0.
        254    2    1    2    0    0  0.39515424999E+03 -0.42850806565E+03 -0.13134879365E+03  0.10829870592E+04  0.90323995770E+03 0.  0.
         23    2    4    4    0    0 -0.22052863087E+03  0.89950892595E+02 -0.96102489749E+02  0.27224932964E+03  0.90332545843E+02 0.  0.
         23    2    4    4    0    0  0.61568288086E+03 -0.51845895824E+03 -0.35246303896E+02  0.81073772956E+03  0.90489021584E+02 0.  0.
          4    1    3    3  502    0 -0.18965523640E+03  0.25771002093E+03  0.29415925698E+03  0.43464149830E+03  0.00000000000E+00 0. -1.
         -3    1    3    3    0  502 -0.20549901359E+03  0.17079804472E+03  0.29014431287E+03  0.39444332794E+03  0.00000000000E+00 0.  1.
         11    1    5    5    0    0 -0.79791409215E+02  0.79675352588E+02 -0.31668882911E+02  0.11712279428E+03  0.00000000000E+00 0. -1.
        -11    1    5    5    0    0 -0.14073722166E+03  0.10275540007E+02 -0.64433606838E+02  0.15512653536E+03  0.00000000000E+00 0.  1.
          4    1    6    6  503    0  0.37814496686E+03 -0.26364506577E+03 -0.35925292334E+02  0.46237751167E+03  0.00000000000E+00 0.  1.
         -4    1    6    6    0  503  0.23753791399E+03 -0.25481389247E+03  0.67898843779E+00  0.34836021789E+03  0.00000000000E+00 0. -1.
<mgrwt>
<rscale>  0 0.18576466E+04</rscale>
<asrwt>0</asrwt>
<pdfrwt beam="1">  1        2 0.11223978E+00 0.18576466E+04</pdfrwt>
<pdfrwt beam="2">  1       -1 0.18192513E+00 0.18576466E+04</pdfrwt>
<totfact> 0.84050136E+00</totfact>
</mgrwt>
</event>
<event>
12    6  0.1553355E-007  0.2379850E+04  0.7818608E-02  0.8447086E-01
          2   -1    0    0  501    0  0.00000000000E+00  0.00000000000E+00  0.28703075973E+04  0.28703075973E+04  0.00000000000E+00 0. -1.
         -1   -1    0    0    0  501 -0.00000000000E+00 -0.00000000000E+00 -0.49329943189E+03  0.49329943189E+03  0.00000000000E+00 0.  1.
         24    2    1    2    0    0  0.72290357548E+01 -0.49258701143E+03 -0.23197535115E+03  0.55544010666E+03  0.10957611853E+03 0.  0.
        254    2    1    2    0    0 -0.72290357548E+01  0.49258701143E+03  0.26089835166E+04  0.28081669225E+04  0.91450109476E+03 0.  0.
         23    2    4    4    0    0  0.33150327523E+03  0.37761574240E+03  0.71596024939E+03  0.87936058900E+03  0.90486995664E+02 0.  0.
         23    2    4    4    0    0 -0.33873231098E+03  0.11497126904E+03  0.18930232672E+04  0.19288063335E+04  0.93801977714E+02 0.  0.
          4    1    3    3  502    0 -0.23508451231E+02 -0.26933490013E+03 -0.74248167037E+02  0.28036891058E+03  0.00000000000E+00 0. -1.
         -3    1    3    3    0  502  0.30737486985E+02 -0.22325211130E+03 -0.15772718411E+03  0.27507119608E+03  0.00000000000E+00 0.  1.
         11    1    5    5    0    0  0.24117955541E+02  0.59706701694E+01  0.16811448134E+02  0.29999157823E+02  0.00000000000E+00 0. -1.
        -11    1    5    5    0    0  0.30738531969E+03  0.37164507223E+03  0.69914880126E+03  0.84936143118E+03  0.00000000000E+00 0.  1.
          4    1    6    6  503    0 -0.17277261055E+03  0.76747992633E+02  0.76578945641E+03  0.78878014737E+03  0.00000000000E+00 0. -1.
         -4    1    6    6    0  503 -0.16595970043E+03  0.38223276405E+02  0.11272338108E+04  0.11400261862E+04  0.00000000000E+00 0.  1.
<mgrwt>
<rscale>  0 0.23798497E+04</rscale>
<asrwt>0</asrwt>
<pdfrwt beam="1">  1        2 0.44158578E+00 0.23798497E+04</pdfrwt>
<pdfrwt beam="2">  1       -1 0.75892222E-01 0.23798497E+04</pdfrwt>
<totfact> 0.37451889E+00</totfact>
</mgrwt>
</event>
<event>
12    6  0.1553355E-007  0.5020221E+04  0.7818608E-02  0.7825395E-01
         -1   -1    0    0    0  501 -0.00000000000E+00  0.00000000000E+00  0.22613038731E+04  0.22613038731E+04  0.00000000000E+00 0.  1.
          2   -1    0    0  501    0  0.00000000000E+00 -0.00000000000E+00 -0.27862931276E+04  0.27862931276E+04  0.00000000000E+00 0. -1.
         24    2    1    2    0    0 -0.90430561745E+03  0.92778902940E+03 -0.22933726861E+04  0.26352769781E+04  0.81026793020E+02 0.  0.
        254    2    1    2    0    0  0.90430561745E+03 -0.92778902940E+03  0.17683834316E+04  0.24123200226E+04  0.10067506132E+04 0.  0.
         23    2    4    4    0    0  0.18546068617E+03 -0.78765110893E+03  0.13138853204E+04  0.15457342412E+04  0.90607802167E+02 0.  0.
         23    2    4    4    0    0  0.71884493127E+03 -0.14013792047E+03  0.45449811123E+03  0.86658578135E+03  0.89586334621E+02 0.  0.
          2    1    3    3  502    0 -0.85069578136E+03  0.84506219619E+03 -0.20999277228E+04  0.24181624984E+04  0.00000000000E+00 0. -1.
         -1    1    3    3    0  502 -0.53609836084E+02  0.82726833214E+02 -0.19344496331E+03  0.21711447969E+03  0.00000000000E+00 0.  1.
         11    1    5    5    0    0  0.15604359290E+03 -0.49683201216E+03  0.88098950198E+03  0.10233934501E+04  0.00000000000E+00 0.  1.
        -11    1    5    5    0    0  0.29417093269E+02 -0.29081909677E+03  0.43289581840E+03  0.52234079106E+03  0.00000000000E+00 0. -1.
          1    1    6    6  503    0  0.19332467216E+03 -0.29217746759E+02  0.16838305669E+03  0.25803286490E+03  0.00000000000E+00 0. -1.
         -1    1    6    6    0  503  0.52552025912E+03 -0.11092017371E+03  0.28611505454E+03  0.60855291645E+03  0.00000000000E+00 0.  1.
<mgrwt>
<rscale>  0 0.50202213E+04</rscale>
<asrwt>0</asrwt>
<pdfrwt beam="1">  1        2 0.42866048E+00 0.50202213E+04</pdfrwt>
<pdfrwt beam="2">  1       -1 0.34789290E+00 0.50202213E+04</pdfrwt>
<totfact> 0.31255860E-02</totfact>
</mgrwt>
</event>
<event>
12    6  0.1553355E-007  0.1895381E+04  0.7818608E-02  0.8657159E-01
          2   -1    0    0  501    0  0.00000000000E+00  0.00000000000E+00  0.26206391453E+04  0.26206391453E+04  0.00000000000E+00 0. -1.
         -1   -1    0    0    0  501 -0.00000000000E+00 -0.00000000000E+00 -0.34270938573E+03  0.34270938573E+03  0.00000000000E+00 0.  1.
         24    2    1    2    0    0  0.14930300802E+03  0.32015765089E+03 -0.11838633262E+03  0.38215522230E+03  0.85058688906E+02 0.  0.
        254    2    1    2    0    0 -0.14930300802E+03 -0.32015765089E+03  0.23963160922E+04  0.25811933088E+04  0.89187206130E+03 0.  0.
         23    2    4    4    0    0  0.73429103406E+02 -0.43253128876E+03  0.22147542840E+04  0.22595173923E+04  0.88358127954E+02 0.  0.
         23    2    4    4    0    0 -0.22273211142E+03  0.11237363788E+03  0.18156180821E+03  0.32167591642E+03  0.90957556332E+02 0.  0.
          2    1    3    3  502    0  0.43159675245E+02  0.15115286416E+03 -0.16436950586E+02  0.15805100207E+03  0.00000000000E+00 0. -1.
         -1    1    3    3    0  502  0.10614333277E+03  0.16900478672E+03 -0.10194938204E+03  0.22410422023E+03  0.00000000000E+00 0.  1.
         11    1    5    5    0    0  0.31498875475E+02 -0.30707171204E+03  0.13602745799E+04  0.13948591858E+04  0.00000000000E+00 0. -1.
        -11    1    5    5    0    0  0.41930227931E+02 -0.12545957672E+03  0.85447970409E+03  0.86465820652E+03  0.00000000000E+00 0.  1.
          3    1    6    6  503    0 -0.20358259471E+03  0.11606060122E+03  0.18873897697E+03  0.30089589138E+03  0.00000000000E+00 0. -1.
         -3    1    6    6    0  503 -0.19149516720E+02 -0.36869633429E+01 -0.71771687565E+01  0.20780025039E+02  0.00000000000E+00 0.  1.
<mgrwt>
<rscale>  0 0.18953814E+04</rscale>
<asrwt>0</asrwt>
<pdfrwt beam="1">  1        2 0.40317524E+00 0.18953814E+04</pdfrwt>
<pdfrwt beam="2">  1       -1 0.52724523E-01 0.18953814E+04</pdfrwt>
<totfact> 0.11458849E+01</totfact>
</mgrwt>
</event>
<event>
12    6  0.1553355E-007  0.2233932E+04  0.7818608E-02  0.8504436E-01
          2   -1    0    0  501    0  0.00000000000E+00  0.00000000000E+00  0.29298244956E+04  0.29298244956E+04  0.00000000000E+00 0. -1.
         -1   -1    0    0    0  501 -0.00000000000E+00 -0.00000000000E+00 -0.42583196220E+03  0.42583196220E+03  0.00000000000E+00 0.  1.
         24    2    1    2    0    0  0.43396717719E+03  0.42588002314E+03  0.21618029369E+04  0.22470741034E+04  0.79049246207E+02 0.  0.
        254    2    1    2    0    0 -0.43396717719E+03 -0.42588002314E+03  0.34218959655E+03  0.11085823544E+04  0.86148697700E+03 0.  0.
         23    2    4    4    0    0  0.23224811913E+03 -0.24156382450E+03  0.43028534561E+02  0.34978661398E+03  0.90592220349E+02 0.  0.
         23    2    4    4    0    0 -0.66621529632E+03 -0.18431619864E+03  0.29916106199E+03  0.75879574044E+03  0.91969302305E+02 0.  0.
          4    1    3    3  502    0  0.38932091726E+03  0.34828369569E+03  0.18932319640E+04  0.19639754527E+04  0.00000000000E+00 0. -1.
         -3    1    3    3    0  502  0.44646259928E+02  0.77596327453E+02  0.26857097286E+03  0.28309865069E+03  0.00000000000E+00 0.  1.
         11    1    5    5    0    0  0.23869226136E+02 -0.79849466948E+02  0.12004782258E+02  0.84200903352E+02  0.00000000000E+00 0.  1.
        -11    1    5    5    0    0  0.20837889299E+03 -0.16171435755E+03  0.31023752303E+02  0.26558571062E+03  0.00000000000E+00 0. -1.
          1    1    6    6  503    0 -0.37673221403E+03 -0.13994984973E+03  0.20510439263E+03  0.45119943861E+03  0.00000000000E+00 0. -1.
         -1    1    6    6    0  503 -0.28948308229E+03 -0.44366348912E+02  0.94056669368E+02  0.30759630183E+03  0.00000000000E+00 0.  1.
<mgrwt>
<rscale>  0 0.22339319E+04</rscale>
<asrwt>0</asrwt>
<pdfrwt beam="1">  1        2 0.45074222E+00 0.22339319E+04</pdfrwt>
<pdfrwt beam="2">  1       -1 0.65512611E-01 0.22339319E+04</pdfrwt>
<totfact> 0.47209988E+00</totfact>
</mgrwt>
</event>
<event>
12    6  0.1553355E-007  0.1219130E+04  0.7818608E-02  0.9096275E-01
         -1   -1    0    0    0  501 -0.00000000000E+00  0.00000000000E+00  0.21823047422E+03  0.21823047422E+03  0.00000000000E+00 0.  1.
          2   -1    0    0  501    0  0.00000000000E+00 -0.00000000000E+00 -0.17026485176E+04  0.17026485176E+04  0.00000000000E+00 0. -1.
         24    2    1    2    0    0 -0.12693381375E+03  0.94094661300E+02 -0.20925119069E+02  0.17793124889E+03  0.79092795911E+02 0.  0.
        254    2    1    2    0    0  0.12693381375E+03 -0.94094661300E+02 -0.14634929243E+04  0.17429477429E+04  0.93332164696E+03 0.  0.
         23    2    4    4    0    0 -0.18915579420E+03  0.35683023866E+02 -0.13570816539E+04  0.13738979174E+04  0.94189593450E+02 0.  0.
         23    2    4    4    0    0  0.31608960795E+03 -0.12977768517E+03 -0.10641127042E+03  0.36904982550E+03  0.90108420276E+02 0.  0.
          2    1    3    3  502    0  0.16380429268E+00 -0.79584795402E+01  0.92065810035E+01  0.12170676325E+02  0.00000000000E+00 0. -1.
         -1    1    3    3    0  502 -0.12709761804E+03  0.10205314084E+03 -0.30131700072E+02  0.16576057256E+03  0.00000000000E+00 0.  1.
         11    1    5    5    0    0 -0.76249775853E+02 -0.26094043365E+02 -0.67363846480E+03  0.67844211888E+03  0.00000000000E+00 0.  1.
        -11    1    5    5    0    0 -0.11290601835E+03  0.61777067231E+02 -0.68344318907E+03  0.69545579852E+03  0.00000000000E+00 0. -1.
          4    1    6    6  503    0  0.17010134963E+03 -0.38573493679E+02 -0.17466851189E+02  0.17529253964E+03  0.00000000000E+00 0. -1.
         -4    1    6    6    0  503  0.14598825832E+03 -0.91204191487E+02 -0.88944419231E+02  0.19375728586E+03  0.00000000000E+00 0.  1.
<mgrwt>
<rscale>  0 0.12191305E+04</rscale>
<asrwt>0</asrwt>
<pdfrwt beam="1">  1        2 0.26194594E+00 0.12191305E+04</pdfrwt>
<pdfrwt beam="2">  1       -1 0.33573918E-01 0.12191305E+04</pdfrwt>
<totfact> 0.91725558E+01</totfact>
</mgrwt>
</event>
<event>
12    6  0.1553355E-007  0.1459330E+04  0.7818608E-02  0.8911957E-01
          2   -1    0    0  501    0  0.00000000000E+00  0.00000000000E+00  0.17657992878E+04  0.17657992878E+04  0.00000000000E+00 0. -1.
         -1   -1    0    0    0  501 -0.00000000000E+00 -0.00000000000E+00 -0.30151287434E+03  0.30151287434E+03  0.00000000000E+00 0.  1.
         24    2    1    2    0    0 -0.35030556096E+03 -0.19286876372E+03  0.16624218235E+03  0.44044415888E+03  0.80263614699E+02 0.  0.
        254    2    1    2    0    0  0.35030556096E+03  0.19286876372E+03  0.12980442311E+04  0.16268680033E+04  0.89547100905E+03 0.  0.
         23    2    4    4    0    0 -0.25181106739E+03  0.24811654127E+03  0.40989148454E+03  0.54859646933E+03  0.89310835566E+02 0.  0.
         23    2    4    4    0    0  0.60211662835E+03 -0.55247777544E+02  0.88815274658E+03  0.10782715339E+04  0.90870504529E+02 0.  0.
          2    1    3    3  502    0 -0.63904205642E+02 -0.57109257321E+02  0.76857374663E+01  0.86048157045E+02  0.00000000000E+00 0. -1.
         -1    1    3    3    0  502 -0.28640135532E+03 -0.13575950640E+03  0.15855644488E+03  0.35439600184E+03  0.00000000000E+00 0.  1.
         11    1    5    5    0    0 -0.12900004514E+02 -0.65854563311E+01  0.95538072225E+01  0.17350895769E+02  0.00000000000E+00 0. -1.
        -11    1    5    5    0    0 -0.23891106287E+03  0.25470199760E+03  0.40033767732E+03  0.53124557356E+03  0.00000000000E+00 0.  1.
          1    1    6    6  503    0  0.32984248014E+03  0.10982999304E+01  0.53927219689E+03  0.63214853500E+03  0.00000000000E+00 0. -1.
         -1    1    6    6    0  503  0.27227414821E+03 -0.56346077474E+02  0.34888054968E+03  0.44612299894E+03  0.00000000000E+00 0.  1.
<mgrwt>
<rscale>  0 0.14593303E+04</rscale>
<asrwt>0</asrwt>
<pdfrwt beam="1">  1        2 0.27166142E+00 0.14593303E+04</pdfrwt>
<pdfrwt beam="2">  1       -1 0.46386597E-01 0.14593303E+04</pdfrwt>
<totfact> 0.46044690E+01</totfact>
</mgrwt>
</event>
<event>
12    6  0.1553355E-007  0.1225790E+04  0.7818608E-02  0.9090577E-01
         -1   -1    0    0    0  501 -0.00000000000E+00  0.00000000000E+00  0.35675425846E+03  0.35675425846E+03  0.00000000000E+00 0.  1.
          2   -1    0    0  501    0  0.00000000000E+00 -0.00000000000E+00 -0.10529392324E+04  0.10529392324E+04  0.00000000000E+00 0. -1.
         24    2    1    2    0    0 -0.10799476184E+03 -0.12590154302E+03 -0.40721923895E+03  0.44667830113E+03  0.78612524462E+02 0.  0.
        254    2    1    2    0    0  0.10799476184E+03  0.12590154302E+03 -0.28896573501E+03  0.96301518976E+03  0.90353914834E+03 0.  0.
         23    2    4    4    0    0  0.17902577178E+03  0.18243648822E+03 -0.58164419441E+03  0.64325570282E+03  0.10067090508E+03 0.  0.
         23    2    4    4    0    0 -0.71031009937E+02 -0.56534945199E+02  0.29267845939E+03  0.31975948694E+03  0.91344646774E+02 0.  0.
          4    1    3    3  502    0 -0.11955122824E+02 -0.26454264265E+02 -0.16710188383E+03  0.16960481314E+03  0.00000000000E+00 0. -1.
         -3    1    3    3    0  502 -0.96039639020E+02 -0.99447278754E+02 -0.24011735512E+03  0.27707348799E+03  0.00000000000E+00 0.  1.
         11    1    5    5    0    0  0.83049486944E+02  0.80270826213E+02 -0.14934321132E+03  0.18879623299E+03  0.00000000000E+00 0. -1.
        -11    1    5    5    0    0  0.95976284837E+02  0.10216566201E+03 -0.43230098309E+03  0.45445946983E+03  0.00000000000E+00 0.  1.
          1    1    6    6  503    0 -0.53452466723E+01 -0.12100416257E+02 -0.30558484577E+01  0.13576816467E+02  0.00000000000E+00 0. -1.
         -1    1    6    6    0  503 -0.65685763265E+02 -0.44434528942E+02  0.29573430785E+03  0.30618267047E+03  0.00000000000E+00 0.  1.
<mgrwt>
<rscale>  0 0.12257904E+04</rscale>
<asrwt>0</asrwt>
<pdfrwt beam="1">  1        2 0.16199065E+00 0.12257904E+04</pdfrwt>
<pdfrwt beam="2">  1       -1 0.54885271E-01 0.12257904E+04</pdfrwt>
<totfact> 0.87838828E+01</totfact>
</mgrwt>
</event>
<event>
12    6  0.1553355E-007  0.3644051E+04  0.7818608E-02  0.8080475E-01
         -1   -1    0    0    0  501 -0.00000000000E+00  0.00000000000E+00  0.26316334260E+04  0.26316334260E+04  0.00000000000E+00 0.  1.
          2   -1    0    0  501    0  0.00000000000E+00 -0.00000000000E+00 -0.12614891247E+04  0.12614891247E+04  0.00000000000E+00 0. -1.
         24    2    1    2    0    0  0.11221579797E+04  0.29728758257E+03 -0.69670249430E+03  0.13562406849E+04  0.79849806677E+02 0.  0.
        254    2    1    2    0    0 -0.11221579797E+04 -0.29728758257E+03  0.20668467956E+04  0.25368818658E+04  0.90349072300E+03 0.  0.
         23    2    4    4    0    0 -0.92372809446E+02  0.16807665784E+03  0.42610781881E+02  0.21680259240E+03  0.91679804225E+02 0.  0.
         23    2    4    4    0    0 -0.10297851702E+04 -0.46536424041E+03  0.20242360137E+04  0.23200792734E+04  0.90636762014E+02 0.  0.
          2    1    3    3  502    0  0.67977690870E+03  0.17337043619E+03 -0.37578962573E+03  0.79584659110E+03  0.00000000000E+00 0. -1.
         -1    1    3    3    0  502  0.44238107096E+03  0.12391714638E+03 -0.32091286857E+03  0.56039409376E+03  0.00000000000E+00 0.  1.
         11    1    5    5    0    0  0.27130064773E+01 -0.99431808019E+01  0.51917151018E+01  0.11540413957E+02  0.00000000000E+00 0.  1.
        -11    1    5    5    0    0 -0.95085815923E+02  0.17801983864E+03  0.37419066779E+02  0.20526217844E+03  0.00000000000E+00 0. -1.
          1    1    6    6  503    0 -0.10059235527E+04 -0.44532048673E+03  0.19390737283E+04  0.22293944141E+04  0.00000000000E+00 0. -1.
         -1    1    6    6    0  503 -0.23861617497E+02 -0.20043753687E+02  0.85162285441E+02  0.90684859337E+02  0.00000000000E+00 0.  1.
<mgrwt>
<rscale>  0 0.36440510E+04</rscale>
<asrwt>0</asrwt>
<pdfrwt beam="1">  1        2 0.19407525E+00 0.36440510E+04</pdfrwt>
<pdfrwt beam="2">  1       -1 0.40486668E+00 0.36440510E+04</pdfrwt>
<totfact> 0.10664154E-01</totfact>
</mgrwt>
</event>
<event>
12    6  0.1553355E-007  0.1927121E+04  0.7818608E-02  0.8641473E-01
         -1   -1    0    0    0  501 -0.00000000000E+00  0.00000000000E+00  0.80792235504E+03  0.80792235504E+03  0.00000000000E+00 0.  1.
          2   -1    0    0  501    0  0.00000000000E+00 -0.00000000000E+00 -0.11491805362E+04  0.11491805362E+04  0.00000000000E+00 0. -1.
         24    2    1    2    0    0 -0.17281686879E+03  0.72686581246E+03 -0.15415766408E+03  0.76699573408E+03  0.79487679851E+02 0.  0.
        254    2    1    2    0    0  0.17281686879E+03 -0.72686581246E+03 -0.18710051708E+03  0.11901071571E+04  0.90727551633E+03 0.  0.
         23    2    4    4    0    0 -0.20271676818E+03  0.53660192075E+02  0.12883882313E+03  0.26268035897E+03  0.91804271849E+02 0.  0.
         23    2    4    4    0    0  0.37553363698E+03 -0.78052600453E+03 -0.31593934020E+03  0.92742679817E+03  0.10028181802E+03 0.  0.
          4    1    3    3  502    0 -0.12414346233E+03  0.63853041836E+03 -0.13344508772E+03  0.66403334694E+03  0.00000000000E+00 0. -1.
         -3    1    3    3    0  502 -0.48673406463E+02  0.88335394102E+02 -0.20712576354E+02  0.10296238715E+03  0.00000000000E+00 0.  1.
         11    1    5    5    0    0 -0.74048318445E+02  0.23737300154E+01  0.94307444256E+02  0.11992782038E+03  0.00000000000E+00 0.  1.
        -11    1    5    5    0    0 -0.12866844974E+03  0.51286462059E+02  0.34531378871E+02  0.14275253859E+03  0.00000000000E+00 0. -1.
          2    1    6    6  503    0  0.11608820900E+03 -0.16373494200E+03 -0.46153445687E+02  0.20595082920E+03  0.00000000000E+00 0. -1.
         -2    1    6    6    0  503  0.25944542798E+03 -0.61679106254E+03 -0.26978589452E+03  0.72147596897E+03  0.00000000000E+00 0.  1.
<mgrwt>
<rscale>  0 0.19271208E+04</rscale>
<asrwt>0</asrwt>
<pdfrwt beam="1">  1        2 0.17679701E+00 0.19271208E+04</pdfrwt>
<pdfrwt beam="2">  1       -1 0.12429575E+00 0.19271208E+04</pdfrwt>
<totfact> 0.12294985E+01</totfact>
</mgrwt>
</event>
<event>
12    6  0.1553355E-007  0.2236471E+04  0.7818608E-02  0.8503400E-01
          2   -1    0    0  501    0  0.00000000000E+00  0.00000000000E+00  0.23005952225E+04  0.23005952225E+04  0.00000000000E+00 0. -1.
         -1   -1    0    0    0  501 -0.00000000000E+00 -0.00000000000E+00 -0.54353342345E+03  0.54353342345E+03  0.00000000000E+00 0.  1.
         24    2    1    2    0    0 -0.81416403194E+03  0.66121570255E+02  0.13095173481E+04  0.15454189445E+04  0.79049960123E+02 0.  0.
        254    2    1    2    0    0  0.81416403194E+03 -0.66121570255E+02  0.44754445093E+03  0.12987097014E+04  0.90505012013E+03 0.  0.
         23    2    4    4    0    0  0.70338534329E+03 -0.28878836417E+03 -0.14678104571E+02  0.76541390677E+03  0.86564088919E+02 0.  0.
         23    2    4    4    0    0  0.11077868865E+03  0.22266679392E+03  0.46222255550E+03  0.53329579461E+03  0.94351972764E+02 0.  0.
          2    1    3    3  502    0 -0.80575034909E+03  0.56381324767E+02  0.12913672537E+04  0.15231683633E+04  0.00000000000E+00 0. -1.
         -1    1    3    3    0  502 -0.84136828524E+01  0.97402454880E+01  0.18150094352E+02  0.22250581257E+02  0.00000000000E+00 0.  1.
         11    1    5    5    0    0  0.43751903606E+03 -0.13928644660E+03  0.11279054649E+02  0.45929384733E+03  0.00000000000E+00 0. -1.
        -11    1    5    5    0    0  0.26586630723E+03 -0.14950191757E+03 -0.25957159220E+02  0.30612005944E+03  0.00000000000E+00 0.  1.
          1    1    6    6  503    0  0.92718059176E+02  0.14266551710E+03  0.38378556269E+03  0.41981120327E+03  0.00000000000E+00 0. -1.
         -1    1    6    6    0  503  0.18060629479E+02  0.80001276818E+02  0.78436992811E+02  0.11348459134E+03  0.00000000000E+00 0.  1.
<mgrwt>
<rscale>  0 0.22364708E+04</rscale>
<asrwt>0</asrwt>
<pdfrwt beam="1">  1        2 0.35393772E+00 0.22364708E+04</pdfrwt>
<pdfrwt beam="2">  1       -1 0.83620528E-01 0.22364708E+04</pdfrwt>
<totfact> 0.66633477E+00</totfact>
</mgrwt>
</event>
<event>
12    6  0.1553355E-007  0.2195161E+04  0.7818608E-02  0.8520445E-01
          2   -1    0    0  501    0  0.00000000000E+00  0.00000000000E+00  0.17655580167E+04  0.17655580167E+04  0.00000000000E+00 0. -1.
         -1   -1    0    0    0  501 -0.00000000000E+00 -0.00000000000E+00 -0.68232403723E+03  0.68232403723E+03  0.00000000000E+00 0.  1.
         24    2    1    2    0    0 -0.23851032781E+03  0.70721042526E+03  0.10381281711E+04  0.12808958288E+04  0.77137944773E+02 0.  0.
        254    2    1    2    0    0  0.23851032781E+03 -0.70721042526E+03  0.45105808400E+02  0.11669862252E+04  0.89598468386E+03 0.  0.
         23    2    4    4    0    0  0.27939634794E+02 -0.95074977333E+01 -0.32881092928E+03  0.34283604760E+03  0.92460329979E+02 0.  0.
         23    2    4    4    0    0  0.21057069302E+03 -0.69770292752E+03  0.37391673768E+03  0.82415017756E+03  0.90996684675E+02 0.  0.
          2    1    3    3  502    0 -0.22319567195E+03  0.60453236021E+03  0.92513098456E+03  0.11274497865E+04  0.00000000000E+00 0. -1.
         -1    1    3    3    0  502 -0.15314655866E+02  0.10267806504E+03  0.11299718656E+03  0.15344604229E+03  0.00000000000E+00 0.  1.
         11    1    5    5    0    0  0.28743774538E+02  0.39023704901E+02 -0.15870698807E+03  0.16594264727E+03  0.00000000000E+00 0. -1.
        -11    1    5    5    0    0 -0.80413974395E+00 -0.48531202635E+02 -0.17010394120E+03  0.17689340034E+03  0.00000000000E+00 0.  1.
          3    1    6    6  503    0  0.11517408069E+03 -0.51790123809E+03  0.25876530171E+03  0.59029335304E+03  0.00000000000E+00 0. -1.
         -3    1    6    6    0  503  0.95396612334E+02 -0.17980168944E+03  0.11515143597E+03  0.23385682452E+03  0.00000000000E+00 0.  1.
<mgrwt>
<rscale>  0 0.21951607E+04</rscale>
<asrwt>0</asrwt>
<pdfrwt beam="1">  1        2 0.27162431E+00 0.21951607E+04</pdfrwt>
<pdfrwt beam="2">  1       -1 0.10497293E+00 0.21951607E+04</pdfrwt>
<totfact> 0.79975897E+00</totfact>
</mgrwt>
</event>
<event>
12    6  0.1553355E-007  0.1770193E+04  0.7818608E-02  0.8722313E-01
          2   -1    0    0  501    0  0.00000000000E+00  0.00000000000E+00  0.37636116514E+03  0.37636116514E+03  0.00000000000E+00 0. -1.
         -1   -1    0    0    0  501 -0.00000000000E+00 -0.00000000000E+00 -0.20815004083E+04  0.20815004083E+04  0.00000000000E+00 0.  1.
         24    2    1    2    0    0  0.56066489134E+03  0.31112849598E+03 -0.51235538084E+03  0.82799902645E+03  0.10921671178E+03 0.  0.
        254    2    1    2    0    0 -0.56066489134E+03 -0.31112849598E+03 -0.11927838623E+04  0.16298625470E+04  0.90695783724E+03 0.  0.
         23    2    4    4    0    0 -0.12104445516E+03 -0.36398928921E+02  0.13181511350E+03  0.20442177627E+03  0.91849857457E+02 0.  0.
         23    2    4    4    0    0 -0.43962043618E+03 -0.27472956706E+03 -0.13245989759E+04  0.14254407708E+04  0.92609293162E+02 0.  0.
          2    1    3    3  502    0  0.44845522848E+03  0.21462268316E+03 -0.34819458398E+03  0.60697154496E+03  0.00000000000E+00 0. -1.
         -1    1    3    3    0  502  0.11220966286E+03  0.96505812819E+02 -0.16416079686E+03  0.22102748149E+03  0.00000000000E+00 0.  1.
         11    1    5    5    0    0 -0.85962448277E+02 -0.66963492829E+02  0.10129661660E+03  0.14877720397E+03  0.00000000000E+00 0. -1.
        -11    1    5    5    0    0 -0.35082006880E+02  0.30564563908E+02  0.30518496906E+02  0.55644572305E+02  0.00000000000E+00 0.  1.
          2    1    6    6  503    0 -0.69457083336E+02 -0.19037408948E+02 -0.25751308844E+03  0.26739427833E+03  0.00000000000E+00 0. -1.
         -2    1    6    6    0  503 -0.37016335285E+03 -0.25569215811E+03 -0.10670858874E+04  0.11580464924E+04  0.00000000000E+00 0.  1.
<mgrwt>
<rscale>  0 0.17701931E+04</rscale>
<asrwt>0</asrwt>
<pdfrwt beam="1">  1        2 0.57901716E-01 0.17701931E+04</pdfrwt>
<pdfrwt beam="2">  1       -1 0.32023084E+00 0.17701931E+04</pdfrwt>
<totfact> 0.22523639E+00</totfact>
</mgrwt>
</event>
<event>
12    6  0.1553355E-007  0.1095013E+04  0.7818608E-02  0.9210066E-01
          2   -1    0    0  501    0  0.00000000000E+00  0.00000000000E+00  0.11226069569E+04  0.11226069569E+04  0.00000000000E+00 0. -1.
         -1   -1    0    0    0  501 -0.00000000000E+00 -0.00000000000E+00 -0.26702419846E+03  0.26702419846E+03  0.00000000000E+00 0.  1.
         24    2    1    2    0    0 -0.17799835929E+02 -0.14158601348E+03  0.27989923692E+03  0.32437513340E+03  0.80698271145E+02 0.  0.
        254    2    1    2    0    0  0.17799835929E+02  0.14158601348E+03  0.57568352148E+03  0.10652560219E+04  0.88487029669E+03 0.  0.
         23    2    4    4    0    0 -0.41793358734E+03  0.13795454133E+03  0.31960306245E+03  0.55160274928E+03  0.91758032813E+02 0.  0.
         23    2    4    4    0    0  0.43573342327E+03  0.36314721460E+01  0.25608045903E+03  0.51365327264E+03  0.91573354484E+02 0.  0.
          4    1    3    3  502    0 -0.54874411237E+01 -0.29546156945E+02  0.14734162499E+03  0.15037500409E+03  0.00000000000E+00 0. -1.
         -3    1    3    3    0  502 -0.12312394805E+02 -0.11203985653E+03  0.13255761193E+03  0.17400012930E+03  0.00000000000E+00 0.  1.
         11    1    5    5    0    0 -0.35029571621E+03  0.78223909472E+02  0.26473908799E+03  0.44599647254E+03  0.00000000000E+00 0.  1.
        -11    1    5    5    0    0 -0.67637871127E+02  0.59730631861E+02  0.54863974460E+02  0.10560627674E+03  0.00000000000E+00 0. -1.
          2    1    6    6  503    0  0.19050779533E+03 -0.17474970502E+02  0.64974112329E+02  0.20204016914E+03  0.00000000000E+00 0. -1.
         -2    1    6    6    0  503  0.24522562794E+03  0.21106442648E+02  0.19110634670E+03  0.31161310350E+03  0.00000000000E+00 0.  1.
<mgrwt>
<rscale>  0 0.10950127E+04</rscale>
<asrwt>0</asrwt>
<pdfrwt beam="1">  1        2 0.17270876E+00 0.10950127E+04</pdfrwt>
<pdfrwt beam="2">  1       -1 0.41080646E-01 0.10950127E+04</pdfrwt>
<totfact> 0.13844696E+02</totfact>
</mgrwt>
</event>
<event>
12    6  0.1553355E-007  0.2030386E+04  0.7818608E-02  0.8592544E-01
          2   -1    0    0  501    0  0.00000000000E+00  0.00000000000E+00  0.93039659287E+03  0.93039659287E+03  0.00000000000E+00 0. -1.
         -1   -1    0    0    0  501 -0.00000000000E+00 -0.00000000000E+00 -0.11077180188E+04  0.11077180188E+04  0.00000000000E+00 0.  1.
         24    2    1    2    0    0  0.77834988054E+03 -0.46046014828E+02  0.15738177582E+03  0.79921792530E+03  0.77662711354E+02 0.  0.
        254    2    1    2    0    0 -0.77834988054E+03  0.46046014828E+02 -0.33470320173E+03  0.12388966863E+04  0.90271257561E+03 0.  0.
         23    2    4    4    0    0 -0.64904169260E+03  0.32166443252E+03  0.59709880148E+02  0.73253307696E+03  0.91193822029E+02 0.  0.
         23    2    4    4    0    0 -0.12930818794E+03 -0.27561841770E+03 -0.39441308188E+03  0.50636360938E+03  0.90312269969E+02 0.  0.
          2    1    3    3  502    0  0.48220481870E+03 -0.39031607931E+02  0.13437780019E+03  0.50209794540E+03  0.00000000000E+00 0. -1.
         -1    1    3    3    0  502  0.29614506184E+03 -0.70144068971E+01  0.23003975637E+02  0.29711997990E+03  0.00000000000E+00 0.  1.
         11    1    5    5    0    0 -0.21694936276E+03  0.61219881712E+02  0.11378786879E+02  0.22570861018E+03  0.00000000000E+00 0. -1.
        -11    1    5    5    0    0 -0.43209232983E+03  0.26044455081E+03  0.48331093269E+02  0.50682446678E+03  0.00000000000E+00 0.  1.
          4    1    6    6  503    0 -0.55528486978E+01 -0.48479823550E+02 -0.23489512020E+02  0.54156113183E+02  0.00000000000E+00 0. -1.
         -4    1    6    6    0  503 -0.12375533925E+03 -0.22713859415E+03 -0.37092356986E+03  0.45220749620E+03  0.00000000000E+00 0.  1.
<mgrwt>
<rscale>  0 0.20303862E+04</rscale>
<asrwt>0</asrwt>
<pdfrwt beam="1">  1        2 0.14313794E+00 0.20303862E+04</pdfrwt>
<pdfrwt beam="2">  1       -1 0.17041816E+00 0.20303862E+04</pdfrwt>
<totfact> 0.72266894E+00</totfact>
</mgrwt>
</event>
<event>
12    6  0.1553355E-007  0.2682271E+04  0.7818608E-02  0.8340780E-01
         -1   -1    0    0    0  501 -0.00000000000E+00  0.00000000000E+00  0.16502976693E+04  0.16502976693E+04  0.00000000000E+00 0.  1.
          2   -1    0    0  501    0  0.00000000000E+00 -0.00000000000E+00 -0.10898910516E+04  0.10898910516E+04  0.00000000000E+00 0. -1.
         24    2    1    2    0    0  0.31247606067E+03 -0.26214921320E+03  0.13822127063E+04  0.14433353494E+04  0.79633326786E+02 0.  0.
        254    2    1    2    0    0 -0.31247606067E+03  0.26214921320E+03 -0.82180608865E+03  0.12968533715E+04  0.91656964889E+03 0.  0.
         23    2    4    4    0    0  0.27168089343E+03 -0.87035599946E+02 -0.36740160646E+03  0.47433795583E+03  0.92880850520E+02 0.  0.
         23    2    4    4    0    0 -0.58415695409E+03  0.34918481315E+03 -0.45440448219E+03  0.82251541564E+03  0.82938500000E+02 0.  0.
          4    1    3    3  502    0  0.11195251023E+03 -0.12348576653E+03  0.67519617157E+03  0.69546528971E+03  0.00000000000E+00 0. -1.
         -3    1    3    3    0  502  0.20052355043E+03 -0.13866344667E+03  0.70701653477E+03  0.74787005968E+03  0.00000000000E+00 0.  1.
         11    1    5    5    0    0  0.12808979762E+03 -0.14151024081E+02 -0.10393987770E+03  0.16556190961E+03  0.00000000000E+00 0.  1.
        -11    1    5    5    0    0  0.14359109580E+03 -0.72884575864E+02 -0.26346172876E+03  0.30877604621E+03  0.00000000000E+00 0. -1.
          2    1    6    6  503    0 -0.25003627850E+03  0.18090134211E+03 -0.16811690586E+03  0.35143524323E+03  0.00000000000E+00 0. -1.
         -2    1    6    6    0  503 -0.33412067559E+03  0.16828347104E+03 -0.28628757633E+03  0.47108017241E+03  0.00000000000E+00 0.  1.
<mgrwt>
<rscale>  0 0.26822712E+04</rscale>
<asrwt>0</asrwt>
<pdfrwt beam="1">  1        2 0.16767555E+00 0.26822712E+04</pdfrwt>
<pdfrwt beam="2">  1       -1 0.25389195E+00 0.26822712E+04</pdfrwt>
<totfact> 0.14552397E+00</totfact>
</mgrwt>
</event>
<event>
12    6  0.1553355E-007  0.2140562E+04  0.7818608E-02  0.8543583E-01
          2   -1    0    0  501    0  0.00000000000E+00  0.00000000000E+00  0.10937622647E+04  0.10937622647E+04  0.00000000000E+00 0. -1.
         -1   -1    0    0    0  501 -0.00000000000E+00 -0.00000000000E+00 -0.10473036337E+04  0.10473036337E+04  0.00000000000E+00 0.  1.
         24    2    1    2    0    0 -0.50944678196E+03  0.60685373866E+03  0.39836245302E+03  0.89033136462E+03  0.78675352288E+02 0.  0.
        254    2    1    2    0    0  0.50944678196E+03 -0.60685373866E+03 -0.35190382201E+03  0.12507345339E+04  0.90149491981E+03 0.  0.
         23    2    4    4    0    0 -0.25120559265E+03 -0.16098937186E+03 -0.12512665383E+03  0.33598385410E+03  0.90590524276E+02 0.  0.
         23    2    4    4    0    0  0.76065237461E+03 -0.44586436681E+03 -0.22677716818E+03  0.91475067976E+03  0.89184379356E+02 0.  0.
          4    1    3    3  502    0 -0.37346883958E+03  0.40855274951E+03  0.24641565169E+03  0.60590015404E+03  0.00000000000E+00 0. -1.
         -3    1    3    3    0  502 -0.13597794238E+03  0.19830098915E+03  0.15194680133E+03  0.28443121057E+03  0.00000000000E+00 0.  1.
         11    1    5    5    0    0 -0.25398702585E+03 -0.14398483006E+03 -0.12750792477E+03  0.31858956585E+03  0.00000000000E+00 0. -1.
        -11    1    5    5    0    0  0.27814332046E+01 -0.17004541801E+02  0.23812709397E+01  0.17394288253E+02  0.00000000000E+00 0.  1.
          1    1    6    6  503    0  0.47144539804E+03 -0.28194292100E+03 -0.96650736554E+02  0.55775795728E+03  0.00000000000E+00 0. -1.
         -1    1    6    6    0  503  0.28920697657E+03 -0.16392144580E+03 -0.13012643163E+03  0.35699272247E+03  0.00000000000E+00 0.  1.
<mgrwt>
<rscale>  0 0.21405618E+04</rscale>
<asrwt>0</asrwt>
<pdfrwt beam="1">  1        2 0.16827112E+00 0.21405618E+04</pdfrwt>
<pdfrwt beam="2">  1       -1 0.16112364E+00 0.21405618E+04</pdfrwt>
<totfact> 0.65977389E+00</totfact>
</mgrwt>
</event>
<event>
12    6  0.1553355E-007  0.1362411E+04  0.7818608E-02  0.8981486E-01
         -1   -1    0    0    0  501 -0.00000000000E+00  0.00000000000E+00  0.13226391129E+03  0.13226391129E+03  0.00000000000E+00 0.  1.
          2   -1    0    0  501    0  0.00000000000E+00 -0.00000000000E+00 -0.35084446392E+04  0.35084446392E+04  0.00000000000E+00 0. -1.
         24    2    1    2    0    0  0.31495065361E+03  0.15744316152E+03 -0.60310415433E+03  0.70313882167E+03  0.81776024920E+02 0.  0.
        254    2    1    2    0    0 -0.31495065361E+03 -0.15744316152E+03 -0.27730765736E+04  0.29375697289E+04  0.90298392311E+03 0.  0.
         23    2    4    4    0    0 -0.26409634157E+03 -0.48521878226E+03 -0.11556744683E+04  0.12841309258E+04  0.90689655222E+02 0.  0.
         23    2    4    4    0    0 -0.50854312045E+02  0.32777562074E+03 -0.16174021053E+04  0.16534388031E+04  0.88584911995E+02 0.  0.
          4    1    3    3  502    0  0.28630933936E+03  0.16601897620E+03 -0.54084396817E+03  0.63407218530E+03  0.00000000000E+00 0. -1.
         -3    1    3    3    0  502  0.28641314251E+02 -0.85758146757E+01 -0.62260186154E+02  0.69066636368E+02  0.00000000000E+00 0.  1.
         11    1    5    5    0    0 -0.22967013725E+03 -0.39163294817E+03 -0.10127432099E+04  0.11098529394E+04  0.00000000000E+00 0. -1.
        -11    1    5    5    0    0 -0.34426204312E+02 -0.93585834085E+02 -0.14293125842E+03  0.17427798633E+03  0.00000000000E+00 0.  1.
          1    1    6    6  503    0  0.15454964996E+02  0.16045740959E+03 -0.85685008596E+03  0.87188158946E+03  0.00000000000E+00 0. -1.
         -1    1    6    6    0  503 -0.66309277041E+02  0.16731821115E+03 -0.76055201936E+03  0.78155721362E+03  0.00000000000E+00 0.  1.
<mgrwt>
<rscale>  0 0.13624105E+04</rscale>
<asrwt>0</asrwt>
<pdfrwt beam="1">  1        2 0.53976068E+00 0.13624105E+04</pdfrwt>
<pdfrwt beam="2">  1       -1 0.20348295E-01 0.13624105E+04</pdfrwt>
<totfact> 0.18045204E+01</totfact>
</mgrwt>
</event>
<event>
12    6  0.1553355E-007  0.1526997E+04  0.7818608E-02  0.8866696E-01
         -1   -1    0    0    0  501 -0.00000000000E+00  0.00000000000E+00  0.23185220949E+03  0.23185220949E+03  0.00000000000E+00 0.  1.
          2   -1    0    0  501    0  0.00000000000E+00 -0.00000000000E+00 -0.25142298024E+04  0.25142298024E+04  0.00000000000E+00 0. -1.
         24    2    1    2    0    0 -0.15607138080E+03 -0.41877504014E+03 -0.36896995303E+03  0.58498187499E+03  0.79587421599E+02 0.  0.
        254    2    1    2    0    0  0.15607138080E+03  0.41877504014E+03 -0.19134076399E+04  0.21611001369E+04  0.89971895346E+03 0.  0.
         23    2    4    4    0    0 -0.12151469083E+03  0.44658582003E+02 -0.15626178528E+04  0.15707910484E+04  0.94073135410E+02 0.  0.
         23    2    4    4    0    0  0.27758607164E+03  0.37411645814E+03 -0.35078978708E+03  0.59030908849E+03  0.91619833143E+02 0.  0.
          4    1    3    3  502    0 -0.41511092764E+00 -0.17153570964E+02 -0.38278301669E+02  0.41948130978E+02  0.00000000000E+00 0. -1.
         -3    1    3    3    0  502 -0.15565626987E+03 -0.40162146918E+03 -0.33069165136E+03  0.54303374401E+03  0.00000000000E+00 0.  1.
         11    1    5    5    0    0 -0.45781014276E+02 -0.75793428550E+01 -0.96669236309E+03  0.96780549314E+03  0.00000000000E+00 0.  1.
        -11    1    5    5    0    0 -0.75733676558E+02  0.52237924858E+02 -0.59592548976E+03  0.60298555530E+03  0.00000000000E+00 0. -1.
          1    1    6    6  503    0  0.15724686493E+03  0.15825367316E+03 -0.20726936659E+03  0.30451829489E+03  0.00000000000E+00 0. -1.
         -1    1    6    6    0  503  0.12033920671E+03  0.21586278498E+03 -0.14352042048E+03  0.28579079360E+03  0.00000000000E+00 0.  1.
<mgrwt>
<rscale>  0 0.15269967E+04</rscale>
<asrwt>0</asrwt>
<pdfrwt beam="1">  1        2 0.38680460E+00 0.15269967E+04</pdfrwt>
<pdfrwt beam="2">  1       -1 0.35669569E-01 0.15269967E+04</pdfrwt>
<totfact> 0.28204647E+01</totfact>
</mgrwt>
</event>
<event>
12    6  0.1553355E-007  0.1791444E+04  0.7818608E-02  0.8710863E-01
          2   -1    0    0  501    0  0.00000000000E+00  0.00000000000E+00  0.16122759814E+04  0.16122759814E+04  0.00000000000E+00 0. -1.
         -3   -1    0    0    0  501 -0.00000000000E+00 -0.00000000000E+00 -0.49763056160E+03  0.49763056160E+03  0.00000000000E+00 0.  1.
         24    2    1    2    0    0  0.17041244344E+03  0.63815733277E+03  0.53834209724E+03  0.85587312738E+03  0.80133727396E+02 0.  0.
        254    2    1    2    0    0 -0.17041244344E+03 -0.63815733277E+03  0.57630332259E+03  0.12540334156E+04  0.89676591465E+03 0.  0.
         23    2    4    4    0    0 -0.15318080493E+03 -0.24358231994E+03  0.75343769128E+03  0.81181925118E+03  0.92657629827E+02 0.  0.
         23    2    4    4    0    0 -0.17231638507E+02 -0.39457501283E+03 -0.17713436869E+03  0.44221416446E+03  0.90500898134E+02 0.  0.
          2    1    3    3  502    0  0.14839138319E+03  0.60324089248E+03  0.48335994789E+03  0.78711906100E+03  0.00000000000E+00 0. -1.
         -1    1    3    3    0  502  0.22021060241E+02  0.34916440289E+02  0.54982149350E+02  0.68754066380E+02  0.00000000000E+00 0.  1.
         11    1    5    5    0    0 -0.68876247517E+02 -0.12196171368E+03  0.49041540833E+03  0.51002536192E+03  0.00000000000E+00 0.  1.
        -11    1    5    5    0    0 -0.84304557411E+02 -0.12162060626E+03  0.26302228295E+03  0.30179388926E+03  0.00000000000E+00 0. -1.
          2    1    6    6  503    0 -0.90992858143E+01 -0.48263327822E+02 -0.57753798623E+02  0.75813238093E+02  0.00000000000E+00 0. -1.
         -2    1    6    6    0  503 -0.81323526928E+01 -0.34631168501E+03 -0.11938057006E+03  0.36640092637E+03  0.00000000000E+00 0.  1.
<mgrwt>
<rscale>  0 0.17914439E+04</rscale>
<asrwt>0</asrwt>
<pdfrwt beam="1">  1        2 0.24804246E+00 0.17914439E+04</pdfrwt>
<pdfrwt beam="2">  1       -3 0.76558549E-01 0.17914439E+04</pdfrwt>
<totfact> 0.10612285E+01</totfact>
</mgrwt>
</event>
<event>
12    6  0.1553355E-007  0.1776507E+04  0.7818608E-02  0.8718894E-01
         -1   -1    0    0    0  501 -0.00000000000E+00  0.00000000000E+00  0.86084095341E+03  0.86084095341E+03  0.00000000000E+00 0.  1.
          2   -1    0    0  501    0  0.00000000000E+00 -0.00000000000E+00 -0.91653889423E+03  0.91653889423E+03  0.00000000000E+00 0. -1.
         24    2    1    2    0    0 -0.90794867368E+02 -0.72012144781E+02 -0.67161355781E+03  0.68633039184E+03  0.80964058654E+02 0.  0.
        254    2    1    2    0    0  0.90794867368E+02  0.72012144781E+02  0.61591561699E+03  0.10910494558E+04  0.89308869147E+03 0.  0.
         23    2    4    4    0    0  0.22918054572E+02 -0.25991235470E+03 -0.99102309221E+02  0.29466357422E+03  0.94475843077E+02 0.  0.
         23    2    4    4    0    0  0.67876812796E+02  0.33192449948E+03  0.71501792621E+03  0.79638588158E+03  0.90546686946E+02 0.  0.
          2    1    3    3  502    0  0.46642027482E+01  0.33753037251E+01 -0.17295082707E+03  0.17304662968E+03  0.00000000000E+00 0. -1.
         -1    1    3    3    0  502 -0.95459070116E+02 -0.75387448506E+02 -0.49866273074E+03  0.51328376216E+03  0.00000000000E+00 0.  1.
         11    1    5    5    0    0 -0.25731040396E+01 -0.22772808805E+03 -0.54761322828E+02  0.23423386909E+03  0.00000000000E+00 0. -1.
        -11    1    5    5    0    0  0.25491158611E+02 -0.32184266652E+02 -0.44340986393E+02  0.60429705125E+02  0.00000000000E+00 0.  1.
          4    1    6    6  503    0  0.18793262892E+02  0.21601950403E+03  0.52970540279E+03  0.57236826135E+03  0.00000000000E+00 0. -1.
         -4    1    6    6    0  503  0.49083549904E+02  0.11590499545E+03  0.18531252342E+03  0.22401762024E+03  0.00000000000E+00 0.  1.
<mgrwt>
<rscale>  0 0.17765069E+04</rscale>
<asrwt>0</asrwt>
<pdfrwt beam="1">  1        2 0.14100598E+00 0.17765069E+04</pdfrwt>
<pdfrwt beam="2">  1       -1 0.13243707E+00 0.17765069E+04</pdfrwt>
<totfact> 0.14924265E+01</totfact>
</mgrwt>
</event>
<event>
12    6  0.1553355E-007  0.1331313E+04  0.7818608E-02  0.9005096E-01
         -1   -1    0    0    0  501 -0.00000000000E+00  0.00000000000E+00  0.18766552174E+03  0.18766552174E+03  0.00000000000E+00 0.  1.
          2   -1    0    0  501    0  0.00000000000E+00 -0.00000000000E+00 -0.23611083733E+04  0.23611083733E+04  0.00000000000E+00 0. -1.
         24    2    1    2    0    0  0.69751137918E+02 -0.24692173897E+03 -0.10795153311E+04  0.11116761602E+04  0.68080603908E+02 0.  0.
        254    2    1    2    0    0 -0.69751137918E+02  0.24692173897E+03 -0.10939275205E+04  0.14370977348E+04  0.89595586559E+03 0.  0.
         23    2    4    4    0    0  0.29239925987E+03  0.20900972844E+03 -0.97473906248E+03  0.10427460833E+04  0.89558698718E+02 0.  0.
         23    2    4    4    0    0 -0.36215039778E+03  0.37912010527E+02 -0.11918845797E+03  0.39435165157E+03  0.93365440199E+02 0.  0.
          4    1    3    3  502    0  0.64262788748E+02 -0.21073898897E+03 -0.10022759594E+04  0.10262054991E+04  0.00000000000E+00 0. -1.
         -3    1    3    3    0  502  0.54883491698E+01 -0.36182749993E+02 -0.77239371668E+02  0.85470661102E+02  0.00000000000E+00 0.  1.
         11    1    5    5    0    0  0.26969362061E+03  0.18554705494E+03 -0.93856873422E+03  0.99401892711E+03  0.00000000000E+00 0. -1.
        -11    1    5    5    0    0  0.22705639254E+02  0.23462673506E+02 -0.36170328256E+02  0.48727156167E+02  0.00000000000E+00 0.  1.
          3    1    6    6  503    0 -0.11131742208E+02 -0.12485503710E+02  0.67453794846E+01  0.18036175644E+02  0.00000000000E+00 0.  1.
         -3    1    6    6    0  503 -0.35101865558E+03  0.50397514236E+02 -0.12593383746E+03  0.37631547592E+03  0.00000000000E+00 0. -1.
<mgrwt>
<rscale>  0 0.13313131E+04</rscale>
<asrwt>0</asrwt>
<pdfrwt beam="1">  1        2 0.36324740E+00 0.13313131E+04</pdfrwt>
<pdfrwt beam="2">  1       -1 0.28871622E-01 0.13313131E+04</pdfrwt>
<totfact> 0.51033124E+01</totfact>
</mgrwt>
</event>
<event>
12    6  0.1553355E-007  0.1852493E+04  0.7818608E-02  0.8678872E-01
          2   -1    0    0  501    0  0.00000000000E+00  0.00000000000E+00  0.19331549904E+04  0.19331549904E+04  0.00000000000E+00 0. -1.
         -1   -1    0    0    0  501 -0.00000000000E+00 -0.00000000000E+00 -0.44379929177E+03  0.44379929177E+03  0.00000000000E+00 0.  1.
         24    2    1    2    0    0  0.47204499356E+03  0.22196205798E+03 -0.35869917228E+02  0.52919119092E+03  0.81627412398E+02 0.  0.
        254    2    1    2    0    0 -0.47204499356E+03 -0.22196205798E+03  0.15252256159E+04  0.18477630913E+04  0.90322844894E+03 0.  0.
         23    2    4    4    0    0 -0.50762675847E+03 -0.46644357437E+03  0.71761900039E+03  0.99840671203E+03  0.81144309251E+02 0.  0.
         23    2    4    4    0    0  0.35581764905E+02  0.24448151639E+03  0.80760661548E+03  0.84935637922E+03  0.90224939529E+02 0.  0.
          2    1    3    3  502    0  0.86210117467E+02  0.72383601966E+02 -0.24593405187E+02  0.11522328656E+03  0.00000000000E+00 0. -1.
         -1    1    3    3    0  502  0.38583487610E+03  0.14957845602E+03 -0.11276512041E+02  0.41396790436E+03  0.00000000000E+00 0.  1.
         11    1    5    5    0    0 -0.37486210972E+03 -0.38952822301E+03  0.56614111557E+03  0.78279601466E+03  0.00000000000E+00 0.  1.
        -11    1    5    5    0    0 -0.13276464875E+03 -0.76915351357E+02  0.15147788482E+03  0.21561069737E+03  0.00000000000E+00 0. -1.
          1    1    6    6  503    0 -0.24958905209E+01  0.27640264942E+02  0.22208150369E+03  0.22380886488E+03  0.00000000000E+00 0. -1.
         -1    1    6    6    0  503  0.38077655426E+02  0.21684125145E+03  0.58552511179E+03  0.62554751435E+03  0.00000000000E+00 0.  1.
<mgrwt>
<rscale>  0 0.18524933E+04</rscale>
<asrwt>0</asrwt>
<pdfrwt beam="1">  1        2 0.29740846E+00 0.18524933E+04</pdfrwt>
<pdfrwt beam="2">  1       -1 0.68276815E-01 0.18524933E+04</pdfrwt>
<totfact> 0.16919515E+01</totfact>
</mgrwt>
</event>
<event>
12    6  0.1553355E-007  0.2103969E+04  0.7818608E-02  0.8559497E-01
         -1   -1    0    0    0  501 -0.00000000000E+00  0.00000000000E+00  0.18824405895E+04  0.18824405895E+04  0.00000000000E+00 0.  1.
          2   -1    0    0  501    0  0.00000000000E+00 -0.00000000000E+00 -0.58789158017E+03  0.58789158017E+03  0.00000000000E+00 0. -1.
         24    2    1    2    0    0 -0.29736331594E+02 -0.40964727034E+03  0.14105814929E+04  0.14712712422E+04  0.78764105952E+02 0.  0.
        254    2    1    2    0    0  0.29736331594E+02  0.40964727034E+03 -0.11603248355E+03  0.99906092754E+03  0.90330729222E+03 0.  0.
         23    2    4    4    0    0 -0.68902952359E+02  0.28495420590E+03 -0.49183583364E+03  0.57982539404E+03  0.91370038958E+02 0.  0.
         23    2    4    4    0    0  0.98639283953E+02  0.12469306444E+03  0.37580335009E+03  0.41923553349E+03  0.96188387778E+02 0.  0.
          4    1    3    3  502    0 -0.24411296008E+02 -0.26049367310E+03  0.75946242752E+03  0.80326586129E+03  0.00000000000E+00 0. -1.
         -3    1    3    3    0  502 -0.53250355860E+01 -0.14915359724E+03  0.65111906539E+03  0.66800538088E+03  0.00000000000E+00 0.  1.
         11    1    5    5    0    0  0.73141033095E-01  0.37958652387E+02 -0.20250575498E+02  0.43022673657E+02  0.00000000000E+00 0. -1.
        -11    1    5    5    0    0 -0.68976093392E+02  0.24699555351E+03 -0.47158525815E+03  0.53680272039E+03  0.00000000000E+00 0.  1.
          4    1    6    6  503    0  0.85559974358E+02  0.91028789949E+02  0.35759612090E+03  0.37878983024E+03  0.00000000000E+00 0.  1.
         -4    1    6    6    0  503  0.13079309595E+02  0.33664274490E+02  0.18207229190E+02  0.40445703247E+02  0.00000000000E+00 0. -1.
<mgrwt>
<rscale>  0 0.21039686E+04</rscale>
<asrwt>0</asrwt>
<pdfrwt beam="1">  1        2 0.90444860E-01 0.21039686E+04</pdfrwt>
<pdfrwt beam="2">  1       -1 0.28960624E+00 0.21039686E+04</pdfrwt>
<totfact> 0.20629600E+00</totfact>
</mgrwt>
</event>
<event>
12    6  0.1553355E-007  0.2150374E+04  0.7818608E-02  0.8539372E-01
         -1   -1    0    0    0  501 -0.00000000000E+00  0.00000000000E+00  0.58732459796E+03  0.58732459796E+03  0.00000000000E+00 0.  1.
          2   -1    0    0  501    0  0.00000000000E+00 -0.00000000000E+00 -0.19682938840E+04  0.19682938840E+04  0.00000000000E+00 0. -1.
         24    2    1    2    0    0 -0.67180375109E+03 -0.48715807528E+02  0.99889648668E+02  0.68560743126E+03  0.79913065316E+02 0.  0.
        254    2    1    2    0    0  0.67180375109E+03  0.48715807528E+02 -0.14808589347E+04  0.18700110507E+04  0.92211964265E+03 0.  0.
         23    2    4    4    0    0  0.68462660445E+02 -0.10514836662E+03  0.88563738962E+02  0.17903720494E+03  0.92018856846E+02 0.  0.
         23    2    4    4    0    0  0.60334109065E+03  0.15386417415E+03 -0.15694226737E+04  0.16909738458E+04  0.92792039930E+02 0.  0.
          4    1    3    3  502    0 -0.24308702954E+03 -0.49299993075E+02  0.58914186678E+02  0.25493660906E+03  0.00000000000E+00 0. -1.
         -3    1    3    3    0  502 -0.42871672155E+03  0.58418554605E+00  0.40975461990E+02  0.43067082220E+03  0.00000000000E+00 0.  1.
         11    1    5    5    0    0  0.12405372519E+02 -0.27572457793E+02  0.76886124874E+02  0.82617249375E+02  0.00000000000E+00 0.  1.
        -11    1    5    5    0    0  0.56057287925E+02 -0.77575908831E+02  0.11677614088E+02  0.96419955566E+02  0.00000000000E+00 0. -1.
          3    1    6    6  503    0  0.65465257396E+02  0.47191528540E+02 -0.18024974188E+03  0.19749103711E+03  0.00000000000E+00 0. -1.
         -3    1    6    6    0  503  0.53787583325E+03  0.10667264561E+03 -0.13891729318E+04  0.14934828086E+04  0.00000000000E+00 0.  1.
<mgrwt>
<rscale>  0 0.21503743E+04</rscale>
<asrwt>0</asrwt>
<pdfrwt beam="1">  1        2 0.30281444E+00 0.21503743E+04</pdfrwt>
<pdfrwt beam="2">  1       -1 0.90357630E-01 0.21503743E+04</pdfrwt>
<totfact> 0.87039331E+00</totfact>
</mgrwt>
</event>
<event>
12    6  0.1553355E-007  0.1137030E+04  0.7818608E-02  0.9169833E-01
         -3   -1    0    0    0  501 -0.00000000000E+00  0.00000000000E+00  0.22653612835E+03  0.22653612835E+03  0.00000000000E+00 0.  1.
          4   -1    0    0  501    0  0.00000000000E+00 -0.00000000000E+00 -0.14267438597E+04  0.14267438597E+04  0.00000000000E+00 0. -1.
         24    2    1    2    0    0 -0.10843315673E+03 -0.16553939854E+03 -0.26097101439E+03  0.33690068246E+03  0.78963013744E+02 0.  0.
        254    2    1    2    0    0  0.10843315673E+03  0.16553939854E+03 -0.93923671691E+03  0.13163793055E+04  0.90084839108E+03 0.  0.
         23    2    4    4    0    0  0.13333911191E+03 -0.27978140169E+03 -0.76160343290E+03  0.82731878363E+03  0.91431008142E+02 0.  0.
         23    2    4    4    0    0 -0.24905955178E+02  0.44532080023E+03 -0.17763328401E+03  0.48906052191E+03  0.93250677107E+02 0.  0.
          4    1    3    3  502    0 -0.10141577318E+03 -0.16412373272E+03 -0.26567358879E+03  0.32833552119E+03  0.00000000000E+00 0. -1.
         -1    1    3    3    0  502 -0.70173835511E+01 -0.14156658239E+01  0.47025743998E+01  0.85651612719E+01  0.00000000000E+00 0.  1.
         11    1    5    5    0    0  0.29810260296E+02 -0.14705226542E+03 -0.43020496924E+03  0.45561972735E+03  0.00000000000E+00 0. -1.
        -11    1    5    5    0    0  0.10352885161E+03 -0.13272913627E+03 -0.33139846366E+03  0.37169905629E+03  0.00000000000E+00 0.  1.
          4    1    6    6  503    0  0.33765072663E+02  0.13195138214E+03 -0.65171775220E+02  0.15099207815E+03  0.00000000000E+00 0. -1.
         -4    1    6    6    0  503 -0.58671027841E+02  0.31336941810E+03 -0.11246150879E+03  0.33806844376E+03  0.00000000000E+00 0.  1.
<mgrwt>
<rscale>  0 0.11370295E+04</rscale>
<asrwt>0</asrwt>
<pdfrwt beam="1">  1        4 0.21949906E+00 0.11370295E+04</pdfrwt>
<pdfrwt beam="2">  1       -3 0.34851712E-01 0.11370295E+04</pdfrwt>
<totfact> 0.18157201E+00</totfact>
</mgrwt>
</event>
<event>
12    6  0.1553355E-007  0.1734265E+04  0.7818608E-02  0.8742060E-01
          2   -1    0    0  501    0  0.00000000000E+00  0.00000000000E+00  0.10706814098E+04  0.10706814098E+04  0.00000000000E+00 0. -1.
         -1   -1    0    0    0  501 -0.00000000000E+00 -0.00000000000E+00 -0.70228050987E+03  0.70228050987E+03  0.00000000000E+00 0.  1.
         24    2    1    2    0    0 -0.25290812544E+03 -0.40340274493E+03 -0.28441725648E+03  0.56029675799E+03  0.79642869736E+02 0.  0.
        254    2    1    2    0    0  0.25290812544E+03  0.40340274493E+03  0.65281815638E+03  0.12126651617E+04  0.90426155201E+03 0.  0.
         23    2    4    4    0    0  0.13302498699E+03 -0.27506507247E+03  0.27788047613E+03  0.42286043162E+03  0.90757613224E+02 0.  0.
         23    2    4    4    0    0  0.11988313845E+03  0.67846781740E+03  0.37493768025E+03  0.78980473003E+03  0.92318477977E+02 0.  0.
          4    1    3    3  502    0 -0.11165436949E+02 -0.69492533917E+02 -0.37026064184E+02  0.79528665785E+02  0.00000000000E+00 0. -1.
         -3    1    3    3    0  502 -0.24174268849E+03 -0.33391021101E+03 -0.24739119230E+03  0.48076809221E+03  0.00000000000E+00 0.  1.
         11    1    5    5    0    0  0.41432169479E+02 -0.10100080071E+03  0.45126835547E+02  0.11812797170E+03  0.00000000000E+00 0.  1.
        -11    1    5    5    0    0  0.91592817512E+02 -0.17406427176E+03  0.23275364058E+03  0.30473245992E+03  0.00000000000E+00 0. -1.
          2    1    6    6  503    0 -0.14439365508E+02  0.41863588100E+02  0.28977975767E+02  0.52922380563E+02  0.00000000000E+00 0. -1.
         -2    1    6    6    0  503  0.13432250395E+03  0.63660422930E+03  0.34595970449E+03  0.73688234947E+03  0.00000000000E+00 0.  1.
<mgrwt>
<rscale>  0 0.17342649E+04</rscale>
<asrwt>0</asrwt>
<pdfrwt beam="1">  1        2 0.16472022E+00 0.17342649E+04</pdfrwt>
<pdfrwt beam="2">  1       -1 0.10804316E+00 0.17342649E+04</pdfrwt>
<totfact> 0.19584993E+01</totfact>
</mgrwt>
</event>
<event>
12    6  0.1553355E-007  0.1422112E+04  0.7818608E-02  0.8937966E-01
         -1   -1    0    0    0  501 -0.00000000000E+00  0.00000000000E+00  0.16396348704E+03  0.16396348704E+03  0.00000000000E+00 0.  1.
          2   -1    0    0  501    0  0.00000000000E+00 -0.00000000000E+00 -0.30836181709E+04  0.30836181709E+04  0.00000000000E+00 0. -1.
         24    2    1    2    0    0  0.37102770990E+03  0.15914383439E+03 -0.11848811064E+04  0.12542996872E+04  0.79599922015E+02 0.  0.
        254    2    1    2    0    0 -0.37102770990E+03 -0.15914383439E+03 -0.17347735775E+04  0.19932819707E+04  0.89484374506E+03 0.  0.
         23    2    4    4    0    0 -0.48561333344E+03  0.33133033493E+02 -0.40340825482E+03  0.63992849461E+03  0.99258000350E+02 0.  0.
         23    2    4    4    0    0  0.11458562354E+03 -0.19227686789E+03 -0.13313653227E+04  0.13533534761E+04  0.94507935243E+02 0.  0.
          2    1    3    3  502    0  0.24336071331E+03  0.70688845812E+02 -0.80309841442E+03  0.84213325130E+03  0.00000000000E+00 0. -1.
         -3    1    3    3    0  502  0.12766699659E+03  0.88454988582E+02 -0.38178269195E+03  0.41216643592E+03  0.00000000000E+00 0.  1.
         11    1    5    5    0    0 -0.90963413238E+02 -0.32234021091E+02 -0.70859659102E+02  0.11972663009E+03  0.00000000000E+00 0. -1.
        -11    1    5    5    0    0 -0.39464992020E+03  0.65367054584E+02 -0.33254859572E+03  0.52020186452E+03  0.00000000000E+00 0.  1.
          2    1    6    6  503    0  0.16047084822E+02 -0.10682406251E+03 -0.73468289850E+03  0.74258188142E+03  0.00000000000E+00 0. -1.
         -2    1    6    6    0  503  0.98538538718E+02 -0.85452805375E+02 -0.59668242417E+03  0.61077159469E+03  0.00000000000E+00 0.  1.
<mgrwt>
<rscale>  0 0.14221122E+04</rscale>
<asrwt>0</asrwt>
<pdfrwt beam="1">  1        2 0.47440276E+00 0.14221122E+04</pdfrwt>
<pdfrwt beam="2">  1       -1 0.25225154E-01 0.14221122E+04</pdfrwt>
<totfact> 0.23762658E+01</totfact>
</mgrwt>
</event>
<event>
12    6  0.1553355E-007  0.2006755E+04  0.7818608E-02  0.8603469E-01
         -1   -1    0    0    0  501 -0.00000000000E+00  0.00000000000E+00  0.17068325992E+04  0.17068325992E+04  0.00000000000E+00 0.  1.
          2   -1    0    0  501    0  0.00000000000E+00 -0.00000000000E+00 -0.58984486637E+03  0.58984486637E+03  0.00000000000E+00 0. -1.
         24    2    1    2    0    0  0.59872940621E+03 -0.24763941110E+02  0.10459438304E+04  0.12081500530E+04  0.80857280076E+02 0.  0.
        254    2    1    2    0    0 -0.59872940621E+03  0.24763941110E+02  0.71043902506E+02  0.10885274126E+04  0.90595504148E+03 0.  0.
         23    2    4    4    0    0 -0.23424432769E+03 -0.41130040847E+03 -0.92265185916E+02  0.49007635685E+03  0.87312885320E+02 0.  0.
         23    2    4    4    0    0 -0.36448507852E+03  0.43606434958E+03  0.16330908842E+03  0.59845105572E+03  0.92045196991E+02 0.  0.
          4    1    3    3  502    0  0.20845830013E+03 -0.53042051332E+01  0.29003255111E+03  0.35721405094E+03  0.00000000000E+00 0. -1.
         -3    1    3    3    0  502  0.39027110608E+03 -0.19459735977E+02  0.75591127925E+03  0.85093600209E+03  0.00000000000E+00 0.  1.
         11    1    5    5    0    0 -0.18923620018E+03 -0.35880946066E+03 -0.49222272138E+02  0.40862868302E+03  0.00000000000E+00 0.  1.
        -11    1    5    5    0    0 -0.45008127513E+02 -0.52490947817E+02 -0.43042913778E+02  0.81447673824E+02  0.00000000000E+00 0. -1.
          1    1    6    6  503    0 -0.76769157456E+02  0.43654876211E+02  0.13593557604E+02  0.89353436206E+02  0.00000000000E+00 0. -1.
         -1    1    6    6    0  503 -0.28771592106E+03  0.39240947337E+03  0.14971553082E+03  0.50909761951E+03  0.00000000000E+00 0.  1.
<mgrwt>
<rscale>  0 0.20067550E+04</rscale>
<asrwt>0</asrwt>
<pdfrwt beam="1">  1        2 0.90745365E-01 0.20067550E+04</pdfrwt>
<pdfrwt beam="2">  1       -1 0.26258963E+00 0.20067550E+04</pdfrwt>
<totfact> 0.30993265E+00</totfact>
</mgrwt>
</event>
<event>
12    6  0.1553355E-007  0.2545793E+04  0.7818608E-02  0.8386851E-01
          2   -1    0    0  501    0  0.00000000000E+00  0.00000000000E+00  0.10285976333E+04  0.10285976333E+04  0.00000000000E+00 0. -1.
         -1   -1    0    0    0  501 -0.00000000000E+00 -0.00000000000E+00 -0.15752178076E+04  0.15752178076E+04  0.00000000000E+00 0.  1.
         24    2    1    2    0    0  0.12912700591E+03 -0.53340622556E+03 -0.12002333428E+04  0.13221902873E+04  0.80194100524E+02 0.  0.
        254    2    1    2    0    0 -0.12912700591E+03  0.53340622556E+03  0.65361316844E+03  0.12816251535E+04  0.95611551341E+03 0.  0.
         23    2    4    4    0    0 -0.42017847564E+03  0.36430487518E+03  0.73267931366E+03  0.92442764133E+03  0.92084167579E+02 0.  0.
         23    2    4    4    0    0  0.29105146973E+03  0.16910135038E+03 -0.79066145223E+02  0.35719751216E+03  0.89623560754E+02 0.  0.
          2    1    3    3  502    0 -0.10100667915E+02 -0.37059920017E+02 -0.10182871527E+03  0.10883266246E+03  0.00000000000E+00 0. -1.
         -1    1    3    3    0  502  0.13922767383E+03 -0.49634630554E+03 -0.10984046275E+04  0.12133576249E+04  0.00000000000E+00 0.  1.
         11    1    5    5    0    0 -0.36414724857E+03  0.35105370543E+03  0.66671750052E+03  0.83687164382E+03  0.00000000000E+00 0.  1.
        -11    1    5    5    0    0 -0.56031227071E+02  0.13251169754E+02  0.65961813149E+02  0.87555997515E+02  0.00000000000E+00 0. -1.
          2    1    6    6  503    0  0.49538936541E+02  0.14135467783E+02  0.17536300302E+02  0.54419109799E+02  0.00000000000E+00 0. -1.
         -2    1    6    6    0  503  0.24151253319E+03  0.15496588259E+03 -0.96602445524E+02  0.30277840236E+03  0.00000000000E+00 0.  1.
<mgrwt>
<rscale>  0 0.25457928E+04</rscale>
<asrwt>0</asrwt>
<pdfrwt beam="1">  1        2 0.15824579E+00 0.25457928E+04</pdfrwt>
<pdfrwt beam="2">  1       -1 0.24234120E+00 0.25457928E+04</pdfrwt>
<totfact> 0.19141143E+00</totfact>
</mgrwt>
</event>
<event>
12    6  0.1553355E-007  0.1759245E+04  0.7818608E-02  0.8728278E-01
         -1   -1    0    0    0  501 -0.00000000000E+00  0.00000000000E+00  0.92553061830E+03  0.92553061830E+03  0.00000000000E+00 0.  1.
          2   -1    0    0  501    0  0.00000000000E+00 -0.00000000000E+00 -0.83599153790E+03  0.83599153790E+03  0.00000000000E+00 0. -1.
         24    2    1    2    0    0  0.25565004181E+03  0.36099428387E+02 -0.56850302851E+03  0.62900235123E+03  0.76079904224E+02 0.  0.
        254    2    1    2    0    0 -0.25565004181E+03 -0.36099428387E+02  0.65804210891E+03  0.11325198050E+04  0.88482855906E+03 0.  0.
         23    2    4    4    0    0 -0.39229093080E+03 -0.13505217599E+03 -0.22650396655E+02  0.42460824781E+03  0.87452038331E+02 0.  0.
         23    2    4    4    0    0  0.13664088899E+03  0.98952747607E+02  0.68069250556E+03  0.70791155716E+03  0.96613181419E+02 0.  0.
          4    1    3    3  502    0  0.25277539464E+03  0.28690574284E+02 -0.56620346640E+03  0.62072934082E+03  0.00000000000E+00 0. -1.
         -1    1    3    3    0  502  0.28746471689E+01  0.74088541039E+01 -0.22995621113E+01  0.82730104184E+01  0.00000000000E+00 0.  1.
         11    1    5    5    0    0 -0.28347723093E+03 -0.84599171370E+02  0.21945474836E+02  0.29664450798E+03  0.00000000000E+00 0.  1.
        -11    1    5    5    0    0 -0.10881369987E+03 -0.50453004624E+02 -0.44595871491E+02  0.12796373982E+03  0.00000000000E+00 0. -1.
          2    1    6    6  503    0  0.66338110122E+02  0.35478698168E+02  0.48155504025E+03  0.48739587572E+03  0.00000000000E+00 0. -1.
         -2    1    6    6    0  503  0.70302778863E+02  0.63474049439E+02  0.19913746531E+03  0.22051568143E+03  0.00000000000E+00 0.  1.
<mgrwt>
<rscale>  0 0.17592450E+04</rscale>
<asrwt>0</asrwt>
<pdfrwt beam="1">  1        2 0.12861408E+00 0.17592450E+04</pdfrwt>
<pdfrwt beam="2">  1       -1 0.14238933E+00 0.17592450E+04</pdfrwt>
<totfact> 0.14072808E+01</totfact>
</mgrwt>
</event>
<event>
12    6  0.1553355E-007  0.1813763E+04  0.7818608E-02  0.8699014E-01
         -1   -1    0    0    0  501 -0.00000000000E+00  0.00000000000E+00  0.14927707795E+04  0.14927707795E+04  0.00000000000E+00 0.  1.
          2   -1    0    0  501    0  0.00000000000E+00 -0.00000000000E+00 -0.55094492540E+03  0.55094492540E+03  0.00000000000E+00 0. -1.
         24    2    1    2    0    0 -0.66206957511E+03  0.16005616287E+03  0.32541738743E+03  0.75899676211E+03  0.78901909385E+02 0.  0.
        254    2    1    2    0    0  0.66206957511E+03 -0.16005616287E+03  0.61640846672E+03  0.12847189428E+04  0.89810314925E+03 0.  0.
         23    2    4    4    0    0  0.84972872752E+03 -0.11487228228E+03  0.31481110016E+03  0.91782135280E+03  0.89752188048E+02 0.  0.
         23    2    4    4    0    0 -0.18765915242E+03 -0.45183880591E+02  0.30159736655E+03  0.36689759003E+03  0.79970804101E+02 0.  0.
          4    1    3    3  502    0 -0.51506449743E+03  0.15770468587E+03  0.25688788282E+03  0.59678604944E+03  0.00000000000E+00 0. -1.
         -3    1    3    3    0  502 -0.14700507767E+03  0.23514770017E+01  0.68529504605E+02  0.16221071268E+03  0.00000000000E+00 0.  1.
         11    1    5    5    0    0  0.61533564110E+03 -0.10134743805E+03  0.19001293756E+03  0.65193110897E+03  0.00000000000E+00 0. -1.
        -11    1    5    5    0    0  0.23439308643E+03 -0.13524844233E+02  0.12479816260E+03  0.26589024383E+03  0.00000000000E+00 0.  1.
          1    1    6    6  503    0 -0.70465846818E+02 -0.46675921184E+02  0.17520483702E+03  0.19452715004E+03  0.00000000000E+00 0. -1.
         -1    1    6    6    0  503 -0.11719330560E+03  0.14920405935E+01  0.12639252953E+03  0.17237044000E+03  0.00000000000E+00 0.  1.
<mgrwt>
<rscale>  0 0.18137635E+04</rscale>
<asrwt>0</asrwt>
<pdfrwt beam="1">  1        2 0.84760758E-01 0.18137635E+04</pdfrwt>
<pdfrwt beam="2">  1       -1 0.22965704E+00 0.18137635E+04</pdfrwt>
<totfact> 0.56160140E+00</totfact>
</mgrwt>
</event>
<event>
12    6  0.1553355E-007  0.1212222E+04  0.7818608E-02  0.9102226E-01
          2   -1    0    0  501    0  0.00000000000E+00  0.00000000000E+00  0.52912278434E+03  0.52912278434E+03  0.00000000000E+00 0. -1.
         -1   -1    0    0    0  501 -0.00000000000E+00 -0.00000000000E+00 -0.69430073753E+03  0.69430073753E+03  0.00000000000E+00 0.  1.
         24    2    1    2    0    0  0.30162324328E+02  0.95804532778E+02  0.19298002134E+03  0.23840581754E+03  0.97507799119E+02 0.  0.
        254    2    1    2    0    0 -0.30162324328E+02 -0.95804532778E+02 -0.35815797453E+03  0.98501770433E+03  0.91208249014E+03 0.  0.
         23    2    4    4    0    0  0.22394962304E+02 -0.39876327198E+03  0.10369492720E+03  0.42268112247E+03  0.91613383056E+02 0.  0.
         23    2    4    4    0    0 -0.52557286631E+02  0.30295873920E+03 -0.46185290172E+03  0.56233658186E+03  0.91477114240E+02 0.  0.
          2    1    3    3  502    0  0.49833726363E+02  0.79749674419E+02  0.19105124304E+03  0.21294127905E+03  0.00000000000E+00 0. -1.
         -1    1    3    3    0  502 -0.19671402036E+02  0.16054858359E+02  0.19287783013E+01  0.25464538494E+02  0.00000000000E+00 0.  1.
         11    1    5    5    0    0  0.55239298280E+02 -0.22811934564E+03  0.76013813292E+02  0.24671423903E+03  0.00000000000E+00 0.  1.
        -11    1    5    5    0    0 -0.32844335976E+02 -0.17064392633E+03  0.27681113904E+02  0.17596688344E+03  0.00000000000E+00 0. -1.
          3    1    6    6  503    0  0.17625222305E+02  0.23715143649E+02 -0.22924071902E+02  0.37397454087E+02  0.00000000000E+00 0.  1.
         -3    1    6    6    0  503 -0.70182508936E+02  0.27924359555E+03 -0.43892882982E+03  0.52493912777E+03  0.00000000000E+00 0. -1.
<mgrwt>
<rscale>  0 0.12122217E+04</rscale>
<asrwt>0</asrwt>
<pdfrwt beam="1">  1        2 0.81403506E-01 0.12122217E+04</pdfrwt>
<pdfrwt beam="2">  1       -1 0.10681550E+00 0.12122217E+04</pdfrwt>
<totfact> 0.53162907E+01</totfact>
</mgrwt>
</event>
<event>
12    6  0.1553355E-007  0.1242147E+04  0.7818608E-02  0.9076745E-01
          2   -1    0    0  501    0  0.00000000000E+00  0.00000000000E+00  0.54018775734E+03  0.54018775734E+03  0.00000000000E+00 0. -1.
         -1   -1    0    0    0  501 -0.00000000000E+00 -0.00000000000E+00 -0.71407052140E+03  0.71407052140E+03  0.00000000000E+00 0.  1.
         24    2    1    2    0    0  0.44931410613E+02 -0.83665247996E+02  0.23302988175E+03  0.26455864525E+03  0.81667898268E+02 0.  0.
        254    2    1    2    0    0 -0.44931410613E+02  0.83665247996E+02 -0.40691264581E+03  0.98969963348E+03  0.89716707352E+03 0.  0.
         23    2    4    4    0    0 -0.10506281348E+03 -0.17649605948E+03  0.21264875350E+03  0.30868398874E+03  0.88753922475E+02 0.  0.
         23    2    4    4    0    0  0.60131402864E+02  0.26016130747E+03 -0.61956139931E+03  0.68101564474E+03  0.92877819436E+02 0.  0.
          4    1    3    3  502    0 -0.19922345810E+02 -0.12829175683E+01  0.29661597951E+02  0.35754106520E+02  0.00000000000E+00 0. -1.
         -3    1    3    3    0  502  0.64853756423E+02 -0.82382330428E+02  0.20336828380E+03  0.22880453873E+03  0.00000000000E+00 0.  1.
         11    1    5    5    0    0 -0.11039459193E+03 -0.16292037411E+03  0.15875071858E+03  0.25284739444E+03  0.00000000000E+00 0.  1.
        -11    1    5    5    0    0  0.53317784550E+01 -0.13575685371E+02  0.53898034922E+02  0.55836594302E+02  0.00000000000E+00 0. -1.
          4    1    6    6  503    0 -0.15996499586E+02  0.36496285878E+02 -0.15218153726E+03  0.15731206936E+03  0.00000000000E+00 0. -1.
         -4    1    6    6    0  503  0.76127902451E+02  0.22366502160E+03 -0.46737986205E+03  0.52370357538E+03  0.00000000000E+00 0.  1.
<mgrwt>
<rscale>  0 0.12421468E+04</rscale>
<asrwt>0</asrwt>
<pdfrwt beam="1">  1        2 0.83105809E-01 0.12421468E+04</pdfrwt>
<pdfrwt beam="2">  1       -1 0.10985700E+00 0.12421468E+04</pdfrwt>
<totfact> 0.48457566E+01</totfact>
</mgrwt>
</event>
<event>
12    6  0.1553355E-007  0.2559746E+04  0.7818608E-02  0.8382005E-01
         -1   -1    0    0    0  501 -0.00000000000E+00  0.00000000000E+00  0.59656230136E+03  0.59656230136E+03  0.00000000000E+00 0.  1.
          2   -1    0    0  501    0  0.00000000000E+00 -0.00000000000E+00 -0.27458568516E+04  0.27458568516E+04  0.00000000000E+00 0. -1.
         24    2    1    2    0    0 -0.80018808241E+03 -0.30276351572E+03 -0.63860733630E+00  0.85926199333E+03  0.79775006582E+02 0.  0.
        254    2    1    2    0    0  0.80018808241E+03  0.30276351572E+03 -0.21486559429E+04  0.24831571597E+04  0.90409092725E+03 0.  0.
         23    2    4    4    0    0  0.87796061911E+03  0.49865792852E+03 -0.17957943886E+04  0.20620383327E+04  0.87464398759E+02 0.  0.
         23    2    4    4    0    0 -0.77772536692E+02 -0.19589441280E+03 -0.35286155434E+03  0.42111882695E+03  0.91687520695E+02 0.  0.
          2    1    3    3  502    0 -0.63362443160E+03 -0.23751629746E+03 -0.32948702911E+02  0.67748027934E+03  0.00000000000E+00 0. -1.
         -1    1    3    3    0  502 -0.16656365082E+03 -0.65247218264E+02  0.32310095575E+02  0.18178171399E+03  0.00000000000E+00 0.  1.
         11    1    5    5    0    0  0.54122829719E+03  0.26816548335E+03 -0.11241940994E+04  0.12761869648E+04  0.00000000000E+00 0.  1.
        -11    1    5    5    0    0  0.33673232192E+03  0.23049244517E+03 -0.67160028922E+03  0.78585136787E+03  0.00000000000E+00 0. -1.
          4    1    6    6  503    0  0.27044951886E+01 -0.96881171771E+02 -0.19812886569E+03  0.22056364877E+03  0.00000000000E+00 0. -1.
         -4    1    6    6    0  503 -0.80477031881E+02 -0.99013241029E+02 -0.15473268865E+03  0.20055517818E+03  0.00000000000E+00 0.  1.
<mgrwt>
<rscale>  0 0.25597458E+04</rscale>
<asrwt>0</asrwt>
<pdfrwt beam="1">  1        2 0.42243952E+00 0.25597458E+04</pdfrwt>
<pdfrwt beam="2">  1       -1 0.91778815E-01 0.25597458E+04</pdfrwt>
<totfact> 0.29095499E+00</totfact>
</mgrwt>
</event>
<event>
12    6  0.1553355E-007  0.1840629E+04  0.7818608E-02  0.8684987E-01
         -1   -1    0    0    0  501 -0.00000000000E+00  0.00000000000E+00  0.86323299480E+03  0.86323299480E+03  0.00000000000E+00 0.  1.
          2   -1    0    0  501    0  0.00000000000E+00 -0.00000000000E+00 -0.98117054743E+03  0.98117054743E+03  0.00000000000E+00 0. -1.
         24    2    1    2    0    0  0.13220377069E+03  0.40803849918E+03 -0.58751142414E+03  0.73155551351E+03  0.77656564784E+02 0.  0.
        254    2    1    2    0    0 -0.13220377069E+03 -0.40803849918E+03  0.46957387150E+03  0.11128480287E+04  0.91321293269E+03 0.  0.
         23    2    4    4    0    0 -0.20978226843E+03 -0.62816260863E+03  0.53291752314E+03  0.85480485501E+03  0.89963273825E+02 0.  0.
         23    2    4    4    0    0  0.77578497737E+02  0.22012410945E+03 -0.63343651642E+02  0.25804317372E+03  0.90004524466E+02 0.  0.
          4    1    3    3  502    0  0.11976631745E+03  0.40302062149E+03 -0.57943063825E+03  0.71589765796E+03  0.00000000000E+00 0. -1.
         -3    1    3    3    0  502  0.12437453239E+02  0.50178776915E+01 -0.80807858915E+01  0.15657855543E+02  0.00000000000E+00 0.  1.
         11    1    5    5    0    0 -0.35285968351E+02 -0.38514229700E+02  0.56268927679E+02  0.76776543775E+02  0.00000000000E+00 0. -1.
        -11    1    5    5    0    0 -0.17449630007E+03 -0.58964837893E+03  0.47664859546E+03  0.77802831123E+03  0.00000000000E+00 0.  1.
          3    1    6    6  503    0  0.18411217145E+02  0.50337961936E+02 -0.56839178891E+02  0.78125383747E+02  0.00000000000E+00 0. -1.
         -3    1    6    6    0  503  0.59167280593E+02  0.16978614752E+03 -0.65044727511E+01  0.17991778997E+03  0.00000000000E+00 0.  1.
<mgrwt>
<rscale>  0 0.18406290E+04</rscale>
<asrwt>0</asrwt>
<pdfrwt beam="1">  1        2 0.15094931E+00 0.18406290E+04</pdfrwt>
<pdfrwt beam="2">  1       -1 0.13280508E+00 0.18406290E+04</pdfrwt>
<totfact> 0.13360995E+01</totfact>
</mgrwt>
</event>
<event>
12    6  0.1553355E-007  0.1400557E+04  0.7818608E-02  0.8953415E-01
          2   -1    0    0  501    0  0.00000000000E+00  0.00000000000E+00  0.15006085274E+04  0.15006085274E+04  0.00000000000E+00 0. -1.
         -1   -1    0    0    0  501 -0.00000000000E+00 -0.00000000000E+00 -0.32679414234E+03  0.32679414234E+03  0.00000000000E+00 0.  1.
         24    2    1    2    0    0 -0.22913141823E+03 -0.25580140843E+03  0.78623882955E+02  0.36151436320E+03  0.81088547024E+02 0.  0.
        254    2    1    2    0    0  0.22913141823E+03  0.25580140843E+03  0.10951905021E+04  0.14658883066E+04  0.91183919855E+03 0.  0.
         23    2    4    4    0    0 -0.20898047358E+03  0.40115684742E+03  0.32826782898E+03  0.56598702683E+03  0.89341437371E+02 0.  0.
         23    2    4    4    0    0  0.43811189181E+03 -0.14535543900E+03  0.76692267314E+03  0.89990127973E+03  0.92637429203E+02 0.  0.
          4    1    3    3  502    0 -0.84836260819E+01  0.53237309035E+01 -0.21330256363E+01  0.10240303735E+02  0.00000000000E+00 0. -1.
         -3    1    3    3    0  502 -0.22064779215E+03 -0.26112513933E+03  0.80756908591E+02  0.35127405947E+03  0.00000000000E+00 0.  1.
         11    1    5    5    0    0 -0.42083609646E+02  0.35507536637E+02  0.66443486534E+02  0.86293407985E+02  0.00000000000E+00 0.  1.
        -11    1    5    5    0    0 -0.16689686393E+03  0.36564931078E+03  0.26182434244E+03  0.47969361885E+03  0.00000000000E+00 0. -1.
          1    1    6    6  503    0  0.29862458040E+03 -0.11884802332E+03  0.60081446698E+03  0.68138059585E+03  0.00000000000E+00 0. -1.
         -1    1    6    6    0  503  0.13948731140E+03 -0.26507415676E+02  0.16610820616E+03  0.21852068388E+03  0.00000000000E+00 0.  1.
<mgrwt>
<rscale>  0 0.14005571E+04</rscale>
<asrwt>0</asrwt>
<pdfrwt beam="1">  1        2 0.23086285E+00 0.14005571E+04</pdfrwt>
<pdfrwt beam="2">  1       -1 0.50276023E-01 0.14005571E+04</pdfrwt>
<totfact> 0.55864580E+01</totfact>
</mgrwt>
</event>
<event>
12    6  0.1553355E-007  0.2282003E+04  0.7818608E-02  0.8485051E-01
         -1   -1    0    0    0  501 -0.00000000000E+00  0.00000000000E+00  0.59098402906E+03  0.59098402906E+03  0.00000000000E+00 0.  1.
          2   -1    0    0  501    0  0.00000000000E+00 -0.00000000000E+00 -0.22029095509E+04  0.22029095509E+04  0.00000000000E+00 0. -1.
         24    2    1    2    0    0  0.69031654804E+03 -0.67174408337E+03 -0.62798668124E+03  0.11526600250E+04  0.80503486115E+02 0.  0.
        254    2    1    2    0    0 -0.69031654804E+03  0.67174408337E+03 -0.98393884056E+03  0.16412335550E+04  0.89316005839E+03 0.  0.
         23    2    4    4    0    0 -0.28760707386E+03  0.73565114220E+03 -0.31982240512E+03  0.85668575548E+03  0.87884474563E+02 0.  0.
         23    2    4    4    0    0 -0.40270947418E+03 -0.63907058833E+02 -0.66411643544E+03  0.78454779947E+03  0.90584640407E+02 0.  0.
          4    1    3    3  502    0  0.35969745247E+02 -0.60104270536E+02 -0.33607799781E+02  0.77690605069E+02  0.00000000000E+00 0. -1.
         -3    1    3    3    0  502  0.65434680279E+03 -0.61163981284E+03 -0.59437888146E+03  0.10749694199E+04  0.00000000000E+00 0.  1.
         11    1    5    5    0    0 -0.45258633490E+02  0.20507510595E+03 -0.10764119648E+03  0.23598891958E+03  0.00000000000E+00 0. -1.
        -11    1    5    5    0    0 -0.24234844037E+03  0.53057603626E+03 -0.21218120864E+03  0.62069683591E+03  0.00000000000E+00 0.  1.
          1    1    6    6  503    0 -0.29482437818E+03 -0.38997169471E+02 -0.40235370774E+03  0.50033059004E+03  0.00000000000E+00 0. -1.
         -1    1    6    6    0  503 -0.10788509599E+03 -0.24909889362E+02 -0.26176272770E+03  0.28421720943E+03  0.00000000000E+00 0.  1.
<mgrwt>
<rscale>  0 0.22820029E+04</rscale>
<asrwt>0</asrwt>
<pdfrwt beam="1">  1        2 0.33890917E+00 0.22820029E+04</pdfrwt>
<pdfrwt beam="2">  1       -1 0.90920618E-01 0.22820029E+04</pdfrwt>
<totfact> 0.62765691E+00</totfact>
</mgrwt>
</event>
<event>
12    6  0.1553355E-007  0.1374713E+04  0.7818608E-02  0.8972329E-01
          2   -1    0    0  501    0  0.00000000000E+00  0.00000000000E+00  0.19952790397E+04  0.19952790397E+04  0.00000000000E+00 0. -1.
         -1   -1    0    0    0  501 -0.00000000000E+00 -0.00000000000E+00 -0.23678841593E+03  0.23678841593E+03  0.00000000000E+00 0.  1.
         24    2    1    2    0    0 -0.20146935139E+03  0.71005368287E+02  0.10584835082E+04  0.10826736078E+04  0.78505681537E+02 0.  0.
        254    2    1    2    0    0  0.20146935139E+03 -0.71005368287E+02  0.70000711556E+03  0.11493938478E+04  0.88626440393E+03 0.  0.
         23    2    4    4    0    0 -0.30920868518E+02  0.36753208522E+03  0.43903867524E+03  0.58158837369E+03  0.97232424039E+02 0.  0.
         23    2    4    4    0    0  0.23239021991E+03 -0.43853745351E+03  0.26096844032E+03  0.56780547412E+03  0.89320866308E+02 0.  0.
          4    1    3    3  502    0 -0.19808024475E+03  0.54406523292E+02  0.10221247017E+04  0.10425616332E+04  0.00000000000E+00 0. -1.
         -3    1    3    3    0  502 -0.33891066395E+01  0.16598844995E+02  0.36358806507E+02  0.40111974641E+02  0.00000000000E+00 0.  1.
         11    1    5    5    0    0 -0.12247928393E+02  0.39692571979E+01  0.37223552147E+02  0.39387302358E+02  0.00000000000E+00 0. -1.
        -11    1    5    5    0    0 -0.18672940125E+02  0.36356282802E+03  0.40181512309E+03  0.54220107133E+03  0.00000000000E+00 0.  1.
          3    1    6    6  503    0  0.17775181393E+03 -0.25539907557E+03  0.18595119004E+03  0.36249446925E+03  0.00000000000E+00 0. -1.
         -3    1    6    6    0  503  0.54638405975E+02 -0.18313837794E+03  0.75017250278E+02  0.20531100487E+03  0.00000000000E+00 0.  1.
<mgrwt>
<rscale>  0 0.13747130E+04</rscale>
<asrwt>0</asrwt>
<pdfrwt beam="1">  1        2 0.30696599E+00 0.13747130E+04</pdfrwt>
<pdfrwt beam="2">  1       -1 0.36428988E-01 0.13747130E+04</pdfrwt>
<totfact> 0.53942936E+01</totfact>
</mgrwt>
</event>
<event>
12    6  0.1553355E-007  0.1705336E+04  0.7818608E-02  0.8758327E-01
          2   -1    0    0  501    0  0.00000000000E+00  0.00000000000E+00  0.78595623686E+03  0.78595623686E+03  0.00000000000E+00 0. -1.
         -1   -1    0    0    0  501 -0.00000000000E+00 -0.00000000000E+00 -0.92504275099E+03  0.92504275099E+03  0.00000000000E+00 0.  1.
         24    2    1    2    0    0  0.30857483785E+03 -0.50710464182E+03 -0.19987831194E+03  0.63124683268E+03  0.78407116229E+02 0.  0.
        254    2    1    2    0    0 -0.30857483785E+03  0.50710464182E+03  0.60791797807E+02  0.10797521552E+04  0.89988639595E+03 0.  0.
         23    2    4    4    0    0 -0.31453619240E+03  0.41439215674E+03 -0.35992428767E+03  0.63921658419E+03  0.91643181728E+02 0.  0.
         23    2    4    4    0    0  0.59613545553E+01  0.92712485082E+02  0.42071608547E+03  0.44053557098E+03  0.91860884402E+02 0.  0.
          2    1    3    3  502    0  0.25236732240E+03 -0.37778518731E+03 -0.12316456322E+03  0.47072329749E+03  0.00000000000E+00 0. -1.
         -1    1    3    3    0  502  0.56207515451E+02 -0.12931945451E+03 -0.76713748715E+02  0.16052353519E+03  0.00000000000E+00 0.  1.
         11    1    5    5    0    0 -0.18460894481E+03  0.25041888084E+03 -0.16000692699E+03  0.34984610198E+03  0.00000000000E+00 0. -1.
        -11    1    5    5    0    0 -0.12992724759E+03  0.16397327589E+03 -0.19991736068E+03  0.28937048221E+03  0.00000000000E+00 0.  1.
          3    1    6    6  503    0  0.13505461212E+02 -0.15528834746E+02  0.45336887297E+02  0.49789311513E+02  0.00000000000E+00 0. -1.
         -3    1    6    6    0  503 -0.75441066562E+01  0.10824131983E+03  0.37537919818E+03  0.39074625947E+03  0.00000000000E+00 0.  1.
<mgrwt>
<rscale>  0 0.17053365E+04</rscale>
<asrwt>0</asrwt>
<pdfrwt beam="1">  1        2 0.12091634E+00 0.17053365E+04</pdfrwt>
<pdfrwt beam="2">  1       -1 0.14231427E+00 0.17053365E+04</pdfrwt>
<totfact> 0.15376211E+01</totfact>
</mgrwt>
</event>
<event>
12    6  0.1553355E-007  0.1630143E+04  0.7818608E-02  0.8802241E-01
         -3   -1    0    0    0  501 -0.00000000000E+00  0.00000000000E+00  0.22244800256E+03  0.22244800256E+03  0.00000000000E+00 0.  1.
          2   -1    0    0  501    0  0.00000000000E+00 -0.00000000000E+00 -0.29865027203E+04  0.29865027203E+04  0.00000000000E+00 0. -1.
         24    2    1    2    0    0 -0.46932915001E+03  0.28811178741E+03 -0.11762999699E+04  0.13013497080E+04  0.80939422630E+02 0.  0.
        254    2    1    2    0    0  0.46932915001E+03 -0.28811178741E+03 -0.15877547478E+04  0.19076010149E+04  0.90260635917E+03 0.  0.
         23    2    4    4    0    0  0.55096353374E+03  0.16818640339E+03 -0.92756446376E+03  0.10957560700E+04  0.91967650745E+02 0.  0.
         23    2    4    4    0    0 -0.81634383733E+02 -0.45629819079E+03 -0.66019028406E+03  0.81184494484E+03  0.91481100580E+02 0.  0.
          4    1    3    3  502    0 -0.29968997047E+03  0.20139080664E+03 -0.84982592046E+03  0.92335065413E+03  0.00000000000E+00 0. -1.
         -1    1    3    3    0  502 -0.16963917955E+03  0.86720980765E+02 -0.32647404948E+03  0.37799905387E+03  0.00000000000E+00 0.  1.
         11    1    5    5    0    0  0.47875495047E+03  0.17398287815E+03 -0.83651158838E+03  0.97940184908E+03  0.00000000000E+00 0.  1.
        -11    1    5    5    0    0  0.72208583275E+02 -0.57964747676E+01 -0.91052875378E+02  0.11635422095E+03  0.00000000000E+00 0. -1.
          3    1    6    6  503    0 -0.81853900237E+02 -0.19908447460E+03 -0.29754784955E+03  0.36724571037E+03  0.00000000000E+00 0. -1.
         -3    1    6    6    0  503  0.21951650441E+00 -0.25721371619E+03 -0.36264243451E+03  0.44459923447E+03  0.00000000000E+00 0.  1.
<mgrwt>
<rscale>  0 0.16301430E+04</rscale>
<asrwt>0</asrwt>
<pdfrwt beam="1">  1        2 0.45946193E+00 0.16301430E+04</pdfrwt>
<pdfrwt beam="2">  1       -3 0.34222772E-01 0.16301430E+04</pdfrwt>
<totfact> 0.93372704E+00</totfact>
</mgrwt>
</event>
<event>
12    6  0.1553355E-007  0.2108400E+04  0.7818608E-02  0.8557552E-01
          2   -1    0    0  501    0  0.00000000000E+00  0.00000000000E+00  0.12422695924E+04  0.12422695924E+04  0.00000000000E+00 0. -1.
         -1   -1    0    0    0  501 -0.00000000000E+00 -0.00000000000E+00 -0.89460228689E+03  0.89460228689E+03  0.00000000000E+00 0.  1.
         24    2    1    2    0    0  0.16856577117E+03  0.83685024261E+03  0.14163898868E+03  0.86906839573E+03  0.80532760855E+02 0.  0.
        254    2    1    2    0    0 -0.16856577117E+03 -0.83685024261E+03  0.20602831678E+03  0.12678034835E+04  0.91440978655E+03 0.  0.
         23    2    4    4    0    0  0.17021048116E+03 -0.87237731272E+03  0.19767878747E+03  0.91517452721E+03  0.91944160228E+02 0.  0.
         23    2    4    4    0    0 -0.33877625233E+03  0.35527070108E+02  0.83495293101E+01  0.35262895631E+03  0.90807182172E+02 0.  0.
          2    1    3    3  502    0  0.11598590344E+03  0.49122823117E+03  0.47193718465E+02  0.50693702958E+03  0.00000000000E+00 0. -1.
         -1    1    3    3    0  502  0.52579867725E+02  0.34562201144E+03  0.94445270219E+02  0.36213136615E+03  0.00000000000E+00 0.  1.
         11    1    5    5    0    0  0.31960222379E+02 -0.16094668705E+03  0.73812516481E+02  0.17992659468E+03  0.00000000000E+00 0. -1.
        -11    1    5    5    0    0  0.13825025878E+03 -0.71143062567E+03  0.12386627099E+03  0.73524793253E+03  0.00000000000E+00 0.  1.
          3    1    6    6  503    0 -0.31244176443E+02 -0.23855935422E+02  0.16225225596E+01  0.39343827926E+02  0.00000000000E+00 0. -1.
         -3    1    6    6    0  503 -0.30753207589E+03  0.59383005530E+02  0.67270067505E+01  0.31328512838E+03  0.00000000000E+00 0.  1.
<mgrwt>
<rscale>  0 0.21083996E+04</rscale>
<asrwt>0</asrwt>
<pdfrwt beam="1">  1        2 0.19111840E+00 0.21083996E+04</pdfrwt>
<pdfrwt beam="2">  1       -1 0.13763112E+00 0.21083996E+04</pdfrwt>
<totfact> 0.82244322E+00</totfact>
</mgrwt>
</event>
<event>
12    6  0.1553355E-007  0.2363029E+04  0.7818608E-02  0.8453476E-01
         -1   -1    0    0    0  501 -0.00000000000E+00  0.00000000000E+00  0.42577189341E+03  0.42577189341E+03  0.00000000000E+00 0.  1.
          2   -1    0    0  501    0  0.00000000000E+00 -0.00000000000E+00 -0.32786948245E+04  0.32786948245E+04  0.00000000000E+00 0. -1.
         24    2    1    2    0    0 -0.66666624625E+03 -0.39758052588E+03 -0.21145277670E+03  0.80850735335E+03  0.80359848142E+02 0.  0.
        254    2    1    2    0    0  0.66666624625E+03  0.39758052588E+03 -0.26414701544E+04  0.28959593645E+04  0.89816585674E+03 0.  0.
         23    2    4    4    0    0  0.27255174070E+03  0.64836202955E+03 -0.14899199588E+04  0.16499021909E+04  0.87509902372E+02 0.  0.
         23    2    4    4    0    0  0.39411450555E+03 -0.25078150368E+03 -0.11515501955E+04  0.12460571737E+04  0.91504213698E+02 0.  0.
          4    1    3    3  502    0 -0.83374908143E+02 -0.21819099630E+02 -0.30870671969E+02  0.91544780323E+02  0.00000000000E+00 0. -1.
         -3    1    3    3    0  502 -0.58329133811E+03 -0.37576142625E+03 -0.18058210474E+03  0.71696257303E+03  0.00000000000E+00 0.  1.
         11    1    5    5    0    0  0.18190608785E+03  0.48424557320E+03 -0.11668669944E+04  0.12763863766E+04  0.00000000000E+00 0. -1.
        -11    1    5    5    0    0  0.90645652852E+02  0.16411645635E+03 -0.32305296445E+03  0.37351581422E+03  0.00000000000E+00 0.  1.
          1    1    6    6  503    0  0.31566213006E+03 -0.18253189015E+03 -0.79463162436E+03  0.87429965670E+03  0.00000000000E+00 0. -1.
         -1    1    6    6    0  503  0.78452375496E+02 -0.68249613522E+02 -0.35691857118E+03  0.37175751697E+03  0.00000000000E+00 0.  1.
<mgrwt>
<rscale>  0 0.23630287E+04</rscale>
<asrwt>0</asrwt>
<pdfrwt beam="1">  1        2 0.50441461E+00 0.23630287E+04</pdfrwt>
<pdfrwt beam="2">  1       -1 0.65503366E-01 0.23630287E+04</pdfrwt>
<totfact> 0.27934522E+00</totfact>
</mgrwt>
</event>
<event>
12    6  0.1553355E-007  0.2770937E+04  0.7818608E-02  0.8312348E-01
          2   -1    0    0  501    0  0.00000000000E+00  0.00000000000E+00  0.15457478473E+04  0.15457478473E+04  0.00000000000E+00 0. -1.
         -1   -1    0    0    0  501 -0.00000000000E+00 -0.00000000000E+00 -0.12418085557E+04  0.12418085557E+04  0.00000000000E+00 0.  1.
         24    2    1    2    0    0  0.15721127379E+03  0.28210221870E+03  0.13375279443E+04  0.13782111669E+04  0.78663665784E+02 0.  0.
        254    2    1    2    0    0 -0.15721127379E+03 -0.28210221870E+03 -0.10335886527E+04  0.14093452361E+04  0.90202629957E+03 0.  0.
         23    2    4    4    0    0  0.25337239236E+03  0.37629175707E+02 -0.77581271054E+03  0.82180643385E+03  0.88695709069E+02 0.  0.
         23    2    4    4    0    0 -0.41058366615E+03 -0.31973139441E+03 -0.25777594216E+03  0.58753880225E+03  0.89142000844E+02 0.  0.
          2    1    3    3  502    0  0.14646781533E+03  0.21922418835E+03  0.11595821742E+04  0.11891773983E+04  0.00000000000E+00 0. -1.
         -1    1    3    3    0  502  0.10743458467E+02  0.62878030346E+02  0.17794577008E+03  0.18903376865E+03  0.00000000000E+00 0.  1.
         11    1    5    5    0    0  0.28118189588E+01 -0.14291356229E+02 -0.30681662543E+02  0.33963415687E+02  0.00000000000E+00 0.  1.
        -11    1    5    5    0    0  0.25056057340E+03  0.51920531936E+02 -0.74513104800E+03  0.78784301816E+03  0.00000000000E+00 0. -1.
          3    1    6    6  503    0 -0.16846102495E+03 -0.14848356968E+03 -0.15826697644E+03  0.27472699763E+03  0.00000000000E+00 0. -1.
         -3    1    6    6    0  503 -0.24212264120E+03 -0.17124782472E+03 -0.99508965724E+02  0.31281180463E+03  0.00000000000E+00 0.  1.
<mgrwt>
<rscale>  0 0.27709370E+04</rscale>
<asrwt>0</asrwt>
<pdfrwt beam="1">  1        2 0.23780736E+00 0.27709370E+04</pdfrwt>
<pdfrwt beam="2">  1       -1 0.19104747E+00 0.27709370E+04</pdfrwt>
<totfact> 0.20640994E+00</totfact>
</mgrwt>
</event>
<event>
12    6  0.1553355E-007  0.1830988E+04  0.7818608E-02  0.8689992E-01
          2   -1    0    0  501    0  0.00000000000E+00  0.00000000000E+00  0.70502708042E+03  0.70502708042E+03  0.00000000000E+00 0. -1.
         -1   -1    0    0    0  501 -0.00000000000E+00 -0.00000000000E+00 -0.11887902748E+04  0.11887902748E+04  0.00000000000E+00 0.  1.
         24    2    1    2    0    0 -0.33335382722E+03  0.38561543430E+02  0.44150824355E+03  0.55979569386E+03  0.76353932362E+02 0.  0.
        254    2    1    2    0    0  0.33335382722E+03 -0.38561543430E+02 -0.92527143790E+03  0.13340216613E+04  0.90048586462E+03 0.  0.
         23    2    4    4    0    0 -0.30177014757E+03 -0.12231160898E+02 -0.24900492206E+03  0.40216364086E+03  0.92289325249E+02 0.  0.
         23    2    4    4    0    0  0.63512397479E+03 -0.26330382532E+02 -0.67626651584E+03  0.93185802048E+03  0.83349969934E+02 0.  0.
          2    1    3    3  502    0 -0.25369451644E+03  0.40352503326E+02  0.38202871068E+03  0.46036416887E+03  0.00000000000E+00 0. -1.
         -3    1    3    3    0  502 -0.79659310777E+02 -0.17909598963E+01  0.59479532871E+02  0.99431524988E+02  0.00000000000E+00 0.  1.
         11    1    5    5    0    0  0.64940970357E+00 -0.10754548714E+02 -0.20361173775E+02  0.23036046720E+02  0.00000000000E+00 0.  1.
        -11    1    5    5    0    0 -0.30241955728E+03 -0.14766121846E+01 -0.22864374828E+03  0.37912759414E+03  0.00000000000E+00 0. -1.
          3    1    6    6  503    0  0.50363959000E+03 -0.47505432499E+02 -0.56441485032E+03  0.75794045016E+03  0.00000000000E+00 0. -1.
         -3    1    6    6    0  503  0.13148438479E+03  0.21175049967E+02 -0.11185166552E+03  0.17391757032E+03  0.00000000000E+00 0.  1.
<mgrwt>
<rscale>  0 0.18309881E+04</rscale>
<asrwt>0</asrwt>
<pdfrwt beam="1">  1        2 0.10846571E+00 0.18309881E+04</pdfrwt>
<pdfrwt beam="2">  1       -1 0.18289081E+00 0.18309881E+04</pdfrwt>
<totfact> 0.86616498E+00</totfact>
</mgrwt>
</event>
<event>
12    6  0.1553355E-007  0.1494274E+04  0.7818608E-02  0.8888270E-01
          2   -1    0    0  501    0  0.00000000000E+00  0.00000000000E+00  0.12708940048E+04  0.12708940048E+04  0.00000000000E+00 0. -1.
         -1   -1    0    0    0  501 -0.00000000000E+00 -0.00000000000E+00 -0.43922905010E+03  0.43922905010E+03  0.00000000000E+00 0.  1.
         24    2    1    2    0    0  0.32662751974E+03  0.23124378825E+03 -0.14587660686E+02  0.40880211532E+03  0.82140997037E+02 0.  0.
        254    2    1    2    0    0 -0.32662751974E+03 -0.23124378825E+03  0.84625261543E+03  0.13013209396E+04  0.90395435311E+03 0.  0.
         23    2    4    4    0    0  0.18518416968E+03 -0.35686101630E+03  0.18567099333E+03  0.45139227290E+03  0.87397394765E+02 0.  0.
         23    2    4    4    0    0 -0.51181168941E+03  0.12561722805E+03  0.66058162209E+03  0.84992866671E+03  0.90993217596E+02 0.  0.
          4    1    3    3  502    0  0.13695732872E+03  0.14410687014E+03  0.72175184432E+01  0.19893765979E+03  0.00000000000E+00 0. -1.
         -3    1    3    3    0  502  0.18967019102E+03  0.87136918113E+02 -0.21805179129E+02  0.20986445553E+03  0.00000000000E+00 0.  1.
         11    1    5    5    0    0  0.48008516487E+02 -0.17001539369E+03  0.53614042819E+02  0.18461992670E+03  0.00000000000E+00 0.  1.
        -11    1    5    5    0    0  0.13717565319E+03 -0.18684562261E+03  0.13205695051E+03  0.26677234620E+03  0.00000000000E+00 0. -1.
          3    1    6    6  503    0 -0.38495581167E+03  0.65650256796E+02  0.43798338109E+03  0.58679670693E+03  0.00000000000E+00 0. -1.
         -3    1    6    6    0  503 -0.12685587774E+03  0.59966971257E+02  0.22259824101E+03  0.26313195978E+03  0.00000000000E+00 0.  1.
<mgrwt>
<rscale>  0 0.14942738E+04</rscale>
<asrwt>0</asrwt>
<pdfrwt beam="1">  1        2 0.19552215E+00 0.14942738E+04</pdfrwt>
<pdfrwt beam="2">  1       -1 0.67573700E-01 0.14942738E+04</pdfrwt>
<totfact> 0.42021557E+01</totfact>
</mgrwt>
</event>
<event>
12    6  0.2405977E-007  0.2582269E+04  0.7818608E-02  0.8374249E-01
          2   -1    0    0  501    0  0.00000000000E+00  0.00000000000E+00  0.18023278020E+04  0.18023278020E+04  0.00000000000E+00 0. -1.
         -1   -1    0    0    0  501 -0.00000000000E+00 -0.00000000000E+00 -0.92493065429E+03  0.92493065429E+03  0.00000000000E+00 0.  1.
         24    2    1    2    0    0 -0.37880378128E+02 -0.26836140827E+02 -0.81261021146E+03  0.82016735033E+03  0.10091593170E+03 0.  0.
        254    2    1    2    0    0  0.37880378128E+02  0.26836140827E+02  0.16900073591E+04  0.19070911059E+04  0.88244915486E+03 0.  0.
         23    2    4    4    0    0 -0.16571221310E+03 -0.92615168493E+02  0.13561259067E+02  0.21172346335E+03  0.92762116072E+02 0.  0.
         23    2    4    4    0    0  0.20359259123E+03  0.11945130932E+03  0.16764461001E+04  0.16953676426E+04  0.89896376996E+02 0.  0.
          2    1    3    3  502    0  0.14238968946E+02 -0.25460707671E+02 -0.71452609756E+02  0.77178178994E+02  0.00000000000E+00 0. -1.
         -3    1    3    3    0  502 -0.52119347074E+02 -0.13754331562E+01 -0.74115760170E+03  0.74298917133E+03  0.00000000000E+00 0.  1.
         11    1    5    5    0    0  0.51602554075E+01 -0.27038507581E+02 -0.41790207721E+01  0.27841934966E+02  0.00000000000E+00 0. -1.
        -11    1    5    5    0    0 -0.17087246851E+03 -0.65576660913E+02  0.17740279839E+02  0.18388152838E+03  0.00000000000E+00 0.  1.
          1    1    6    6  503    0  0.58869210854E+02 -0.82515823257E+01  0.37198008980E+03  0.37669995992E+03  0.00000000000E+00 0. -1.
         -1    1    6    6    0  503  0.14472338038E+03  0.12770289165E+03  0.13044660103E+04  0.13186676827E+04  0.00000000000E+00 0.  1.
<mgrwt>
<rscale>  0 0.25822690E+04</rscale>
<asrwt>0</asrwt>
<pdfrwt beam="1">  1        2 0.27728120E+00 0.25822690E+04</pdfrwt>
<pdfrwt beam="2">  1       -1 0.14229702E+00 0.25822690E+04</pdfrwt>
<totfact> 0.34837821E+00</totfact>
</mgrwt>
</event>
<event>
12    6  0.1553355E-007  0.1393191E+04  0.7818608E-02  0.8958762E-01
         -1   -1    0    0    0  501 -0.00000000000E+00  0.00000000000E+00  0.41160038817E+03  0.41160038817E+03  0.00000000000E+00 0.  1.
          2   -1    0    0  501    0  0.00000000000E+00 -0.00000000000E+00 -0.11789227009E+04  0.11789227009E+04  0.00000000000E+00 0. -1.
         24    2    1    2    0    0 -0.16581635457E+03  0.11377735791E+03  0.17081492505E+03  0.27569368269E+03  0.79930703958E+02 0.  0.
        254    2    1    2    0    0  0.16581635457E+03 -0.11377735791E+03 -0.93813723774E+03  0.13148294063E+04  0.89901865405E+03 0.  0.
         23    2    4    4    0    0  0.72093412051E+02 -0.49143907017E+03 -0.64575074016E+03  0.81951278135E+03  0.88867095267E+02 0.  0.
         23    2    4    4    0    0  0.93722942521E+02  0.37766171226E+03 -0.29238649759E+03  0.49531662500E+03  0.91849530021E+02 0.  0.
          2    1    3    3  502    0 -0.55086271718E+01  0.28542654379E+02  0.49270334285E+02  0.57206589943E+02  0.00000000000E+00 0. -1.
         -1    1    3    3    0  502 -0.16030772740E+03  0.85234703534E+02  0.12154459077E+03  0.21848709274E+03  0.00000000000E+00 0.  1.
         11    1    5    5    0    0 -0.13980128780E+02 -0.16970660951E+02 -0.22039595529E+02  0.31131834268E+02  0.00000000000E+00 0.  1.
        -11    1    5    5    0    0  0.86073540832E+02 -0.47446840922E+03 -0.62371114463E+03  0.78838094708E+03  0.00000000000E+00 0. -1.
          2    1    6    6  503    0 -0.65382186805E+01  0.15819265498E+03 -0.10826877722E+03  0.19180665399E+03  0.00000000000E+00 0. -1.
         -2    1    6    6    0  503  0.10026116120E+03  0.21946905728E+03 -0.18411772036E+03  0.30350997101E+03  0.00000000000E+00 0.  1.
<mgrwt>
<rscale>  0 0.13931906E+04</rscale>
<asrwt>0</asrwt>
<pdfrwt beam="1">  1        2 0.18137272E+00 0.13931906E+04</pdfrwt>
<pdfrwt beam="2">  1       -1 0.63323136E-01 0.13931906E+04</pdfrwt>
<totfact> 0.54769956E+01</totfact>
</mgrwt>
</event>
<event>
12    6  0.1553355E-007  0.1573704E+04  0.7818608E-02  0.8836868E-01
          2   -1    0    0  501    0  0.00000000000E+00  0.00000000000E+00  0.59902904797E+03  0.59902904797E+03  0.00000000000E+00 0. -1.
         -1   -1    0    0    0  501 -0.00000000000E+00 -0.00000000000E+00 -0.10335659028E+04  0.10335659028E+04  0.00000000000E+00 0.  1.
         24    2    1    2    0    0 -0.45998856120E+03 -0.19889905521E+03  0.14782116433E+02  0.50773838151E+03  0.80183804451E+02 0.  0.
        254    2    1    2    0    0  0.45998856120E+03  0.19889905521E+03 -0.44931897128E+03  0.11248565693E+04  0.90125715136E+03 0.  0.
         23    2    4    4    0    0  0.47665299532E+03  0.38962974177E+03 -0.60147147416E+03  0.86556005938E+03  0.91743493280E+02 0.  0.
         23    2    4    4    0    0 -0.16664434118E+02 -0.19073068656E+03  0.15215250288E+03  0.25929650988E+03  0.86188153164E+02 0.  0.
          4    1    3    3  502    0 -0.23295445135E+03 -0.12486862983E+03 -0.25606794233E+02  0.26554784697E+03  0.00000000000E+00 0. -1.
         -3    1    3    3    0  502 -0.22703410985E+03 -0.74030425381E+02  0.40388910666E+02  0.24219053455E+03  0.00000000000E+00 0.  1.
         11    1    5    5    0    0  0.29723210927E+03  0.28461787879E+03 -0.43885999980E+03  0.60162476938E+03  0.00000000000E+00 0.  1.
        -11    1    5    5    0    0  0.17942088605E+03  0.10501186298E+03 -0.16261147436E+03  0.26393529000E+03  0.00000000000E+00 0. -1.
          1    1    6    6  503    0  0.94406883335E+01  0.50787434984E+01  0.14174730814E+01  0.10813392699E+02  0.00000000000E+00 0. -1.
         -1    1    6    6    0  503 -0.26105122452E+02 -0.19580943006E+03  0.15073502980E+03  0.24848311718E+03  0.00000000000E+00 0.  1.
<mgrwt>
<rscale>  0 0.15737039E+04</rscale>
<asrwt>0</asrwt>
<pdfrwt beam="1">  1        2 0.92158315E-01 0.15737039E+04</pdfrwt>
<pdfrwt beam="2">  1       -1 0.15901014E+00 0.15737039E+04</pdfrwt>
<totfact> 0.16222121E+01</totfact>
</mgrwt>
</event>
<event>
12    6  0.1553355E-007  0.1365219E+04  0.7818608E-02  0.8979387E-01
          2   -1    0    0  501    0  0.00000000000E+00  0.00000000000E+00  0.35698709007E+03  0.35698709007E+03  0.00000000000E+00 0. -1.
         -1   -1    0    0    0  501 -0.00000000000E+00 -0.00000000000E+00 -0.13052450095E+04  0.13052450095E+04  0.00000000000E+00 0.  1.
         24    2    1    2    0    0  0.74169388954E+02  0.19043818426E+03  0.12996667006E+03  0.25463472406E+03  0.78611113015E+02 0.  0.
        254    2    1    2    0    0 -0.74169388954E+02 -0.19043818426E+03 -0.10782245895E+04  0.14075973755E+04  0.88147280498E+03 0.  0.
         23    2    4    4    0    0  0.32719167618E+03 -0.25674400448E+03 -0.80631937013E+03  0.91173045290E+03  0.90164379348E+02 0.  0.
         23    2    4    4    0    0 -0.40136106513E+03  0.66305820224E+02 -0.27190521936E+03  0.49586692262E+03  0.80401431771E+02 0.  0.
          4    1    3    3  502    0  0.24653980384E+02  0.15759099772E+03  0.96887352770E+02  0.18662770544E+03  0.00000000000E+00 0. -1.
         -3    1    3    3    0  502  0.49515408570E+02  0.32847186540E+02  0.33079317287E+02  0.68007018620E+02  0.00000000000E+00 0.  1.
         11    1    5    5    0    0  0.86629943313E+02 -0.74807507672E+02 -0.14384180766E+03  0.18382430719E+03  0.00000000000E+00 0. -1.
        -11    1    5    5    0    0  0.24056173287E+03 -0.18193649681E+03 -0.66247756247E+03  0.72790614571E+03  0.00000000000E+00 0.  1.
          2    1    6    6  503    0 -0.30157448881E+03  0.68680188908E+02 -0.23863151852E+03  0.39065220117E+03  0.00000000000E+00 0. -1.
         -2    1    6    6    0  503 -0.99786576327E+02 -0.23743686836E+01 -0.33273700835E+02  0.10521472145E+03  0.00000000000E+00 0.  1.
<mgrwt>
<rscale>  0 0.13652188E+04</rscale>
<asrwt>0</asrwt>
<pdfrwt beam="1">  1        2 0.54921091E-01 0.13652188E+04</pdfrwt>
<pdfrwt beam="2">  1       -1 0.20080692E+00 0.13652188E+04</pdfrwt>
<totfact> 0.15000174E+01</totfact>
</mgrwt>
</event>
<event>
12    6  0.1553355E-007  0.1800315E+04  0.7818608E-02  0.8706132E-01
         -1   -1    0    0    0  501 -0.00000000000E+00  0.00000000000E+00  0.25593555649E+03  0.25593555649E+03  0.00000000000E+00 0.  1.
          2   -1    0    0  501    0  0.00000000000E+00 -0.00000000000E+00 -0.31659669915E+04  0.31659669915E+04  0.00000000000E+00 0. -1.
         24    2    1    2    0    0 -0.18317181490E+03 -0.13586550656E+03  0.10685644478E+03  0.26403335434E+03  0.79271449893E+02 0.  0.
        254    2    1    2    0    0  0.18317181490E+03  0.13586550656E+03 -0.30168878798E+04  0.31578691937E+04  0.90471764401E+03 0.  0.
         23    2    4    4    0    0  0.49687625118E+03 -0.82397716950E+02 -0.13176045795E+04  0.14136216803E+04  0.92569079536E+02 0.  0.
         23    2    4    4    0    0 -0.31370443628E+03  0.21826322351E+03 -0.16992833003E+04  0.17442475134E+04  0.93735505324E+02 0.  0.
          4    1    3    3  502    0 -0.16602331480E+03 -0.14360971886E+03  0.85523816010E+02  0.23558823297E+03  0.00000000000E+00 0. -1.
         -3    1    3    3    0  502 -0.17148500100E+02  0.77442123005E+01  0.21332628768E+02  0.28445121374E+02  0.00000000000E+00 0.  1.
         11    1    5    5    0    0  0.13400253485E+03 -0.84887171692E+00 -0.45326828145E+03  0.47266217841E+03  0.00000000000E+00 0. -1.
        -11    1    5    5    0    0  0.36287371633E+03 -0.81548845233E+02 -0.86433629800E+03  0.94095950190E+03  0.00000000000E+00 0.  1.
          1    1    6    6  503    0 -0.25232786866E+03  0.20026681868E+03 -0.15235876349E+04  0.15572717917E+04  0.00000000000E+00 0.  1.
         -1    1    6    6    0  503 -0.61376567621E+02  0.17996404825E+02 -0.17569566548E+03  0.18697572170E+03  0.00000000000E+00 0. -1.
<mgrwt>
<rscale>  0 0.18003150E+04</rscale>
<asrwt>0</asrwt>
<pdfrwt beam="1">  1        2 0.48707182E+00 0.18003150E+04</pdfrwt>
<pdfrwt beam="2">  1       -1 0.39374703E-01 0.18003150E+04</pdfrwt>
<totfact> 0.92417732E+00</totfact>
</mgrwt>
</event>
<event>
12    6  0.1740807E-007  0.1973054E+04  0.7818608E-02  0.8619323E-01
         -1   -1    0    0    0  501 -0.00000000000E+00  0.00000000000E+00  0.51442479708E+03  0.51442479708E+03  0.00000000000E+00 0.  1.
          2   -1    0    0  501    0  0.00000000000E+00 -0.00000000000E+00 -0.18918912512E+04  0.18918912512E+04  0.00000000000E+00 0. -1.
         24    2    1    2    0    0 -0.61721464033E+02  0.54698715384E+03 -0.12209492315E+04  0.13416702748E+04  0.79734652602E+02 0.  0.
        254    2    1    2    0    0  0.61721464033E+02 -0.54698715384E+03 -0.15651722256E+03  0.10646457734E+04  0.89775748190E+03 0.  0.
         23    2    4    4    0    0  0.25372265836E+03  0.14332390285E+03  0.57359050020E+02  0.31106838856E+03  0.92501639182E+02 0.  0.
         23    2    4    4    0    0 -0.19200119432E+03 -0.69031105669E+03 -0.21387627258E+03  0.75357738486E+03  0.93498670507E+02 0.  0.
          4    1    3    3  502    0 -0.64634691787E+02  0.54730318048E+03 -0.12198084943E+04  0.13385257478E+04  0.00000000000E+00 0. -1.
         -3    1    3    3    0  502  0.29132277536E+01 -0.31602664898E+00 -0.11407372039E+01  0.31445270162E+01  0.00000000000E+00 0.  1.
         11    1    5    5    0    0  0.13190121999E+03  0.10575408014E+03  0.69957502608E+02  0.18296423004E+03  0.00000000000E+00 0.  1.
        -11    1    5    5    0    0  0.12182143837E+03  0.37569822710E+02 -0.12598452588E+02  0.12810415853E+03  0.00000000000E+00 0. -1.
          4    1    6    6  503    0 -0.18226062771E+03 -0.51009629576E+03 -0.14908013825E+03  0.56182030489E+03  0.00000000000E+00 0. -1.
         -4    1    6    6    0  503 -0.97405666096E+01 -0.18021476092E+03 -0.64796134330E+02  0.19175707997E+03  0.00000000000E+00 0.  1.
<mgrwt>
<rscale>  0 0.19730543E+04</rscale>
<asrwt>0</asrwt>
<pdfrwt beam="1">  1        2 0.29106020E+00 0.19730543E+04</pdfrwt>
<pdfrwt beam="2">  1       -1 0.79142276E-01 0.19730543E+04</pdfrwt>
<totfact> 0.12983196E+01</totfact>
</mgrwt>
</event>
<event>
12    6  0.1553355E-007  0.1891626E+04  0.7818608E-02  0.8659036E-01
          2   -1    0    0  501    0  0.00000000000E+00  0.00000000000E+00  0.16642418873E+04  0.16642418873E+04  0.00000000000E+00 0. -1.
         -1   -1    0    0    0  501 -0.00000000000E+00 -0.00000000000E+00 -0.53751922147E+03  0.53751922147E+03  0.00000000000E+00 0.  1.
         24    2    1    2    0    0  0.54904450833E+02 -0.18174389101E+03 -0.37747841958E+03  0.42994595545E+03  0.79487273928E+02 0.  0.
        254    2    1    2    0    0 -0.54904450833E+02  0.18174389101E+03  0.15042010855E+04  0.17718151534E+04  0.91687659561E+03 0.  0.
         23    2    4    4    0    0 -0.22097771447E+03  0.21332384939E+03  0.15427255589E+04  0.15755121510E+04  0.88871664924E+02 0.  0.
         23    2    4    4    0    0  0.16607326364E+03 -0.31579958378E+02 -0.38524473413E+02  0.19630300241E+03  0.92049503185E+02 0.  0.
          4    1    3    3  502    0  0.51008925004E+02 -0.43617017629E+02 -0.13817771851E+03  0.15361457141E+03  0.00000000000E+00 0. -1.
         -3    1    3    3    0  502  0.38955258292E+01 -0.13812687339E+03 -0.23930070107E+03  0.27633138404E+03  0.00000000000E+00 0.  1.
         11    1    5    5    0    0 -0.68237299334E+02  0.25397282847E+02  0.25396476096E+03  0.26419585691E+03  0.00000000000E+00 0.  1.
        -11    1    5    5    0    0 -0.15274041513E+03  0.18792656655E+03  0.12887607979E+04  0.13113162940E+04  0.00000000000E+00 0. -1.
          2    1    6    6  503    0  0.37136073857E+02 -0.49343238815E+02 -0.19519876066E+02  0.64767806508E+02  0.00000000000E+00 0. -1.
         -2    1    6    6    0  503  0.12893718978E+03  0.17763280437E+02 -0.19004597346E+02  0.13153519590E+03  0.00000000000E+00 0.  1.
<mgrwt>
<rscale>  0 0.18916258E+04</rscale>
<asrwt>0</asrwt>
<pdfrwt beam="1">  1        2 0.25603721E+00 0.18916258E+04</pdfrwt>
<pdfrwt beam="2">  1       -1 0.82695266E-01 0.18916258E+04</pdfrwt>
<totfact> 0.15925055E+01</totfact>
</mgrwt>
</event>
<event>
12    6  0.1642035E-007  0.2473829E+04  0.7818608E-02  0.8412369E-01
         -1   -1    0    0    0  501 -0.00000000000E+00  0.00000000000E+00  0.55702486178E+03  0.55702486178E+03  0.00000000000E+00 0.  1.
          2   -1    0    0  501    0  0.00000000000E+00 -0.00000000000E+00 -0.27466589061E+04  0.27466589061E+04  0.00000000000E+00 0. -1.
         24    2    1    2    0    0 -0.53651209222E+03  0.11972587274E+03 -0.21801073043E+04  0.22497642248E+04  0.79948103488E+02 0.  0.
        254    2    1    2    0    0  0.53651209222E+03 -0.11972587274E+03 -0.95267399554E+01  0.10539195430E+04  0.89915300960E+03 0.  0.
         23    2    4    4    0    0  0.74060430665E+03 -0.15308649444E+03  0.15156840314E+03  0.77662650972E+03  0.90804961086E+02 0.  0.
         23    2    4    4    0    0 -0.20409221443E+03  0.33360621703E+02 -0.16109514310E+03  0.27729303329E+03  0.90405852199E+02 0.  0.
          4    1    3    3  502    0 -0.45277144339E+03  0.85703487974E+02 -0.17073182382E+04  0.17684124616E+04  0.00000000000E+00 0. -1.
         -3    1    3    3    0  502 -0.83740648831E+02  0.34022384767E+02 -0.47278906610E+03  0.48135176322E+03  0.00000000000E+00 0.  1.
         11    1    5    5    0    0  0.59630513684E+03 -0.87202866760E+02  0.10950027651E+03  0.61251487063E+03  0.00000000000E+00 0. -1.
        -11    1    5    5    0    0  0.14429916982E+03 -0.65883627685E+02  0.42068126637E+02  0.16411163909E+03  0.00000000000E+00 0.  1.
          3    1    6    6  503    0 -0.19272960928E+03  0.16529795392E+02 -0.11049813667E+03  0.22277292169E+03  0.00000000000E+00 0. -1.
         -3    1    6    6    0  503 -0.11362605148E+02  0.16830826311E+02 -0.50597006427E+02  0.54520111606E+02  0.00000000000E+00 0.  1.
<mgrwt>
<rscale>  0 0.24738289E+04</rscale>
<asrwt>0</asrwt>
<pdfrwt beam="1">  1        2 0.42256291E+00 0.24738289E+04</pdfrwt>
<pdfrwt beam="2">  1       -1 0.85696132E-01 0.24738289E+04</pdfrwt>
<totfact> 0.34046184E+00</totfact>
</mgrwt>
</event>
<event>
12    6  0.1553355E-007  0.1532173E+04  0.7818608E-02  0.8863336E-01
          2   -1    0    0  501    0  0.00000000000E+00  0.00000000000E+00  0.15743403553E+04  0.15743403553E+04  0.00000000000E+00 0. -1.
         -1   -1    0    0    0  501 -0.00000000000E+00 -0.00000000000E+00 -0.37278360675E+03  0.37278360675E+03  0.00000000000E+00 0.  1.
         24    2    1    2    0    0 -0.44380216145E+03  0.40855687364E+02  0.68253810353E+03  0.82030515109E+03  0.91720948709E+02 0.  0.
        254    2    1    2    0    0  0.44380216145E+03 -0.40855687364E+02  0.51901864498E+03  0.11268188109E+04  0.89538300917E+03 0.  0.
         23    2    4    4    0    0  0.58036790838E+03  0.21958441937E+03  0.52904170028E+03  0.81996810553E+03  0.86129827267E+02 0.  0.
         23    2    4    4    0    0 -0.13656574693E+03 -0.26044010673E+03 -0.10023055296E+02  0.30685070539E+03  0.87049648671E+02 0.  0.
          4    1    3    3  502    0 -0.30041400189E+02  0.72840347065E+01  0.15343861710E+02  0.34510534321E+02  0.00000000000E+00 0. -1.
         -3    1    3    3    0  502 -0.41376076126E+03  0.33571652658E+02  0.66719424182E+03  0.78579461677E+03  0.00000000000E+00 0.  1.
         11    1    5    5    0    0  0.23783153789E+03  0.47898409660E+02  0.18626536617E+03  0.30586416053E+03  0.00000000000E+00 0. -1.
        -11    1    5    5    0    0  0.34253637049E+03  0.17168600971E+03  0.34277633411E+03  0.51410394500E+03  0.00000000000E+00 0.  1.
          2    1    6    6  503    0 -0.13040185308E+03 -0.26625260577E+03 -0.15306685823E+02  0.29686594280E+03  0.00000000000E+00 0. -1.
         -2    1    6    6    0  503 -0.61638938542E+01  0.58124990362E+01  0.52836305266E+01  0.99847625927E+01  0.00000000000E+00 0.  1.
<mgrwt>
<rscale>  0 0.15321727E+04</rscale>
<asrwt>0</asrwt>
<pdfrwt beam="1">  1        2 0.24220621E+00 0.15321727E+04</pdfrwt>
<pdfrwt beam="2">  1       -1 0.57351325E-01 0.15321727E+04</pdfrwt>
<totfact> 0.38974778E+01</totfact>
</mgrwt>
</event>
<event>
12    6  0.1553355E-007  0.1857451E+04  0.7818608E-02  0.8676330E-01
         -1   -1    0    0    0  501 -0.00000000000E+00  0.00000000000E+00  0.55834923548E+03  0.55834923548E+03  0.00000000000E+00 0.  1.
          2   -1    0    0  501    0  0.00000000000E+00 -0.00000000000E+00 -0.15447885062E+04  0.15447885062E+04  0.00000000000E+00 0. -1.
         24    2    1    2    0    0  0.27255314371E+03 -0.52411027003E+03 -0.82785657116E+03  0.10201127113E+04  0.79414420176E+02 0.  0.
        254    2    1    2    0    0 -0.27255314371E+03  0.52411027003E+03 -0.15858269956E+03  0.10830250303E+04  0.89376616206E+03 0.  0.
         23    2    4    4    0    0 -0.32558241728E+03  0.72261033730E+03 -0.25651156813E+03  0.83804799109E+03  0.91414663904E+02 0.  0.
         23    2    4    4    0    0  0.53029273572E+02 -0.19850006727E+03  0.97928868573E+02  0.24497703924E+03  0.90605220017E+02 0.  0.
          2    1    3    3  502    0  0.24622676557E+03 -0.45338696485E+03 -0.67453800256E+03  0.84922840089E+03  0.00000000000E+00 0. -1.
         -1    1    3    3    0  502  0.26326378142E+02 -0.70723305181E+02 -0.15331856860E+03  0.17088431045E+03  0.00000000000E+00 0.  1.
         11    1    5    5    0    0 -0.11268410361E+03  0.18081682803E+03 -0.99371001267E+02  0.23508940512E+03  0.00000000000E+00 0. -1.
        -11    1    5    5    0    0 -0.21289831367E+03  0.54179350926E+03 -0.15714056686E+03  0.60295858597E+03  0.00000000000E+00 0.  1.
          4    1    6    6  503    0  0.54940491118E+02 -0.13121649415E+03  0.10569180642E+03  0.17722015643E+03  0.00000000000E+00 0. -1.
         -4    1    6    6    0  503 -0.19112175465E+01 -0.67283573119E+02 -0.77629378467E+01  0.67756882810E+02  0.00000000000E+00 0.  1.
<mgrwt>
<rscale>  0 0.18574515E+04</rscale>
<asrwt>0</asrwt>
<pdfrwt beam="1">  1        2 0.23765976E+00 0.18574515E+04</pdfrwt>
<pdfrwt beam="2">  1       -1 0.85899885E-01 0.18574515E+04</pdfrwt>
<totfact> 0.17158594E+01</totfact>
</mgrwt>
</event>
<event>
12    6  0.1553355E-007  0.2379076E+04  0.7818608E-02  0.8447379E-01
         -1   -1    0    0    0  501 -0.00000000000E+00  0.00000000000E+00  0.42324856052E+03  0.42324856052E+03  0.00000000000E+00 0.  1.
          2   -1    0    0  501    0  0.00000000000E+00 -0.00000000000E+00 -0.33431913814E+04  0.33431913814E+04  0.00000000000E+00 0. -1.
         24    2    1    2    0    0  0.66459326916E+03  0.55999896883E+03 -0.41887664884E+03  0.96799706256E+03  0.79231355387E+02 0.  0.
        254    2    1    2    0    0 -0.66459326916E+03 -0.55999896883E+03 -0.25010661721E+04  0.27984428794E+04  0.90590700056E+03 0.  0.
         23    2    4    4    0    0 -0.67380726968E+03 -0.51002614024E+03 -0.10820024248E+04  0.13755935710E+04  0.85939077479E+02 0.  0.
         23    2    4    4    0    0  0.92140005240E+01 -0.49972828593E+02 -0.14190637473E+04  0.14228493084E+04  0.90421535171E+02 0.  0.
          4    1    3    3  502    0  0.12088262689E+03  0.14438577092E+03 -0.91111210492E+02  0.20919157011E+03  0.00000000000E+00 0. -1.
         -3    1    3    3    0  502  0.54371064227E+03  0.41561319791E+03 -0.32776543835E+03  0.75880549244E+03  0.00000000000E+00 0.  1.
         11    1    5    5    0    0 -0.26710725005E+03 -0.23387494091E+03 -0.39915533129E+03  0.53419916652E+03  0.00000000000E+00 0. -1.
        -11    1    5    5    0    0 -0.40670001963E+03 -0.27615119933E+03 -0.68284709347E+03  0.84139440450E+03  0.00000000000E+00 0.  1.
          3    1    6    6  503    0  0.30086193368E+02 -0.24839391659E+02 -0.12527356492E+04  0.12533430421E+04  0.00000000000E+00 0. -1.
         -3    1    6    6    0  503 -0.20872192844E+02 -0.25133436934E+02 -0.16632809810E+03  0.16950626627E+03  0.00000000000E+00 0.  1.
<mgrwt>
<rscale>  0 0.23790762E+04</rscale>
<asrwt>0</asrwt>
<pdfrwt beam="1">  1        2 0.51433714E+00 0.23790762E+04</pdfrwt>
<pdfrwt beam="2">  1       -1 0.65115163E-01 0.23790762E+04</pdfrwt>
<totfact> 0.25565960E+00</totfact>
</mgrwt>
</event>
<event>
12    6  0.1553355E-007  0.1428412E+04  0.7818608E-02  0.8933506E-01
          2   -1    0    0  501    0  0.00000000000E+00  0.00000000000E+00  0.16601556305E+04  0.16601556305E+04  0.00000000000E+00 0. -1.
         -1   -1    0    0    0  501 -0.00000000000E+00 -0.00000000000E+00 -0.30725433122E+03  0.30725433122E+03  0.00000000000E+00 0.  1.
         24    2    1    2    0    0 -0.68044157449E+02  0.31864386369E+03  0.80027621928E+03  0.86752613124E+03  0.77431531076E+02 0.  0.
        254    2    1    2    0    0  0.68044157449E+02 -0.31864386369E+03  0.55262508003E+03  0.10998838305E+04  0.89341258236E+03 0.  0.
         23    2    4    4    0    0  0.12021203372E+03  0.14907169859E+03  0.58258113130E+03  0.62014346522E+03  0.92216259632E+02 0.  0.
         23    2    4    4    0    0 -0.52167876269E+02 -0.46771556228E+03 -0.29956051265E+02  0.47974036530E+03  0.88170962184E+02 0.  0.
          2    1    3    3  502    0 -0.20853627381E+02  0.22018261331E+03  0.59926130637E+03  0.63877176698E+03  0.00000000000E+00 0. -1.
         -1    1    3    3    0  502 -0.47190530068E+02  0.98461250382E+02  0.20101491291E+03  0.22875436426E+03  0.00000000000E+00 0.  1.
         11    1    5    5    0    0  0.25382310310E+02  0.36581264139E+02  0.28191511340E+03  0.28540949831E+03  0.00000000000E+00 0.  1.
        -11    1    5    5    0    0  0.94829723408E+02  0.11249043445E+03  0.30066601790E+03  0.33473396691E+03  0.00000000000E+00 0. -1.
          2    1    6    6  503    0 -0.58814119819E+02 -0.45574856567E+03 -0.42085319311E+02  0.46145100487E+03  0.00000000000E+00 0. -1.
         -2    1    6    6    0  503  0.66462435497E+01 -0.11966996613E+02  0.12129268047E+02  0.18289360421E+02  0.00000000000E+00 0.  1.
<mgrwt>
<rscale>  0 0.14284117E+04</rscale>
<asrwt>0</asrwt>
<pdfrwt beam="1">  1        2 0.25540855E+00 0.14284117E+04</pdfrwt>
<pdfrwt beam="2">  1       -1 0.47269898E-01 0.14284117E+04</pdfrwt>
<totfact> 0.50993711E+01</totfact>
</mgrwt>
</event>
<event>
12    6  0.1553355E-007  0.4155553E+04  0.7818608E-02  0.7973881E-01
          2   -1    0    0  501    0  0.00000000000E+00  0.00000000000E+00  0.20448600828E+04  0.20448600828E+04  0.00000000000E+00 0. -1.
         -1   -1    0    0    0  501 -0.00000000000E+00 -0.00000000000E+00 -0.21112227190E+04  0.21112227190E+04  0.00000000000E+00 0.  1.
         24    2    1    2    0    0  0.49594060161E+03  0.10815386719E+04 -0.16155898474E+04  0.20080315496E+04  0.79857185100E+02 0.  0.
        254    2    1    2    0    0 -0.49594060161E+03 -0.10815386719E+04  0.15492272111E+04  0.21480512522E+04  0.89349664322E+03 0.  0.
         23    2    4    4    0    0  0.11464543649E+03  0.28457663700E+02  0.43044782988E+03  0.45548407766E+03  0.90702789482E+02 0.  0.
         23    2    4    4    0    0 -0.61058603811E+03 -0.11099963356E+04  0.11187793812E+04  0.16925671746E+04  0.90604423799E+02 0.  0.
          2    1    3    3  502    0  0.95452393316E+02  0.24644794390E+03 -0.40925525172E+03  0.48717307961E+03  0.00000000000E+00 0. -1.
         -1    1    3    3    0  502  0.40048820830E+03  0.83509072802E+03 -0.12063345956E+04  0.15208584700E+04  0.00000000000E+00 0.  1.
         11    1    5    5    0    0  0.11737118666E+03  0.14529972425E+02  0.27452260194E+03  0.29891432641E+03  0.00000000000E+00 0.  1.
        -11    1    5    5    0    0 -0.27257501657E+01  0.13927691276E+02  0.15592522794E+03  0.15656975125E+03  0.00000000000E+00 0. -1.
          3    1    6    6  503    0 -0.52720331466E+03 -0.96116709898E+03  0.92474904763E+03  0.14342058180E+04  0.00000000000E+00 0. -1.
         -3    1    6    6    0  503 -0.83382723444E+02 -0.14882923663E+03  0.19403033358E+03  0.25836135662E+03  0.00000000000E+00 0.  1.
<mgrwt>
<rscale>  0 0.41555529E+04</rscale>
<asrwt>0</asrwt>
<pdfrwt beam="1">  1        2 0.31459386E+00 0.41555529E+04</pdfrwt>
<pdfrwt beam="2">  1       -1 0.32480349E+00 0.41555529E+04</pdfrwt>
<totfact> 0.12728383E-01</totfact>
</mgrwt>
</event>
<event>
12    6  0.1553355E-007  0.2468559E+04  0.7818608E-02  0.8414273E-01
         -1   -1    0    0    0  501 -0.00000000000E+00  0.00000000000E+00  0.60380114948E+03  0.60380114948E+03  0.00000000000E+00 0.  1.
          2   -1    0    0  501    0  0.00000000000E+00 -0.00000000000E+00 -0.25230921456E+04  0.25230921456E+04  0.00000000000E+00 0. -1.
         24    2    1    2    0    0 -0.44970482867E+03  0.20001500985E+03 -0.20333369832E+04  0.20936239907E+04  0.81004258934E+02 0.  0.
        254    2    1    2    0    0  0.44970482867E+03 -0.20001500985E+03  0.11404598714E+03  0.10332693043E+04  0.90133153224E+03 0.  0.
         23    2    4    4    0    0  0.14874389959E+02  0.33917447286E+02 -0.34172270275E+03  0.35542808681E+03  0.90460370404E+02 0.  0.
         23    2    4    4    0    0  0.43483043871E+03 -0.23393245713E+03  0.45576868990E+03  0.67784121753E+03  0.89116286721E+02 0.  0.
          2    1    3    3  502    0 -0.38795585049E+03  0.15146310043E+03 -0.16056600929E+04  0.16587932803E+04  0.00000000000E+00 0. -1.
         -1    1    3    3    0  502 -0.61748978183E+02  0.48551909421E+02 -0.42767689031E+03  0.43483071041E+03  0.00000000000E+00 0.  1.
         11    1    5    5    0    0 -0.80207786075E+01  0.26032202488E+02 -0.32467114902E+03  0.32581185286E+03  0.00000000000E+00 0.  1.
        -11    1    5    5    0    0  0.22895168567E+02  0.78852447977E+01 -0.17051553733E+02  0.29616233959E+02  0.00000000000E+00 0. -1.
          4    1    6    6  503    0  0.40037751686E+02 -0.46278591384E+02  0.32126391434E+02  0.69114648282E+02  0.00000000000E+00 0. -1.
         -4    1    6    6    0  503  0.39479268703E+03 -0.18765386575E+03  0.42364229846E+03  0.60872656925E+03  0.00000000000E+00 0.  1.
<mgrwt>
<rscale>  0 0.24685590E+04</rscale>
<asrwt>0</asrwt>
<pdfrwt beam="1">  1        2 0.38816802E+00 0.24685590E+04</pdfrwt>
<pdfrwt beam="2">  1       -1 0.92892484E-01 0.24685590E+04</pdfrwt>
<totfact> 0.38646803E+00</totfact>
</mgrwt>
</event>
<event>
12    6  0.1553355E-007  0.1542435E+04  0.7818608E-02  0.8856715E-01
          2   -1    0    0  501    0  0.00000000000E+00  0.00000000000E+00  0.63264840023E+03  0.63264840023E+03  0.00000000000E+00 0. -1.
         -1   -1    0    0    0  501 -0.00000000000E+00 -0.00000000000E+00 -0.94013685700E+03  0.94013685700E+03  0.00000000000E+00 0.  1.
         24    2    1    2    0    0  0.17975695713E+03 -0.47114492682E+03 -0.16802655079E+03  0.53742208046E+03  0.79369169618E+02 0.  0.
        254    2    1    2    0    0 -0.17975695713E+03  0.47114492682E+03 -0.13946190598E+03  0.10353631768E+04  0.89344120058E+03 0.  0.
         23    2    4    4    0    0 -0.47258773356E+03  0.57124581361E+02 -0.17909302000E+03  0.51694884716E+03  0.92517117653E+02 0.  0.
         23    2    4    4    0    0  0.29283077644E+03  0.41402034546E+03  0.39631114025E+02  0.51841432961E+03  0.10010035895E+03 0.  0.
          4    1    3    3  502    0  0.14503915997E+03 -0.36140511507E+03 -0.16315095216E+03  0.42221824725E+03  0.00000000000E+00 0. -1.
         -3    1    3    3    0  502  0.34717797152E+02 -0.10973981176E+03 -0.48755986374E+01  0.11520383321E+03  0.00000000000E+00 0.  1.
         11    1    5    5    0    0 -0.44077702469E+03  0.48830697349E+02 -0.18978938833E+03  0.48237831048E+03  0.00000000000E+00 0.  1.
        -11    1    5    5    0    0 -0.31810708877E+02  0.82938840121E+01  0.10696368330E+02  0.34570536686E+02  0.00000000000E+00 0. -1.
          1    1    6    6  503    0  0.91991414372E+02  0.18569575125E+03  0.53448242689E+02  0.21401412803E+03  0.00000000000E+00 0. -1.
         -1    1    6    6    0  503  0.20083936207E+03  0.22832459421E+03 -0.13817128664E+02  0.30440020158E+03  0.00000000000E+00 0.  1.
<mgrwt>
<rscale>  0 0.15424345E+04</rscale>
<asrwt>0</asrwt>
<pdfrwt beam="1">  1        2 0.97330524E-01 0.15424345E+04</pdfrwt>
<pdfrwt beam="2">  1       -1 0.14463644E+00 0.15424345E+04</pdfrwt>
<totfact> 0.19677998E+01</totfact>
</mgrwt>
</event>
<event>
12    6  0.1553355E-007  0.1657836E+04  0.7818608E-02  0.8785784E-01
          2   -1    0    0  501    0  0.00000000000E+00  0.00000000000E+00  0.11284115551E+04  0.11284115551E+04  0.00000000000E+00 0. -1.
         -1   -1    0    0    0  501 -0.00000000000E+00 -0.00000000000E+00 -0.60891387494E+03  0.60891387494E+03  0.00000000000E+00 0.  1.
         24    2    1    2    0    0  0.27124595214E+02  0.73467333428E+00 -0.42934363528E+03  0.43755128582E+03  0.79867935761E+02 0.  0.
        254    2    1    2    0    0 -0.27124595214E+02 -0.73467333428E+00  0.94884131548E+03  0.12997741443E+04  0.88790579495E+03 0.  0.
         23    2    4    4    0    0  0.20601603764E+03  0.17242673207E+03 -0.20140063212E+02  0.28398512709E+03  0.89823964322E+02 0.  0.
         23    2    4    4    0    0 -0.23314063285E+03 -0.17316140540E+03  0.96898137870E+03  0.10157890172E+04  0.92536415170E+02 0.  0.
          4    1    3    3  502    0  0.25841092570E+02 -0.18257606072E+02 -0.61013024871E+02  0.68729116455E+02  0.00000000000E+00 0. -1.
         -3    1    3    3    0  502  0.12835026434E+01  0.18992279407E+02 -0.36833061041E+03  0.36882216937E+03  0.00000000000E+00 0.  1.
         11    1    5    5    0    0  0.62291657492E+02  0.10993231835E+03 -0.37880117458E+01  0.12641089448E+03  0.00000000000E+00 0. -1.
        -11    1    5    5    0    0  0.14372438015E+03  0.62494413715E+02 -0.16352051467E+02  0.15757423261E+03  0.00000000000E+00 0.  1.
          1    1    6    6  503    0 -0.19918742416E+02 -0.80957133844E+01  0.19498237866E+03  0.19616428029E+03  0.00000000000E+00 0. -1.
         -1    1    6    6    0  503 -0.21322189044E+03 -0.16506569202E+03  0.77399900004E+03  0.81962473688E+03  0.00000000000E+00 0.  1.
<mgrwt>
<rscale>  0 0.16578365E+04</rscale>
<asrwt>0</asrwt>
<pdfrwt beam="1">  1        2 0.17360178E+00 0.16578365E+04</pdfrwt>
<pdfrwt beam="2">  1       -1 0.93679058E-01 0.16578365E+04</pdfrwt>
<totfact> 0.25180668E+01</totfact>
</mgrwt>
</event>
<event>
12    6  0.1553355E-007  0.2287935E+04  0.7818608E-02  0.8482693E-01
         -1   -1    0    0    0  501 -0.00000000000E+00  0.00000000000E+00  0.13783597485E+04  0.13783597485E+04  0.00000000000E+00 0.  1.
          2   -1    0    0  501    0  0.00000000000E+00 -0.00000000000E+00 -0.94943411274E+03  0.94943411274E+03  0.00000000000E+00 0. -1.
         24    2    1    2    0    0 -0.66746472335E+03 -0.70471475999E+03  0.25906487079E+03  0.10076540509E+04  0.78230615752E+02 0.  0.
        254    2    1    2    0    0  0.66746472335E+03  0.70471475999E+03  0.16986076501E+03  0.13201398103E+04  0.87851260064E+03 0.  0.
         23    2    4    4    0    0  0.78784226104E+02 -0.18580819018E+03 -0.45713098333E+02  0.22721725086E+03  0.93842175547E+02 0.  0.
         23    2    4    4    0    0  0.58868049725E+03  0.89052295017E+03  0.21557386334E+03  0.10929225595E+04  0.91824712600E+02 0.  0.
          2    1    3    3  502    0 -0.29983841093E+03 -0.30318384376E+03  0.74852657535E+02  0.43292774931E+03  0.00000000000E+00 0. -1.
         -1    1    3    3    0  502 -0.36762631242E+03 -0.40153091623E+03  0.18421221326E+03  0.57472630163E+03  0.00000000000E+00 0.  1.
         11    1    5    5    0    0  0.66221420062E+02 -0.15532899648E+03  0.24241123322E+01  0.16887347318E+03  0.00000000000E+00 0.  1.
        -11    1    5    5    0    0  0.12562806042E+02 -0.30479193697E+02 -0.48137210665E+02  0.58343777686E+02  0.00000000000E+00 0. -1.
          1    1    6    6  503    0  0.88362350991E+02  0.12729856956E+03  0.64766175557E+02  0.16795085109E+03  0.00000000000E+00 0. -1.
         -1    1    6    6    0  503  0.50031814626E+03  0.76322438061E+03  0.15080768778E+03  0.92497170839E+03  0.00000000000E+00 0.  1.
<mgrwt>
<rscale>  0 0.22879351E+04</rscale>
<asrwt>0</asrwt>
<pdfrwt beam="1">  1        2 0.14606679E+00 0.22879351E+04</pdfrwt>
<pdfrwt beam="2">  1       -1 0.21205534E+00 0.22879351E+04</pdfrwt>
<totfact> 0.35010950E+00</totfact>
</mgrwt>
</event>
<event>
12    6  0.1553355E-007  0.1689378E+04  0.7818608E-02  0.8767446E-01
         -1   -1    0    0    0  501 -0.00000000000E+00  0.00000000000E+00  0.28395796294E+03  0.28395796294E+03  0.00000000000E+00 0.  1.
          2   -1    0    0  501    0  0.00000000000E+00 -0.00000000000E+00 -0.25126930039E+04  0.25126930039E+04  0.00000000000E+00 0. -1.
         24    2    1    2    0    0 -0.45478484363E+03  0.38597225167E+03 -0.86518145278E+03  0.10539240606E+04  0.80082121354E+02 0.  0.
        254    2    1    2    0    0  0.45478484363E+03 -0.38597225167E+03 -0.13635535881E+04  0.17427269062E+04  0.90665034544E+03 0.  0.
         23    2    4    4    0    0  0.47836175115E+03 -0.15938185777E+03 -0.14027241751E+04  0.14932752745E+04  0.89461682201E+02 0.  0.
         23    2    4    4    0    0 -0.23576907515E+02 -0.22659039390E+03  0.39170586974E+02  0.24945163167E+03  0.93769421914E+02 0.  0.
          4    1    3    3  502    0 -0.32284534987E+01  0.21540436407E+01  0.13561650863E+01  0.41112041717E+01  0.00000000000E+00 0. -1.
         -3    1    3    3    0  502 -0.45155639013E+03  0.38381820803E+03 -0.86653761787E+03  0.10498128564E+04  0.00000000000E+00 0.  1.
         11    1    5    5    0    0  0.58553827975E+02 -0.38599928259E+02 -0.27765463895E+03  0.28637493564E+03  0.00000000000E+00 0.  1.
        -11    1    5    5    0    0  0.41980792317E+03 -0.12078192952E+03 -0.11250695362E+04  0.12069003389E+04  0.00000000000E+00 0. -1.
          2    1    6    6  503    0 -0.36058257707E+02 -0.23027269086E+03  0.39661598143E+02  0.23642917010E+03  0.00000000000E+00 0. -1.
         -2    1    6    6    0  503  0.12481350192E+02  0.36822969639E+01 -0.49101116882E+00  0.13022461577E+02  0.00000000000E+00 0.  1.
<mgrwt>
<rscale>  0 0.16893776E+04</rscale>
<asrwt>0</asrwt>
<pdfrwt beam="1">  1        2 0.38656815E+00 0.16893776E+04</pdfrwt>
<pdfrwt beam="2">  1       -1 0.43685841E-01 0.16893776E+04</pdfrwt>
<totfact> 0.19244023E+01</totfact>
</mgrwt>
</event>
<event>
12    6  0.1553355E-007  0.2678790E+04  0.7818608E-02  0.8341920E-01
          2   -1    0    0  501    0  0.00000000000E+00  0.00000000000E+00  0.68922542682E+03  0.68922542682E+03  0.00000000000E+00 0. -1.
         -1   -1    0    0    0  501 -0.00000000000E+00 -0.00000000000E+00 -0.26028923800E+04  0.26028923800E+04  0.00000000000E+00 0.  1.
         24    2    1    2    0    0  0.55127686043E+01 -0.13405127822E+03  0.59982414929E+03  0.61976178202E+03  0.79470249605E+02 0.  0.
        254    2    1    2    0    0 -0.55127686043E+01  0.13405127822E+03 -0.25134911025E+04  0.26723560248E+04  0.89769096314E+03 0.  0.
         23    2    4    4    0    0 -0.38242540324E+03 -0.11781587213E+03 -0.81951076920E+03  0.91648948424E+03  0.90693467912E+02 0.  0.
         23    2    4    4    0    0  0.37691263464E+03  0.25186715035E+03 -0.16939803333E+04  0.17558665405E+04  0.89430102220E+02 0.  0.
          2    1    3    3  502    0  0.22089575194E+02 -0.63125336176E+02  0.42715317023E+03  0.43235701479E+03  0.00000000000E+00 0. -1.
         -1    1    3    3    0  502 -0.16576806590E+02 -0.70925942045E+02  0.17267097905E+03  0.18740476723E+03  0.00000000000E+00 0.  1.
         11    1    5    5    0    0 -0.10261403013E+03 -0.52613753554E+01 -0.28213791791E+03  0.30026509283E+03  0.00000000000E+00 0.  1.
        -11    1    5    5    0    0 -0.27981137312E+03 -0.11255449677E+03 -0.53737285129E+03  0.61622439142E+03  0.00000000000E+00 0. -1.
          3    1    6    6  503    0  0.29358426021E+03  0.22325063458E+03 -0.12522685311E+04  0.13054535754E+04  0.00000000000E+00 0. -1.
         -3    1    6    6    0  503  0.83328374426E+02  0.28616515764E+02 -0.44171180217E+03  0.45041296511E+03  0.00000000000E+00 0.  1.
<mgrwt>
<rscale>  0 0.26787905E+04</rscale>
<asrwt>0</asrwt>
<pdfrwt beam="1">  1        2 0.10603468E+00 0.26787905E+04</pdfrwt>
<pdfrwt beam="2">  1       -1 0.40044499E+00 0.26787905E+04</pdfrwt>
<totfact> 0.29742549E-01</totfact>
</mgrwt>
</event>
<event>
12    6  0.1553355E-007  0.2813804E+04  0.7818608E-02  0.8298995E-01
         -1   -1    0    0    0  501 -0.00000000000E+00  0.00000000000E+00  0.40457850490E+03  0.40457850490E+03  0.00000000000E+00 0.  1.
          2   -1    0    0  501    0  0.00000000000E+00 -0.00000000000E+00 -0.48924339489E+04  0.48924339489E+04  0.00000000000E+00 0. -1.
         24    2    1    2    0    0  0.91796614257E+03 -0.86400617437E+03 -0.22519327267E+04  0.25820181582E+04  0.80301031013E+02 0.  0.
        254    2    1    2    0    0 -0.91796614257E+03  0.86400617437E+03 -0.22359227173E+04  0.27149942956E+04  0.88468927820E+03 0.  0.
         23    2    4    4    0    0 -0.10287272384E+04  0.92273451689E+03 -0.19884602612E+04  0.24232349292E+04  0.91512797901E+02 0.  0.
         23    2    4    4    0    0  0.11076109581E+03 -0.58728342525E+02 -0.24746245612E+03  0.29175936636E+03  0.90381536325E+02 0.  0.
          2    1    3    3  502    0  0.56010606500E+03 -0.54820905936E+03 -0.14718836601E+04  0.16675411496E+04  0.00000000000E+00 0. -1.
         -1    1    3    3    0  502  0.35786007757E+03 -0.31579711501E+03 -0.78004906664E+03  0.91447700864E+03  0.00000000000E+00 0.  1.
         11    1    5    5    0    0 -0.54636316733E+03  0.49068397389E+03 -0.97650248611E+03  0.12218185537E+04  0.00000000000E+00 0. -1.
        -11    1    5    5    0    0 -0.48236407105E+03  0.43205054301E+03 -0.10119577751E+04  0.12014163755E+04  0.00000000000E+00 0.  1.
          4    1    6    6  503    0  0.44384679564E+02 -0.65761574647E+02 -0.18071481084E+03  0.19736369306E+03  0.00000000000E+00 0. -1.
         -4    1    6    6    0  503  0.66376416245E+02  0.70332321214E+01 -0.66747645277E+02  0.94395673300E+02  0.00000000000E+00 0.  1.
<mgrwt>
<rscale>  0 0.28138043E+04</rscale>
<asrwt>0</asrwt>
<pdfrwt beam="1">  1        2 0.75268215E+00 0.28138043E+04</pdfrwt>
<pdfrwt beam="2">  1       -1 0.62242846E-01 0.28138043E+04</pdfrwt>
<totfact> 0.12058795E-01</totfact>
</mgrwt>
</event>
<event>
12    6  0.1553355E-007  0.2464635E+04  0.7818608E-02  0.8415694E-01
         -1   -1    0    0    0  501 -0.00000000000E+00  0.00000000000E+00  0.91969070917E+03  0.91969070917E+03  0.00000000000E+00 0.  1.
          2   -1    0    0  501    0  0.00000000000E+00 -0.00000000000E+00 -0.16512136376E+04  0.16512136376E+04  0.00000000000E+00 0. -1.
         24    2    1    2    0    0 -0.57389084832E+03  0.45077749807E+03  0.48732280514E+03  0.88113880455E+03  0.79818656516E+02 0.  0.
        254    2    1    2    0    0  0.57389084832E+03 -0.45077749807E+03 -0.12188457335E+04  0.16897655422E+04  0.91497082294E+03 0.  0.
         23    2    4    4    0    0 -0.13129480290E+03  0.12089040457E+03 -0.49460710127E+02  0.20659350953E+03  0.91551631043E+02 0.  0.
         23    2    4    4    0    0  0.70518565122E+03 -0.57166790264E+03 -0.11693850234E+04  0.14831720327E+04  0.90812729614E+02 0.  0.
          4    1    3    3  502    0 -0.26319390649E+03  0.15967138826E+03  0.22072001127E+03  0.37879190596E+03  0.00000000000E+00 0. -1.
         -3    1    3    3    0  502 -0.31069694183E+03  0.29110610981E+03  0.26660279387E+03  0.50234689859E+03  0.00000000000E+00 0.  1.
         11    1    5    5    0    0 -0.77874569987E+02  0.34225473921E+02 -0.60216983863E+02  0.10422052035E+03  0.00000000000E+00 0. -1.
        -11    1    5    5    0    0 -0.53420232915E+02  0.86664930650E+02  0.10756273737E+02  0.10237298918E+03  0.00000000000E+00 0.  1.
          4    1    6    6  503    0  0.57447552701E+03 -0.42217715654E+03 -0.94012469332E+03  0.11798686883E+04  0.00000000000E+00 0. -1.
         -4    1    6    6    0  503  0.13071012421E+03 -0.14949074610E+03 -0.22926033009E+03  0.30330334435E+03  0.00000000000E+00 0.  1.
<mgrwt>
<rscale>  0 0.24646345E+04</rscale>
<asrwt>0</asrwt>
<pdfrwt beam="1">  1        2 0.25403287E+00 0.24646345E+04</pdfrwt>
<pdfrwt beam="2">  1       -1 0.14149088E+00 0.24646345E+04</pdfrwt>
<totfact> 0.43350856E+00</totfact>
</mgrwt>
</event>
<event>
12    6  0.1553355E-007  0.1603131E+04  0.7818608E-02  0.8818627E-01
         -1   -1    0    0    0  501 -0.00000000000E+00  0.00000000000E+00  0.12234021395E+04  0.12234021395E+04  0.00000000000E+00 0.  1.
          2   -1    0    0  501    0  0.00000000000E+00 -0.00000000000E+00 -0.52518044958E+03  0.52518044958E+03  0.00000000000E+00 0. -1.
         24    2    1    2    0    0  0.13072641141E+03  0.54768635736E+02 -0.33395301544E+03  0.37170995664E+03  0.80960961204E+02 0.  0.
        254    2    1    2    0    0 -0.13072641141E+03 -0.54768635736E+02  0.10321747053E+04  0.13768726324E+04  0.90016922044E+03 0.  0.
         23    2    4    4    0    0  0.23280126616E+03  0.25267644056E+03  0.71316543409E+03  0.79656679394E+03  0.88723771774E+02 0.  0.
         23    2    4    4    0    0 -0.36352767758E+03 -0.30744507630E+03  0.31900927123E+03  0.58030583846E+03  0.91176223387E+02 0.  0.
          2    1    3    3  502    0  0.95582477679E+02 -0.16455871693E+01 -0.21838969509E+03  0.23839626029E+03  0.00000000000E+00 0. -1.
         -1    1    3    3    0  502  0.35143933735E+02  0.56414222905E+02 -0.11556332035E+03  0.13331369635E+03  0.00000000000E+00 0.  1.
         11    1    5    5    0    0  0.20312268118E+03  0.25366201556E+03  0.66021890348E+03  0.73586156460E+03  0.00000000000E+00 0. -1.
        -11    1    5    5    0    0  0.29678584981E+02 -0.98557499906E+00  0.52946530612E+02  0.60705229334E+02  0.00000000000E+00 0.  1.
          4    1    6    6  503    0 -0.11138230655E+03 -0.10595946837E+03  0.15483629327E+03  0.21819189917E+03  0.00000000000E+00 0. -1.
         -4    1    6    6    0  503 -0.25214537103E+03 -0.20148560793E+03  0.16417297795E+03  0.36211393928E+03  0.00000000000E+00 0.  1.
<mgrwt>
<rscale>  0 0.16031305E+04</rscale>
<asrwt>0</asrwt>
<pdfrwt beam="1">  1        2 0.80796993E-01 0.16031305E+04</pdfrwt>
<pdfrwt beam="2">  1       -1 0.18821571E+00 0.16031305E+04</pdfrwt>
<totfact> 0.11585195E+01</totfact>
</mgrwt>
</event>
<event>
12    6  0.1553355E-007  0.2199346E+04  0.7818608E-02  0.8518700E-01
         -1   -1    0    0    0  501 -0.00000000000E+00  0.00000000000E+00  0.93179709717E+03  0.93179709717E+03  0.00000000000E+00 0.  1.
          2   -1    0    0  501    0  0.00000000000E+00 -0.00000000000E+00 -0.12977943700E+04  0.12977943700E+04  0.00000000000E+00 0. -1.
         24    2    1    2    0    0 -0.41080150624E+03  0.67146886630E+03 -0.61811650847E+03  0.10040397623E+04  0.79996939876E+02 0.  0.
        254    2    1    2    0    0  0.41080150624E+03 -0.67146886630E+03  0.25211923568E+03  0.12255517048E+04  0.90486714836E+03 0.  0.
         23    2    4    4    0    0  0.19688247560E+03  0.14097553100E+03 -0.13876672074E+03  0.29450263184E+03  0.94014827745E+02 0.  0.
         23    2    4    4    0    0  0.21391903064E+03 -0.81244439730E+03  0.39088595642E+03  0.93104907295E+03  0.90737505727E+02 0.  0.
          4    1    3    3  502    0 -0.24074450811E+03  0.37171112838E+03 -0.29899412642E+03  0.53434499042E+03  0.00000000000E+00 0. -1.
         -3    1    3    3    0  502 -0.17005699813E+03  0.29975773792E+03 -0.31912238204E+03  0.46969477193E+03  0.00000000000E+00 0.  1.
         11    1    5    5    0    0  0.11006201452E+03  0.13101408074E+03 -0.77915714131E+02  0.18801381572E+03  0.00000000000E+00 0. -1.
        -11    1    5    5    0    0  0.86820461081E+02  0.99614502608E+01 -0.60851006606E+02  0.10648881612E+03  0.00000000000E+00 0.  1.
          2    1    6    6  503    0  0.18454607165E+03 -0.53499031561E+03  0.26821567332E+03  0.62626794407E+03  0.00000000000E+00 0. -1.
         -2    1    6    6    0  503  0.29372958995E+02 -0.27745408169E+03  0.12267028310E+03  0.30478112889E+03  0.00000000000E+00 0.  1.
<mgrwt>
<rscale>  0 0.21993463E+04</rscale>
<asrwt>0</asrwt>
<pdfrwt beam="1">  1        2 0.19966067E+00 0.21993463E+04</pdfrwt>
<pdfrwt beam="2">  1       -1 0.14335340E+00 0.21993463E+04</pdfrwt>
<totfact> 0.68035227E+00</totfact>
</mgrwt>
</event>
<event>
12    6  0.1553355E-007  0.1707447E+04  0.7818608E-02  0.8757128E-01
          2   -1    0    0  501    0  0.00000000000E+00  0.00000000000E+00  0.28928902074E+04  0.28928902074E+04  0.00000000000E+00 0. -1.
         -1   -1    0    0    0  501 -0.00000000000E+00 -0.00000000000E+00 -0.25194324758E+03  0.25194324758E+03  0.00000000000E+00 0.  1.
         24    2    1    2    0    0  0.14389472146E+03 -0.29632637788E+03  0.16051974686E+01  0.33878070664E+03  0.79087150915E+02 0.  0.
        254    2    1    2    0    0 -0.14389472146E+03  0.29632637788E+03  0.26393417624E+04  0.28060527483E+04  0.89403136125E+03 0.  0.
         23    2    4    4    0    0 -0.16478005283E+03  0.36736721405E+03  0.44181775939E+03  0.60531304420E+03  0.95340511880E+02 0.  0.
         23    2    4    4    0    0  0.20885331364E+02 -0.71040836170E+02  0.21975240030E+04  0.22007397041E+04  0.93061830597E+02 0.  0.
          2    1    3    3  502    0  0.53844783750E+02 -0.51611658425E+02  0.20465188011E+02  0.77342407144E+02  0.00000000000E+00 0. -1.
         -1    1    3    3    0  502  0.90049937713E+02 -0.24471471945E+03 -0.18859990542E+02  0.26143829949E+03  0.00000000000E+00 0.  1.
         11    1    5    5    0    0 -0.17431403276E+03  0.36338866670E+03  0.43455758475E+03  0.59268625728E+03  0.00000000000E+00 0. -1.
        -11    1    5    5    0    0  0.95339799282E+01  0.39785473436E+01  0.72601746345E+01  0.12626786921E+02  0.00000000000E+00 0.  1.
          2    1    6    6  503    0 -0.12419512544E+02 -0.65464517010E+02  0.19219135348E+04  0.19230682470E+04  0.00000000000E+00 0. -1.
         -2    1    6    6    0  503  0.33304843907E+02 -0.55763191595E+01  0.27561046813E+03  0.27767145713E+03  0.00000000000E+00 0.  1.
<mgrwt>
<rscale>  0 0.17074474E+04</rscale>
<asrwt>0</asrwt>
<pdfrwt beam="1">  1        2 0.44506001E+00 0.17074474E+04</pdfrwt>
<pdfrwt beam="2">  1       -1 0.38760502E-01 0.17074474E+04</pdfrwt>
<totfact> 0.14233446E+01</totfact>
</mgrwt>
</event>
<event>
12    6  0.1553355E-007  0.2073778E+04  0.7818608E-02  0.8572883E-01
         -1   -1    0    0    0  501 -0.00000000000E+00  0.00000000000E+00  0.58148592706E+03  0.58148592706E+03  0.00000000000E+00 0.  1.
          2   -1    0    0  501    0  0.00000000000E+00 -0.00000000000E+00 -0.18489510292E+04  0.18489510292E+04  0.00000000000E+00 0. -1.
         24    2    1    2    0    0 -0.28835192213E+03  0.54200061829E+03  0.15250446241E+03  0.63755300873E+03  0.79402308949E+02 0.  0.
        254    2    1    2    0    0  0.28835192213E+03 -0.54200061829E+03 -0.14199695645E+04  0.17928839475E+04  0.90620515552E+03 0.  0.
         23    2    4    4    0    0 -0.22793142381E+03 -0.40271651719E+03 -0.10042758849E+04  0.11094390766E+04  0.90286679952E+02 0.  0.
         23    2    4    4    0    0  0.51628334594E+03 -0.13928410110E+03 -0.41569367962E+03  0.68344487089E+03  0.91362476731E+02 0.  0.
          4    1    3    3  502    0 -0.21277218680E+03  0.31915058189E+03  0.87634070393E+02  0.39345752972E+03  0.00000000000E+00 0. -1.
         -3    1    3    3    0  502 -0.75579735328E+02  0.22285003640E+03  0.64870392015E+02  0.24409547901E+03  0.00000000000E+00 0.  1.
         11    1    5    5    0    0 -0.18823093820E+03 -0.25505800059E+03 -0.63385866288E+03  0.70870464530E+03  0.00000000000E+00 0.  1.
        -11    1    5    5    0    0 -0.39700485612E+02 -0.14765851660E+03 -0.37041722204E+03  0.40073443135E+03  0.00000000000E+00 0. -1.
          1    1    6    6  503    0  0.18400836252E+03 -0.57304393365E+02 -0.20588669925E+03  0.28201454555E+03  0.00000000000E+00 0. -1.
         -1    1    6    6    0  503  0.33227498342E+03 -0.81979707733E+02 -0.20980698037E+03  0.40143032533E+03  0.00000000000E+00 0.  1.
<mgrwt>
<rscale>  0 0.20737782E+04</rscale>
<asrwt>0</asrwt>
<pdfrwt beam="1">  1        2 0.28445401E+00 0.20737782E+04</pdfrwt>
<pdfrwt beam="2">  1       -1 0.89459373E-01 0.20737782E+04</pdfrwt>
<totfact> 0.10432945E+01</totfact>
</mgrwt>
</event>
<event>
12    6  0.1553355E-007  0.1290936E+04  0.7818608E-02  0.9036784E-01
         -1   -1    0    0    0  501 -0.00000000000E+00  0.00000000000E+00  0.12447772560E+03  0.12447772560E+03  0.00000000000E+00 0.  1.
          2   -1    0    0  501    0  0.00000000000E+00 -0.00000000000E+00 -0.33470137155E+04  0.33470137155E+04  0.00000000000E+00 0. -1.
         24    2    1    2    0    0  0.53246349827E+02  0.28053855424E+03 -0.15870435913E+04  0.16144192498E+04  0.78135135234E+02 0.  0.
        254    2    1    2    0    0 -0.53246349827E+02 -0.28053855424E+03 -0.16354923986E+04  0.18570721913E+04  0.83207252299E+03 0.  0.
         23    2    4    4    0    0 -0.30365933388E+03 -0.33200641259E+03 -0.45623500123E+03  0.64713487756E+03  0.90531344596E+02 0.  0.
         23    2    4    4    0    0  0.25041298405E+03  0.51467858345E+02 -0.11792573974E+04  0.12099373137E+04  0.89132995184E+02 0.  0.
          2    1    3    3  502    0  0.25434591139E+02  0.16080469959E+03 -0.11060334547E+04  0.11179512838E+04  0.00000000000E+00 0. -1.
         -1    1    3    3    0  502  0.27811758688E+02  0.11973385466E+03 -0.48101013654E+03  0.49646796606E+03  0.00000000000E+00 0.  1.
         11    1    5    5    0    0 -0.13249456192E+03 -0.20903302159E+03 -0.26416601549E+03  0.36198521626E+03  0.00000000000E+00 0.  1.
        -11    1    5    5    0    0 -0.17116477196E+03 -0.12297339100E+03 -0.19206898574E+03  0.28514966130E+03  0.00000000000E+00 0. -1.
          3    1    6    6  503    0  0.65054762593E+02 -0.25664551728E+02 -0.31382624269E+03  0.32152403014E+03  0.00000000000E+00 0. -1.
         -3    1    6    6    0  503  0.18535822146E+03  0.77132410073E+02 -0.86543115468E+03  0.88841328358E+03  0.00000000000E+00 0.  1.
<mgrwt>
<rscale>  0 0.12909356E+04</rscale>
<asrwt>0</asrwt>
<pdfrwt beam="1">  1        2 0.51492514E+00 0.12909356E+04</pdfrwt>
<pdfrwt beam="2">  1       -1 0.19150421E-01 0.12909356E+04</pdfrwt>
<totfact> 0.25910716E+01</totfact>
</mgrwt>
</event>
<event>
12    6  0.1553355E-007  0.1077962E+04  0.7818608E-02  0.9226942E-01
         -1   -1    0    0    0  501 -0.00000000000E+00  0.00000000000E+00  0.12201044603E+03  0.12201044603E+03  0.00000000000E+00 0.  1.
          2   -1    0    0  501    0  0.00000000000E+00 -0.00000000000E+00 -0.23809476878E+04  0.23809476878E+04  0.00000000000E+00 0. -1.
         24    2    1    2    0    0  0.14511279517E+03 -0.27400996861E+02 -0.43475810957E+03  0.46605295548E+03  0.79888707084E+02 0.  0.
        254    2    1    2    0    0 -0.14511279517E+03  0.27400996861E+02 -0.18241791322E+04  0.20369051784E+04  0.89417261272E+03 0.  0.
         23    2    4    4    0    0 -0.76929588733E+02  0.57337116469E+02 -0.18951136250E+04  0.18997730121E+04  0.92065950943E+02 0.  0.
         23    2    4    4    0    0 -0.68183206440E+02 -0.29936119609E+02  0.70934492787E+02  0.13713216627E+03  0.90710571935E+02 0.  0.
          4    1    3    3  502    0  0.14774437582E+03 -0.34617349865E+02 -0.43202506858E+03  0.45790001243E+03  0.00000000000E+00 0. -1.
         -3    1    3    3    0  502 -0.26315806418E+01  0.72163530047E+01 -0.27330409905E+01  0.81529430526E+01  0.00000000000E+00 0.  1.
         11    1    5    5    0    0 -0.52733905338E+02  0.52477829033E+02 -0.62391788705E+03  0.62833774126E+03  0.00000000000E+00 0. -1.
        -11    1    5    5    0    0 -0.24195683395E+02  0.48592874361E+01 -0.12711957379E+04  0.12714352708E+04  0.00000000000E+00 0.  1.
          4    1    6    6  503    0  0.12618213940E+02  0.13829997061E+02 -0.32881513613E+01  0.19007895231E+02  0.00000000000E+00 0. -1.
         -4    1    6    6    0  503 -0.80801420380E+02 -0.43766116669E+02  0.74222644149E+02  0.11812427104E+03  0.00000000000E+00 0.  1.
<mgrwt>
<rscale>  0 0.10779619E+04</rscale>
<asrwt>0</asrwt>
<pdfrwt beam="1">  1        2 0.36629962E+00 0.10779619E+04</pdfrwt>
<pdfrwt beam="2">  1       -1 0.18770839E-01 0.10779619E+04</pdfrwt>
<totfact> 0.10577311E+02</totfact>
</mgrwt>
</event>
<event>
12    6  0.1553355E-007  0.1536237E+04  0.7818608E-02  0.8860707E-01
         -1   -1    0    0    0  501 -0.00000000000E+00  0.00000000000E+00  0.13150582605E+04  0.13150582605E+04  0.00000000000E+00 0.  1.
          2   -1    0    0  501    0  0.00000000000E+00 -0.00000000000E+00 -0.44865383010E+03  0.44865383010E+03  0.00000000000E+00 0. -1.
         24    2    1    2    0    0  0.39562680958E+03  0.28648242442E+03  0.43475774053E+03  0.65873261462E+03  0.79508569649E+02 0.  0.
        254    2    1    2    0    0 -0.39562680958E+03 -0.28648242442E+03  0.43164668988E+03  0.11049794760E+04  0.89222644296E+03 0.  0.
         23    2    4    4    0    0 -0.59407870762E+03 -0.31722137511E+03  0.53128386917E+03  0.86262488336E+03  0.91105587555E+02 0.  0.
         23    2    4    4    0    0  0.19845189804E+03  0.30738950697E+02 -0.99637179288E+02  0.24235459263E+03  0.92087687278E+02 0.  0.
          4    1    3    3  502    0  0.30594077534E+02  0.48878288399E+02  0.34477218646E+02  0.67184546308E+02  0.00000000000E+00 0. -1.
         -3    1    3    3    0  502  0.36503273205E+03  0.23760413602E+03  0.40028052189E+03  0.59154806831E+03  0.00000000000E+00 0.  1.
         11    1    5    5    0    0 -0.58494794791E+03 -0.32355338256E+03  0.52345418142E+03  0.84903190351E+03  0.00000000000E+00 0. -1.
        -11    1    5    5    0    0 -0.91307597080E+01  0.63320074424E+01  0.78296877434E+01  0.13592979852E+02  0.00000000000E+00 0.  1.
          3    1    6    6  503    0  0.82714920323E+02  0.57181871880E+02 -0.31019580930E+02  0.10523183414E+03  0.00000000000E+00 0. -1.
         -3    1    6    6    0  503  0.11573697772E+03 -0.26442921184E+02 -0.68617598358E+02  0.13712275849E+03  0.00000000000E+00 0.  1.
<mgrwt>
<rscale>  0 0.15362369E+04</rscale>
<asrwt>0</asrwt>
<pdfrwt beam="1">  1        2 0.69023666E-01 0.15362369E+04</pdfrwt>
<pdfrwt beam="2">  1       -1 0.20231665E+00 0.15362369E+04</pdfrwt>
<totfact> 0.11154327E+01</totfact>
</mgrwt>
</event>
<event>
12    6  0.1553355E-007  0.1676213E+04  0.7818608E-02  0.8775048E-01
         -1   -1    0    0    0  501 -0.00000000000E+00  0.00000000000E+00  0.12927887724E+04  0.12927887724E+04  0.00000000000E+00 0.  1.
          2   -1    0    0  501    0  0.00000000000E+00 -0.00000000000E+00 -0.54333924631E+03  0.54333924631E+03  0.00000000000E+00 0. -1.
         24    2    1    2    0    0  0.65267301430E+02  0.55314877017E+03  0.50816975273E+02  0.56505457049E+03  0.80442029327E+02 0.  0.
        254    2    1    2    0    0 -0.65267301430E+02 -0.55314877017E+03  0.69863255078E+03  0.12710734482E+04  0.90405026801E+03 0.  0.
         23    2    4    4    0    0  0.30420243689E+03 -0.48970663593E+03  0.66330282043E+03  0.88353880409E+03  0.91205673443E+02 0.  0.
         23    2    4    4    0    0 -0.36946973832E+03 -0.63442134237E+02  0.35329730354E+02  0.38753464409E+03  0.91663071030E+02 0.  0.
          2    1    3    3  502    0  0.46275848708E+02  0.37198871880E+03  0.71888432557E+02  0.38168705482E+03  0.00000000000E+00 0. -1.
         -1    1    3    3    0  502  0.18991452722E+02  0.18116005137E+03 -0.21071457283E+02  0.18336751567E+03  0.00000000000E+00 0.  1.
         11    1    5    5    0    0  0.90819736148E+02 -0.19880013220E+03  0.19934207125E+03  0.29581578458E+03  0.00000000000E+00 0.  1.
        -11    1    5    5    0    0  0.21338270074E+03 -0.29090650373E+03  0.46396074918E+03  0.58772301952E+03  0.00000000000E+00 0. -1.
          4    1    6    6  503    0 -0.22547382690E+03 -0.19084711102E+02  0.61769047704E+02  0.23455934871E+03  0.00000000000E+00 0.  1.
         -4    1    6    6    0  503 -0.14399591143E+03 -0.44357423134E+02 -0.26439317350E+02  0.15297529538E+03  0.00000000000E+00 0. -1.
<mgrwt>
<rscale>  0 0.16762134E+04</rscale>
<asrwt>0</asrwt>
<pdfrwt beam="1">  1        2 0.83590653E-01 0.16762134E+04</pdfrwt>
<pdfrwt beam="2">  1       -1 0.19889058E+00 0.16762134E+04</pdfrwt>
<totfact> 0.93190117E+00</totfact>
</mgrwt>
</event>
<event>
12    6  0.1553355E-007  0.1445068E+04  0.7818608E-02  0.8921827E-01
         -1   -1    0    0    0  501 -0.00000000000E+00  0.00000000000E+00  0.46165491941E+03  0.46165491941E+03  0.00000000000E+00 0.  1.
          2   -1    0    0  501    0  0.00000000000E+00 -0.00000000000E+00 -0.11308340072E+04  0.11308340072E+04  0.00000000000E+00 0. -1.
         24    2    1    2    0    0 -0.40807358376E+03  0.11551872152E+03 -0.98234744735E+02  0.44232088047E+03  0.78288386357E+02 0.  0.
        254    2    1    2    0    0  0.40807358376E+03 -0.11551872152E+03 -0.57094434307E+03  0.11501680462E+04  0.90390290779E+03 0.  0.
         23    2    4    4    0    0  0.63480092403E+03  0.49828762561E+01 -0.16722468495E+03  0.66283968975E+03  0.91625961572E+02 0.  0.
         23    2    4    4    0    0 -0.22672734027E+03 -0.12050159778E+03 -0.40371965812E+03  0.48732835641E+03  0.92592886950E+02 0.  0.
          4    1    3    3  502    0 -0.23961174863E+03  0.31015403413E+02 -0.71484954559E+02  0.25196397374E+03  0.00000000000E+00 0. -1.
         -3    1    3    3    0  502 -0.16846183513E+03  0.84503318111E+02 -0.26749790175E+02  0.19035690673E+03  0.00000000000E+00 0.  1.
         11    1    5    5    0    0  0.17147896608E+03  0.34243757567E+02 -0.21057835116E+02  0.17612808737E+03  0.00000000000E+00 0.  1.
        -11    1    5    5    0    0  0.46332195795E+03 -0.29260881311E+02 -0.14616684984E+03  0.48671160237E+03  0.00000000000E+00 0. -1.
          4    1    6    6  503    0 -0.10835244750E+03 -0.10800050695E+02 -0.13007601573E+03  0.16963685874E+03  0.00000000000E+00 0. -1.
         -4    1    6    6    0  503 -0.11837489277E+03 -0.10970154709E+03 -0.27364364238E+03  0.31769149766E+03  0.00000000000E+00 0.  1.
<mgrwt>
<rscale>  0 0.14450676E+04</rscale>
<asrwt>0</asrwt>
<pdfrwt beam="1">  1        2 0.17397446E+00 0.14450676E+04</pdfrwt>
<pdfrwt beam="2">  1       -1 0.71023834E-01 0.14450676E+04</pdfrwt>
<totfact> 0.46209607E+01</totfact>
</mgrwt>
</event>
<event>
12    6  0.1553355E-007  0.2167168E+04  0.7818608E-02  0.8532219E-01
          2   -1    0    0  501    0  0.00000000000E+00  0.00000000000E+00  0.24814699201E+04  0.24814699201E+04  0.00000000000E+00 0. -1.
         -1   -1    0    0    0  501 -0.00000000000E+00 -0.00000000000E+00 -0.47316882084E+03  0.47316882084E+03  0.00000000000E+00 0.  1.
         24    2    1    2    0    0  0.20700562803E+03 -0.92749391990E+02 -0.34826052474E+03  0.42322925555E+03  0.79898872990E+02 0.  0.
        254    2    1    2    0    0 -0.20700562803E+03  0.92749391990E+02  0.23565616240E+04  0.25314094854E+04  0.89621287385E+03 0.  0.
         23    2    4    4    0    0 -0.54299971299E+03 -0.18376644683E+02  0.15733327795E+04  0.16670332411E+04  0.91855335113E+02 0.  0.
         23    2    4    4    0    0  0.33599408496E+03  0.11112603667E+03  0.78322884451E+03  0.86437624427E+03  0.91966557152E+02 0.  0.
          4    1    3    3  502    0 -0.30373599395E+01 -0.16479780733E+02 -0.29813258772E+02  0.34199987237E+02  0.00000000000E+00 0. -1.
         -3    1    3    3    0  502  0.21004298797E+03 -0.76269611257E+02 -0.31844726597E+03  0.38902926831E+03  0.00000000000E+00 0.  1.
         11    1    5    5    0    0 -0.25977591220E+03 -0.40714029126E+02  0.65687474568E+03  0.70754900060E+03  0.00000000000E+00 0. -1.
        -11    1    5    5    0    0 -0.28322380079E+03  0.22337384443E+02  0.91645803380E+03  0.95948424051E+03  0.00000000000E+00 0.  1.
          3    1    6    6  503    0  0.71224465044E+02  0.61284787601E+02  0.24702097235E+03  0.26428793085E+03  0.00000000000E+00 0. -1.
         -3    1    6    6    0  503  0.26476961992E+03  0.49841249072E+02  0.53620787215E+03  0.60008831342E+03  0.00000000000E+00 0.  1.
<mgrwt>
<rscale>  0 0.21671679E+04</rscale>
<asrwt>0</asrwt>
<pdfrwt beam="1">  1        2 0.38176460E+00 0.21671679E+04</pdfrwt>
<pdfrwt beam="2">  1       -1 0.72795205E-01 0.21671679E+04</pdfrwt>
<totfact> 0.70826137E+00</totfact>
</mgrwt>
</event>
<event>
12    6  0.1553355E-007  0.2201188E+04  0.7818608E-02  0.8517934E-01
          2   -1    0    0  501    0  0.00000000000E+00  0.00000000000E+00  0.21403545089E+04  0.21403545089E+04  0.00000000000E+00 0. -1.
         -1   -1    0    0    0  501 -0.00000000000E+00 -0.00000000000E+00 -0.56593751163E+03  0.56593751163E+03  0.00000000000E+00 0.  1.
         24    2    1    2    0    0  0.76713618038E+03 -0.43152025301E+03  0.38812393962E+03  0.96522654278E+03  0.79463440525E+02 0.  0.
        254    2    1    2    0    0 -0.76713618038E+03  0.43152025301E+03  0.11862930576E+04  0.17410654777E+04  0.92158023585E+03 0.  0.
         23    2    4    4    0    0 -0.93086910745E+03  0.51835972459E+03  0.99582459388E+03  0.14613868143E+04  0.93652015708E+02 0.  0.
         23    2    4    4    0    0  0.16373292707E+03 -0.86839471585E+02  0.19046846373E+03  0.27967866336E+03  0.87134114067E+02 0.  0.
          4    1    3    3  502    0  0.72454139724E+03 -0.39163567306E+03  0.34641575703E+03  0.89350020338E+03  0.00000000000E+00 0. -1.
         -3    1    3    3    0  502  0.42594783136E+02 -0.39884579949E+02  0.41708182590E+02  0.71726339395E+02  0.00000000000E+00 0.  1.
         11    1    5    5    0    0 -0.93090175345E+03  0.51362570032E+03  0.99571267685E+03  0.14566513548E+04  0.00000000000E+00 0. -1.
        -11    1    5    5    0    0  0.32645994698E-01  0.47340242745E+01  0.11191703004E+00  0.47354595357E+01  0.00000000000E+00 0.  1.
          4    1    6    6  503    0  0.14885806183E+03 -0.85489843577E+02  0.12453835154E+03  0.21207790298E+03  0.00000000000E+00 0. -1.
         -4    1    6    6    0  503  0.14874865237E+02 -0.13496280084E+01  0.65930112188E+02  0.67600760386E+02  0.00000000000E+00 0.  1.
<mgrwt>
<rscale>  0 0.22011878E+04</rscale>
<asrwt>0</asrwt>
<pdfrwt beam="1">  1        2 0.32928530E+00 0.22011878E+04</pdfrwt>
<pdfrwt beam="2">  1       -1 0.87067311E-01 0.22011878E+04</pdfrwt>
<totfact> 0.75375707E+00</totfact>
</mgrwt>
</event>
<event>
12    6  0.1553355E-007  0.1587206E+04  0.7818608E-02  0.8828447E-01
          2   -1    0    0  501    0  0.00000000000E+00  0.00000000000E+00  0.26015737833E+04  0.26015737833E+04  0.00000000000E+00 0. -1.
         -1   -1    0    0    0  501 -0.00000000000E+00 -0.00000000000E+00 -0.24208641737E+03  0.24208641737E+03  0.00000000000E+00 0.  1.
         24    2    1    2    0    0  0.27978476311E+03 -0.28451142490E+03  0.16595609957E+03  0.43972943080E+03  0.81205176946E+02 0.  0.
        254    2    1    2    0    0 -0.27978476311E+03  0.28451142490E+03  0.21935312664E+04  0.24039307699E+04  0.89893129060E+03 0.  0.
         23    2    4    4    0    0 -0.37644292455E+02  0.27728269452E+03  0.21122580120E+04  0.21325780660E+04  0.89176863932E+02 0.  0.
         23    2    4    4    0    0 -0.24214047065E+03  0.72287303877E+01  0.81273254425E+02  0.27135270388E+03  0.91338304941E+02 0.  0.
          2    1    3    3  502    0  0.20738498235E+03 -0.23722578552E+03  0.15910271358E+03  0.35298481226E+03  0.00000000000E+00 0. -1.
         -1    1    3    3    0  502  0.72399780762E+02 -0.47285639384E+02  0.68533859831E+01  0.86744618541E+02  0.00000000000E+00 0.  1.
         11    1    5    5    0    0 -0.36177921928E+02  0.28412292964E+03  0.20456486831E+04  0.20656023857E+04  0.00000000000E+00 0. -1.
        -11    1    5    5    0    0 -0.14663705275E+01 -0.68402351235E+01  0.66609328874E+02  0.66975680303E+02  0.00000000000E+00 0.  1.
          2    1    6    6  503    0 -0.20202431899E+03  0.20811973171E+02  0.98389912171E+02  0.22567130634E+03  0.00000000000E+00 0. -1.
         -2    1    6    6    0  503 -0.40116151663E+02 -0.13583242784E+02 -0.17116657746E+02  0.45681397540E+02  0.00000000000E+00 0.  1.
<mgrwt>
<rscale>  0 0.15872059E+04</rscale>
<asrwt>0</asrwt>
<pdfrwt beam="1">  1        2 0.40024210E+00 0.15872059E+04</pdfrwt>
<pdfrwt beam="2">  1       -1 0.37244066E-01 0.15872059E+04</pdfrwt>
<totfact> 0.23092754E+01</totfact>
</mgrwt>
</event>
<event>
12    6  0.1553355E-007  0.1914764E+04  0.7818608E-02  0.8647542E-01
          2   -1    0    0  501    0  0.00000000000E+00  0.00000000000E+00  0.17000094818E+04  0.17000094818E+04  0.00000000000E+00 0. -1.
         -1   -1    0    0    0  501 -0.00000000000E+00 -0.00000000000E+00 -0.53916209430E+03  0.53916209430E+03  0.00000000000E+00 0.  1.
         24    2    1    2    0    0 -0.11323960483E+03  0.68094429881E+03  0.78747820718E+03  0.10503026458E+04  0.80655903415E+02 0.  0.
        254    2    1    2    0    0  0.11323960483E+03 -0.68094429881E+03  0.37336918035E+03  0.11888689304E+04  0.89302656318E+03 0.  0.
         23    2    4    4    0    0 -0.31933702733E+03 -0.31361875638E+03 -0.70428622472E+02  0.46210425721E+03  0.90814603920E+02 0.  0.
         23    2    4    4    0    0  0.43257663216E+03 -0.36732554244E+03  0.44379780282E+03  0.72676467315E+03  0.95811291265E+02 0.  0.
          2    1    3    3  502    0 -0.11604641166E+03  0.57389959390E+03  0.63225562423E+03  0.86172773421E+03  0.00000000000E+00 0. -1.
         -1    1    3    3    0  502  0.28068068337E+01  0.10704470491E+03  0.15522258295E+03  0.18857491157E+03  0.00000000000E+00 0.  1.
         11    1    5    5    0    0 -0.37115475469E+02 -0.69736077986E+02 -0.38105285760E+02  0.87707992196E+02  0.00000000000E+00 0.  1.
        -11    1    5    5    0    0 -0.28222155187E+03 -0.24388267839E+03 -0.32323336712E+02  0.37439626501E+03  0.00000000000E+00 0. -1.
          3    1    6    6  503    0  0.11043616912E+03 -0.55907911069E+02  0.63743723571E+02  0.13923039993E+03  0.00000000000E+00 0. -1.
         -3    1    6    6    0  503  0.32214046304E+03 -0.31141763137E+03  0.38005407925E+03  0.58753427322E+03  0.00000000000E+00 0.  1.
<mgrwt>
<rscale>  0 0.19147644E+04</rscale>
<asrwt>0</asrwt>
<pdfrwt beam="1">  1        2 0.26153992E+00 0.19147644E+04</pdfrwt>
<pdfrwt beam="2">  1       -1 0.82948015E-01 0.19147644E+04</pdfrwt>
<totfact> 0.15082084E+01</totfact>
</mgrwt>
</event>
<event>
12    6  0.1553355E-007  0.2269048E+04  0.7818608E-02  0.8490226E-01
         -1   -1    0    0    0  501 -0.00000000000E+00  0.00000000000E+00  0.70581285616E+03  0.70581285616E+03  0.00000000000E+00 0.  1.
          2   -1    0    0  501    0  0.00000000000E+00 -0.00000000000E+00 -0.18236348849E+04  0.18236348849E+04  0.00000000000E+00 0. -1.
         24    2    1    2    0    0 -0.55944629664E+02 -0.45745284669E+03 -0.14176195875E+04  0.14926774784E+04  0.77767931689E+02 0.  0.
        254    2    1    2    0    0  0.55944629664E+02  0.45745284669E+03  0.29979755878E+03  0.10367702626E+04  0.87898867607E+03 0.  0.
         23    2    4    4    0    0  0.57298431436E+02  0.48214417556E+02  0.54038897025E+03  0.55291945360E+03  0.89955226050E+02 0.  0.
         23    2    4    4    0    0 -0.13538017722E+01  0.40923842913E+03 -0.24059141147E+03  0.48385080902E+03  0.93538513217E+02 0.  0.
          2    1    3    3  502    0 -0.44553581327E+02 -0.39039545629E+03 -0.12834614409E+04  0.13422618613E+04  0.00000000000E+00 0. -1.
         -1    1    3    3    0  502 -0.11391048336E+02 -0.67057390393E+02 -0.13415814658E+03  0.15041561715E+03  0.00000000000E+00 0.  1.
         11    1    5    5    0    0  0.50194223064E+02  0.63716239644E+02  0.26820775496E+03  0.28020460211E+03  0.00000000000E+00 0. -1.
        -11    1    5    5    0    0  0.71042083720E+01 -0.15501822089E+02  0.27218121530E+03  0.27271485149E+03  0.00000000000E+00 0.  1.
          3    1    6    6  503    0  0.41201086464E+02  0.29426050504E+03 -0.16648329934E+03  0.34059281160E+03  0.00000000000E+00 0. -1.
         -3    1    6    6    0  503 -0.42554888236E+02  0.11497792409E+03 -0.74108112125E+02  0.14325799742E+03  0.00000000000E+00 0.  1.
<mgrwt>
<rscale>  0 0.22690482E+04</rscale>
<asrwt>0</asrwt>
<pdfrwt beam="1">  1        2 0.28055921E+00 0.22690482E+04</pdfrwt>
<pdfrwt beam="2">  1       -1 0.10858659E+00 0.22690482E+04</pdfrwt>
<totfact> 0.68161770E+00</totfact>
</mgrwt>
</event>
<event>
12    6  0.1553355E-007  0.1778974E+04  0.7818608E-02  0.8717561E-01
          2   -1    0    0  501    0  0.00000000000E+00  0.00000000000E+00  0.40420983157E+03  0.40420983157E+03  0.00000000000E+00 0. -1.
         -1   -1    0    0    0  501 -0.00000000000E+00 -0.00000000000E+00 -0.19573673082E+04  0.19573673082E+04  0.00000000000E+00 0.  1.
         24    2    1    2    0    0 -0.37776892982E+03 -0.36581984375E+03 -0.11394882311E+04  0.12575323058E+04  0.80128328632E+02 0.  0.
        254    2    1    2    0    0  0.37776892982E+03  0.36581984375E+03 -0.41366924557E+03  0.11040448340E+04  0.87821365751E+03 0.  0.
         23    2    4    4    0    0 -0.18038895784E+03  0.19662214429E+02 -0.39128546455E+03  0.44064246803E+03  0.90192522266E+02 0.  0.
         23    2    4    4    0    0  0.55815788766E+03  0.34615762932E+03 -0.22383781018E+02  0.66340236593E+03  0.90754248183E+02 0.  0.
          4    1    3    3  502    0 -0.47606327609E+02 -0.49301762345E+02 -0.22238050384E+03  0.23270177199E+03  0.00000000000E+00 0. -1.
         -3    1    3    3    0  502 -0.33016260221E+03 -0.31651808141E+03 -0.91710772723E+03  0.10248305338E+04  0.00000000000E+00 0.  1.
         11    1    5    5    0    0 -0.16596874501E+03 -0.39947786981E+01 -0.27607430074E+03  0.32214686419E+03  0.00000000000E+00 0.  1.
        -11    1    5    5    0    0 -0.14420212827E+02  0.23656993127E+02 -0.11521116382E+03  0.11849560384E+03  0.00000000000E+00 0. -1.
          3    1    6    6  503    0  0.24187506781E+02  0.40415719222E+02 -0.89834628332E+01  0.47949644931E+02  0.00000000000E+00 0. -1.
         -3    1    6    6    0  503  0.53397038088E+03  0.30574191010E+03 -0.13400318185E+02  0.61545272100E+03  0.00000000000E+00 0.  1.
<mgrwt>
<rscale>  0 0.17789740E+04</rscale>
<asrwt>0</asrwt>
<pdfrwt beam="1">  1        2 0.62186128E-01 0.17789740E+04</pdfrwt>
<pdfrwt beam="2">  1       -1 0.30113343E+00 0.17789740E+04</pdfrwt>
<totfact> 0.27624835E+00</totfact>
</mgrwt>
</event>
<event>
12    6  0.1553355E-007  0.2846731E+04  0.7818608E-02  0.8288905E-01
         -1   -1    0    0    0  501 -0.00000000000E+00  0.00000000000E+00  0.12671110751E+04  0.12671110751E+04  0.00000000000E+00 0.  1.
          2   -1    0    0  501    0  0.00000000000E+00 -0.00000000000E+00 -0.15988883239E+04  0.15988883239E+04  0.00000000000E+00 0. -1.
         24    2    1    2    0    0 -0.10769214070E+04 -0.61913501466E+03  0.16036056031E+03  0.12551512235E+04  0.81247777655E+02 0.  0.
        254    2    1    2    0    0  0.10769214070E+04  0.61913501466E+03 -0.49213780909E+03  0.16108481755E+04  0.89974681892E+03 0.  0.
         23    2    4    4    0    0  0.58888567224E+03  0.15851847384E+03  0.19446900554E+03  0.64639698290E+03  0.89980130389E+02 0.  0.
         23    2    4    4    0    0  0.48803573472E+03  0.46061654083E+03 -0.68660681464E+03  0.96445119258E+03  0.91600812870E+02 0.  0.
          4    1    3    3  502    0 -0.49878295413E+03 -0.32261065229E+03  0.10290197810E+03  0.60286887911E+03  0.00000000000E+00 0. -1.
         -3    1    3    3    0  502 -0.57813845282E+03 -0.29652436237E+03  0.57458582218E+02  0.65228234438E+03  0.00000000000E+00 0.  1.
         11    1    5    5    0    0  0.18147457890E+03  0.20644055831E+02  0.26065337426E+02  0.18449553285E+03  0.00000000000E+00 0.  1.
        -11    1    5    5    0    0  0.40741109334E+03  0.13787441800E+03  0.16840366812E+03  0.46190145005E+03  0.00000000000E+00 0. -1.
          2    1    6    6  503    0  0.46616285099E+03  0.41529565849E+03 -0.65575293300E+03  0.90542266193E+03  0.00000000000E+00 0. -1.
         -2    1    6    6    0  503  0.21872883730E+02  0.45320882337E+02 -0.30853881639E+02  0.59028530649E+02  0.00000000000E+00 0.  1.
<mgrwt>
<rscale>  0 0.28467308E+04</rscale>
<asrwt>0</asrwt>
<pdfrwt beam="1">  1        2 0.24598282E+00 0.28467308E+04</pdfrwt>
<pdfrwt beam="2">  1       -1 0.19494017E+00 0.28467308E+04</pdfrwt>
<totfact> 0.17985301E+00</totfact>
</mgrwt>
</event>
<event>
12    6  0.1553355E-007  0.2106395E+04  0.7818608E-02  0.8558432E-01
         -1   -1    0    0    0  501 -0.00000000000E+00  0.00000000000E+00  0.12446273306E+04  0.12446273306E+04  0.00000000000E+00 0.  1.
          2   -1    0    0  501    0  0.00000000000E+00 -0.00000000000E+00 -0.89121026403E+03  0.89121026403E+03  0.00000000000E+00 0. -1.
         24    2    1    2    0    0 -0.40697762702E+03  0.63108480115E+03 -0.28387996142E+03  0.80667914486E+03  0.79022750619E+02 0.  0.
        254    2    1    2    0    0  0.40697762702E+03 -0.63108480115E+03  0.63729702802E+03  0.13291584498E+04  0.89253339861E+03 0.  0.
         23    2    4    4    0    0 -0.13560849842E+03 -0.59176647977E+02  0.49160506201E+03  0.52218584815E+03  0.95451466761E+02 0.  0.
         23    2    4    4    0    0  0.54258612545E+03 -0.57190815317E+03  0.14569196601E+03  0.80697260166E+03  0.92195399402E+02 0.  0.
          2    1    3    3  502    0 -0.32996345609E+03  0.46499028581E+03 -0.19043678499E+03  0.60113061586E+03  0.00000000000E+00 0. -1.
         -1    1    3    3    0  502 -0.77014170936E+02  0.16609451534E+03 -0.93443176433E+02  0.20554852900E+03  0.00000000000E+00 0.  1.
         11    1    5    5    0    0 -0.10640380230E+03 -0.57244502204E+02  0.23815593016E+03  0.26705233429E+03  0.00000000000E+00 0. -1.
        -11    1    5    5    0    0 -0.29204696120E+02 -0.19321457731E+01  0.25344913185E+03  0.25513351386E+03  0.00000000000E+00 0.  1.
          3    1    6    6  503    0  0.13184935617E+03 -0.86168876802E+02  0.33584651425E+02  0.16105047924E+03  0.00000000000E+00 0. -1.
         -3    1    6    6    0  503  0.41073676928E+03 -0.48573927637E+03  0.11210731458E+03  0.64592212242E+03  0.00000000000E+00 0.  1.
<mgrwt>
<rscale>  0 0.21063947E+04</rscale>
<asrwt>0</asrwt>
<pdfrwt beam="1">  1        2 0.13710927E+00 0.21063947E+04</pdfrwt>
<pdfrwt beam="2">  1       -1 0.19148113E+00 0.21063947E+04</pdfrwt>
<totfact> 0.53889402E+00</totfact>
</mgrwt>
</event>
<event>
12    6  0.1553355E-007  0.1328502E+04  0.7818608E-02  0.9007263E-01
          2   -1    0    0  501    0  0.00000000000E+00  0.00000000000E+00  0.80518809391E+03  0.80518809391E+03  0.00000000000E+00 0. -1.
         -1   -1    0    0    0  501 -0.00000000000E+00 -0.00000000000E+00 -0.54798275446E+03  0.54798275446E+03  0.00000000000E+00 0.  1.
         24    2    1    2    0    0 -0.74396344986E+02 -0.26828954149E+03  0.28227000717E+03  0.40486857788E+03  0.82025082655E+02 0.  0.
        254    2    1    2    0    0  0.74396344986E+02  0.26828954149E+03 -0.25064667724E+02  0.94830227049E+03  0.90616492121E+03 0.  0.
         23    2    4    4    0    0  0.45325329654E+03  0.34385572476E+02 -0.13053983368E+03  0.48187711090E+03  0.92433670351E+02 0.  0.
         23    2    4    4    0    0 -0.37885695155E+03  0.23390396901E+03  0.10547516596E+03  0.46642515959E+03  0.90464149842E+02 0.  0.
          2    1    3    3  502    0 -0.51102004080E+02 -0.25492468226E+03  0.23479405065E+03  0.35032307185E+03  0.00000000000E+00 0. -1.
         -1    1    3    3    0  502 -0.23294340906E+02 -0.13364859224E+02  0.47475956523E+02  0.54545506030E+02  0.00000000000E+00 0.  1.
         11    1    5    5    0    0  0.27819637411E+03 -0.15462606534E+02 -0.10647588426E+03  0.29827743578E+03  0.00000000000E+00 0. -1.
        -11    1    5    5    0    0  0.17505692243E+03  0.49848179010E+02 -0.24063949417E+02  0.18359967511E+03  0.00000000000E+00 0.  1.
          4    1    6    6  503    0 -0.14003301618E+03  0.13891986314E+03  0.49934774671E+02  0.20347347669E+03  0.00000000000E+00 0. -1.
         -4    1    6    6    0  503 -0.23882393537E+03  0.94984105867E+02  0.55540391287E+02  0.26295168290E+03  0.00000000000E+00 0.  1.
<mgrwt>
<rscale>  0 0.13285017E+04</rscale>
<asrwt>0</asrwt>
<pdfrwt beam="1">  1        2 0.12387509E+00 0.13285017E+04</pdfrwt>
<pdfrwt beam="2">  1       -1 0.84305039E-01 0.13285017E+04</pdfrwt>
<totfact> 0.53178375E+01</totfact>
</mgrwt>
</event>
<event>
12    6  0.1553355E-007  0.2738327E+04  0.7818608E-02  0.8322675E-01
          4   -1    0    0  501    0  0.00000000000E+00  0.00000000000E+00  0.28775079380E+04  0.28775079380E+04  0.00000000000E+00 0. -1.
         -3   -1    0    0    0  501 -0.00000000000E+00 -0.00000000000E+00 -0.65146953740E+03  0.65146953740E+03  0.00000000000E+00 0.  1.
         24    2    1    2    0    0 -0.14961794326E+03  0.24560903749E+03  0.24946550385E+04  0.25124334388E+04  0.79427294306E+02 0.  0.
        254    2    1    2    0    0  0.14961794326E+03 -0.24560903749E+03 -0.26861663787E+03  0.10165440366E+04  0.93728200239E+03 0.  0.
         23    2    4    4    0    0  0.34513189994E+03 -0.11530835021E+03  0.24256389520E+03  0.44655421649E+03  0.90340362127E+02 0.  0.
         23    2    4    4    0    0 -0.19551395668E+03 -0.13030068728E+03 -0.51118053307E+03  0.56998982012E+03  0.91536229366E+02 0.  0.
          4    1    3    3  502    0 -0.62398032290E+02  0.17298650387E+03  0.14425081185E+04  0.14541827660E+04  0.00000000000E+00 0. -1.
         -3    1    3    3    0  502 -0.87219910968E+02  0.72622533617E+02  0.10521469200E+04  0.10582506728E+04  0.00000000000E+00 0.  1.
         11    1    5    5    0    0  0.90255879468E+02 -0.67210994836E+02  0.10020788437E+03  0.15068198862E+03  0.00000000000E+00 0.  1.
        -11    1    5    5    0    0  0.25487602047E+03 -0.48097355369E+02  0.14235601083E+03  0.29587222787E+03  0.00000000000E+00 0. -1.
          2    1    6    6  503    0 -0.16552983630E+03 -0.14361687093E+03 -0.43666901442E+03  0.48857523523E+03  0.00000000000E+00 0. -1.
         -2    1    6    6    0  503 -0.29984120383E+02  0.13316183647E+02 -0.74511518648E+02  0.81414584893E+02  0.00000000000E+00 0.  1.
<mgrwt>
<rscale>  0 0.27383271E+04</rscale>
<asrwt>0</asrwt>
<pdfrwt beam="1">  1        4 0.44269352E+00 0.27383271E+04</pdfrwt>
<pdfrwt beam="2">  1       -3 0.10022608E+00 0.27383271E+04</pdfrwt>
<totfact> 0.57785349E-03</totfact>
</mgrwt>
</event>
<event>
12    6  0.1553355E-007  0.1263344E+04  0.7818608E-02  0.9059150E-01
          2   -1    0    0  501    0  0.00000000000E+00  0.00000000000E+00  0.17980670996E+04  0.17980670996E+04  0.00000000000E+00 0. -1.
         -1   -1    0    0    0  501 -0.00000000000E+00 -0.00000000000E+00 -0.22191011700E+03  0.22191011700E+03  0.00000000000E+00 0.  1.
         24    2    1    2    0    0  0.76570647527E+02  0.97531471643E+02  0.85385084123E+03  0.86650641588E+03  0.79979107740E+02 0.  0.
        254    2    1    2    0    0 -0.76570647527E+02 -0.97531471643E+02  0.72230614141E+03  0.11534708007E+04  0.89072626223E+03 0.  0.
         23    2    4    4    0    0 -0.27547464871E+03 -0.34686935598E+03  0.12285040584E+03  0.46844707973E+03  0.90254152768E+02 0.  0.
         23    2    4    4    0    0  0.19890400119E+03  0.24933788434E+03  0.59945573557E+03  0.68502372102E+03  0.90433053653E+02 0.  0.
          2    1    3    3  502    0  0.53888110791E+02  0.82051586296E+02  0.40163201387E+03  0.41345455114E+03  0.00000000000E+00 0. -1.
         -1    1    3    3    0  502  0.22682536736E+02  0.15479885347E+02  0.45221882736E+03  0.45305186474E+03  0.00000000000E+00 0.  1.
         11    1    5    5    0    0 -0.23358985889E+03 -0.24028048177E+03  0.70120890283E+02  0.34236803494E+03  0.00000000000E+00 0.  1.
        -11    1    5    5    0    0 -0.41884789820E+02 -0.10658887421E+03  0.52729515556E+02  0.12607904479E+03  0.00000000000E+00 0. -1.
          1    1    6    6  503    0  0.22738215355E+02  0.88438982578E+02  0.19760034904E+03  0.21767953055E+03  0.00000000000E+00 0. -1.
         -1    1    6    6    0  503  0.17616578583E+03  0.16089890176E+03  0.40185538653E+03  0.46734419047E+03  0.00000000000E+00 0.  1.
<mgrwt>
<rscale>  0 0.12633436E+04</rscale>
<asrwt>0</asrwt>
<pdfrwt beam="1">  1        2 0.27662570E+00 0.12633436E+04</pdfrwt>
<pdfrwt beam="2">  1       -1 0.34140019E-01 0.12633436E+04</pdfrwt>
<totfact> 0.78576197E+01</totfact>
</mgrwt>
</event>
<event>
12    6  0.1553355E-007  0.1939738E+04  0.7818608E-02  0.8635325E-01
         -1   -1    0    0    0  501 -0.00000000000E+00  0.00000000000E+00  0.59553020558E+03  0.59553020558E+03  0.00000000000E+00 0.  1.
          2   -1    0    0  501    0  0.00000000000E+00 -0.00000000000E+00 -0.15795105084E+04  0.15795105084E+04  0.00000000000E+00 0. -1.
         24    2    1    2    0    0 -0.30490134048E+03 -0.48246827384E+03  0.17454075178E+03  0.60189626039E+03  0.77936971708E+02 0.  0.
        254    2    1    2    0    0  0.30490134048E+03  0.48246827384E+03 -0.11585210546E+04  0.15731444536E+04  0.89826052749E+03 0.  0.
         23    2    4    4    0    0  0.36976817671E+03  0.69973796037E+03 -0.10102257515E+04  0.12871460983E+04  0.99132697008E+02 0.  0.
         23    2    4    4    0    0 -0.64866836235E+02 -0.21726968653E+03 -0.14829530314E+03  0.28599835536E+03  0.91595519565E+02 0.  0.
          4    1    3    3  502    0 -0.16659388852E+03 -0.19521229785E+03  0.64426972343E+02  0.26459818534E+03  0.00000000000E+00 0. -1.
         -3    1    3    3    0  502 -0.13830745196E+03 -0.28725597599E+03  0.11011377944E+03  0.33729807505E+03  0.00000000000E+00 0.  1.
         11    1    5    5    0    0  0.24180326895E+03  0.52909439432E+03 -0.69170849857E+03  0.90380879945E+03  0.00000000000E+00 0. -1.
        -11    1    5    5    0    0  0.12796490777E+03  0.17064356604E+03 -0.31851725290E+03  0.38333729880E+03  0.00000000000E+00 0.  1.
          3    1    6    6  503    0 -0.16458148834E+02 -0.12381773098E+03 -0.12793944607E+03  0.17880213374E+03  0.00000000000E+00 0. -1.
         -3    1    6    6    0  503 -0.48408687401E+02 -0.93451955549E+02 -0.20355857070E+02  0.10719622162E+03  0.00000000000E+00 0.  1.
<mgrwt>
<rscale>  0 0.19397384E+04</rscale>
<asrwt>0</asrwt>
<pdfrwt beam="1">  1        2 0.24300161E+00 0.19397384E+04</pdfrwt>
<pdfrwt beam="2">  1       -1 0.91620033E-01 0.19397384E+04</pdfrwt>
<totfact> 0.14140490E+01</totfact>
</mgrwt>
</event>
<event>
12    6  0.1553355E-007  0.1654462E+04  0.7818608E-02  0.8787771E-01
         -1   -1    0    0    0  501 -0.00000000000E+00  0.00000000000E+00  0.75583932031E+03  0.75583932031E+03  0.00000000000E+00 0.  1.
          2   -1    0    0  501    0  0.00000000000E+00 -0.00000000000E+00 -0.90536550081E+03  0.90536550081E+03  0.00000000000E+00 0. -1.
         24    2    1    2    0    0 -0.32617567104E+03  0.37709009203E+03  0.24559113592E+03  0.56126636302E+03  0.78213926736E+02 0.  0.
        254    2    1    2    0    0  0.32617567104E+03 -0.37709009203E+03 -0.39511731642E+03  0.10999384581E+04  0.89730675468E+03 0.  0.
         23    2    4    4    0    0  0.48513279231E+03 -0.44393140482E+03 -0.53929689345E+03  0.85530930851E+03  0.91016237993E+02 0.  0.
         23    2    4    4    0    0 -0.15895712128E+03  0.66841312787E+02  0.14417957704E+03  0.24462914959E+03  0.96542958799E+02 0.  0.
          4    1    3    3  502    0 -0.94956871846E+01  0.14476627612E+01  0.16659501324E+02  0.19230257069E+02  0.00000000000E+00 0. -1.
         -3    1    3    3    0  502 -0.31667998385E+03  0.37564242927E+03  0.22893163460E+03  0.54203610596E+03  0.00000000000E+00 0.  1.
         11    1    5    5    0    0  0.22952855400E+02 -0.34391238410E+02 -0.11373439871E+02  0.42882933493E+02  0.00000000000E+00 0. -1.
        -11    1    5    5    0    0  0.46217993691E+03 -0.40954016641E+03 -0.52792345358E+03  0.81242637502E+03  0.00000000000E+00 0.  1.
          1    1    6    6  503    0 -0.98187171363E+02  0.23428106762E+02  0.25017630866E+02  0.10399749353E+03  0.00000000000E+00 0. -1.
         -1    1    6    6    0  503 -0.60769949914E+02  0.43413206024E+02  0.11916194617E+03  0.14063165606E+03  0.00000000000E+00 0.  1.
<mgrwt>
<rscale>  0 0.16544617E+04</rscale>
<asrwt>0</asrwt>
<pdfrwt beam="1">  1        2 0.13928700E+00 0.16544617E+04</pdfrwt>
<pdfrwt beam="2">  1       -1 0.11628297E+00 0.16544617E+04</pdfrwt>
<totfact> 0.21182560E+01</totfact>
</mgrwt>
</event>
<event>
12    6  0.1553355E-007  0.1814493E+04  0.7818608E-02  0.8698630E-01
         -1   -1    0    0    0  501 -0.00000000000E+00  0.00000000000E+00  0.53426205914E+03  0.53426205914E+03  0.00000000000E+00 0.  1.
          2   -1    0    0  501    0  0.00000000000E+00 -0.00000000000E+00 -0.15406221801E+04  0.15406221801E+04  0.00000000000E+00 0. -1.
         24    2    1    2    0    0  0.51553003953E+03  0.30636453471E+03 -0.14490669042E+02  0.60681508793E+03  0.91564849540E+02 0.  0.
        254    2    1    2    0    0 -0.51553003953E+03 -0.30636453471E+03 -0.99186945190E+03  0.14680691513E+04  0.90099476888E+03 0.  0.
         23    2    4    4    0    0  0.19786787760E+01 -0.50877723523E+03 -0.43055521480E+03  0.67300365017E+03  0.93262692914E+02 0.  0.
         23    2    4    4    0    0 -0.51750871831E+03  0.20241270052E+03 -0.56131423709E+03  0.79506550111E+03  0.90935710507E+02 0.  0.
          4    1    3    3  502    0  0.15312731569E+03  0.52131705278E+02  0.18973055401E+02  0.16286702041E+03  0.00000000000E+00 0. -1.
         -3    1    3    3    0  502  0.36240272384E+03  0.25423282943E+03 -0.33463724443E+02  0.44394806753E+03  0.00000000000E+00 0.  1.
         11    1    5    5    0    0  0.15550655703E+02 -0.29578099936E+03 -0.19233179607E+03  0.35315682388E+03  0.00000000000E+00 0.  1.
        -11    1    5    5    0    0 -0.13571976927E+02 -0.21299623586E+03 -0.23822341873E+03  0.31984682628E+03  0.00000000000E+00 0. -1.
          3    1    6    6  503    0 -0.49347591919E+03  0.17121191541E+03 -0.50659734935E+03  0.72764886942E+03  0.00000000000E+00 0. -1.
         -3    1    6    6    0  503 -0.24032799114E+02  0.31200785108E+02 -0.54716887747E+02  0.67416631697E+02  0.00000000000E+00 0.  1.
<mgrwt>
<rscale>  0 0.18144927E+04</rscale>
<asrwt>0</asrwt>
<pdfrwt beam="1">  1        2 0.23701880E+00 0.18144927E+04</pdfrwt>
<pdfrwt beam="2">  1       -1 0.82194163E-01 0.18144927E+04</pdfrwt>
<totfact> 0.19044770E+01</totfact>
</mgrwt>
</event>
<event>
12    6  0.1553355E-007  0.1643415E+04  0.7818608E-02  0.8794312E-01
         -1   -1    0    0    0  501 -0.00000000000E+00  0.00000000000E+00  0.33786642703E+03  0.33786642703E+03  0.00000000000E+00 0.  1.
          2   -1    0    0  501    0  0.00000000000E+00 -0.00000000000E+00 -0.19984320888E+04  0.19984320888E+04  0.00000000000E+00 0. -1.
         24    2    1    2    0    0 -0.51950955107E+03  0.20861172553E+03 -0.62776575009E+03  0.84786823625E+03  0.10668497253E+03 0.  0.
        254    2    1    2    0    0  0.51950955107E+03 -0.20861172553E+03 -0.10327999117E+04  0.14884302796E+04  0.91396937254E+03 0.  0.
         23    2    4    4    0    0 -0.21304176623E+03 -0.21604639237E+03 -0.19141261619E+03  0.36919261271E+03  0.87186913155E+02 0.  0.
         23    2    4    4    0    0  0.73255131730E+03  0.74346668437E+01 -0.84138729548E+03  0.11192376669E+04  0.89853587602E+02 0.  0.
          2    1    3    3  502    0 -0.16549847481E+03  0.11592703691E+03 -0.25704793793E+03  0.32695942477E+03  0.00000000000E+00 0. -1.
         -1    1    3    3    0  502 -0.35401107626E+03  0.92684688617E+02 -0.37071781217E+03  0.52090881148E+03  0.00000000000E+00 0.  1.
         11    1    5    5    0    0 -0.20457998208E+03 -0.16232820922E+03 -0.16277786891E+03  0.30773373423E+03  0.00000000000E+00 0.  1.
        -11    1    5    5    0    0 -0.84617841511E+01 -0.53718183147E+02 -0.28634747286E+02  0.61458878478E+02  0.00000000000E+00 0. -1.
          1    1    6    6  503    0  0.70236190737E+03 -0.11281437842E+02 -0.80484315731E+03  0.10682752584E+04  0.00000000000E+00 0.  1.
         -1    1    6    6    0  503  0.30189409929E+02  0.18716104686E+02 -0.36544138173E+02  0.50962408511E+02  0.00000000000E+00 0. -1.
<mgrwt>
<rscale>  0 0.16434149E+04</rscale>
<asrwt>0</asrwt>
<pdfrwt beam="1">  1        2 0.30745109E+00 0.16434149E+04</pdfrwt>
<pdfrwt beam="2">  1       -1 0.51979450E-01 0.16434149E+04</pdfrwt>
<totfact> 0.27161765E+01</totfact>
</mgrwt>
</event>
<event>
12    6  0.1553355E-007  0.1667230E+04  0.7818608E-02  0.8780278E-01
          2   -1    0    0  501    0  0.00000000000E+00  0.00000000000E+00  0.58915030019E+03  0.58915030019E+03  0.00000000000E+00 0. -1.
         -1   -1    0    0    0  501 -0.00000000000E+00 -0.00000000000E+00 -0.11795185014E+04  0.11795185014E+04  0.00000000000E+00 0.  1.
         24    2    1    2    0    0 -0.41066157714E+03  0.40834128884E+03 -0.11795753981E+03  0.59648519707E+03  0.80591997212E+02 0.  0.
        254    2    1    2    0    0  0.41066157714E+03 -0.40834128884E+03 -0.47241066135E+03  0.11721836045E+04  0.90302659459E+03 0.  0.
         23    2    4    4    0    0 -0.20220030778E+02 -0.39132265763E+03  0.13289219190E+03  0.42331650621E+03  0.89410613118E+02 0.  0.
         23    2    4    4    0    0  0.43088160792E+03 -0.17018631202E+02 -0.60530285325E+03  0.74886709827E+03  0.91988003928E+02 0.  0.
          4    1    3    3  502    0 -0.10746240401E+02  0.36847891089E+02 -0.13862792397E+02  0.40809628442E+02  0.00000000000E+00 0. -1.
         -3    1    3    3    0  502 -0.39991533674E+03  0.37149339775E+03 -0.10409474741E+03  0.55567556862E+03  0.00000000000E+00 0.  1.
         11    1    5    5    0    0  0.23811930136E+02 -0.29470767876E+03  0.10130902272E+03  0.31254302427E+03  0.00000000000E+00 0.  1.
        -11    1    5    5    0    0 -0.44031960914E+02 -0.96614978876E+02  0.31583169175E+02  0.11077348194E+03  0.00000000000E+00 0. -1.
          1    1    6    6  503    0  0.28586643947E+03 -0.35369641703E+02 -0.33697756151E+03  0.44331085001E+03  0.00000000000E+00 0. -1.
         -1    1    6    6    0  503  0.14501516844E+03  0.18351010501E+02 -0.26832529174E+03  0.30555624826E+03  0.00000000000E+00 0.  1.
<mgrwt>
<rscale>  0 0.16672297E+04</rscale>
<asrwt>0</asrwt>
<pdfrwt beam="1">  1        2 0.90638509E-01 0.16672297E+04</pdfrwt>
<pdfrwt beam="2">  1       -1 0.18146438E+00 0.16672297E+04</pdfrwt>
<totfact> 0.11224400E+01</totfact>
</mgrwt>
</event>
<event>
12    6  0.1553355E-007  0.1348088E+04  0.7818608E-02  0.8992277E-01
         -1   -1    0    0    0  501 -0.00000000000E+00  0.00000000000E+00  0.10154649557E+04  0.10154649557E+04  0.00000000000E+00 0.  1.
          2   -1    0    0  501    0  0.00000000000E+00 -0.00000000000E+00 -0.44741601058E+03  0.44741601058E+03  0.00000000000E+00 0. -1.
         24    2    1    2    0    0 -0.17463446421E+03  0.25603925206E+03 -0.54585886922E+02  0.32436611291E+03  0.78615911063E+02 0.  0.
        254    2    1    2    0    0  0.17463446421E+03 -0.25603925206E+03  0.62263483201E+03  0.11385148533E+04  0.90138151885E+03 0.  0.
         23    2    4    4    0    0  0.74893717884E+02 -0.58435041559E+03  0.41645303085E+03  0.72731565655E+03  0.92089414073E+02 0.  0.
         23    2    4    4    0    0  0.99740746323E+02  0.32831116353E+03  0.20618180116E+03  0.41119919677E+03  0.94007487573E+02 0.  0.
          2    1    3    3  502    0 -0.17610237009E+03  0.24060408517E+03 -0.65664519239E+02  0.30531000579E+03  0.00000000000E+00 0. -1.
         -3    1    3    3    0  502  0.14679058810E+01  0.15435166890E+02  0.11078632317E+02  0.19056107121E+02  0.00000000000E+00 0.  1.
         11    1    5    5    0    0 -0.10301609103E+02 -0.18073655770E+02  0.30247311260E+01  0.21022111725E+02  0.00000000000E+00 0.  1.
        -11    1    5    5    0    0  0.85195326988E+02 -0.56627675982E+03  0.41342829972E+03  0.70629354483E+03  0.00000000000E+00 0. -1.
          2    1    6    6  503    0  0.89335626960E+02  0.33096353724E+03  0.19047112542E+03  0.39216956389E+03  0.00000000000E+00 0. -1.
         -2    1    6    6    0  503  0.10405119362E+02 -0.26523737056E+01  0.15710675747E+02  0.19029632882E+02  0.00000000000E+00 0.  1.
<mgrwt>
<rscale>  0 0.13480879E+04</rscale>
<asrwt>0</asrwt>
<pdfrwt beam="1">  1        2 0.68833233E-01 0.13480879E+04</pdfrwt>
<pdfrwt beam="2">  1       -1 0.15622538E+00 0.13480879E+04</pdfrwt>
<totfact> 0.24431029E+01</totfact>
</mgrwt>
</event>
<event>
12    6  0.1553355E-007  0.2374191E+04  0.7818608E-02  0.8449230E-01
         -1   -1    0    0    0  501 -0.00000000000E+00  0.00000000000E+00  0.60350278244E+03  0.60350278244E+03  0.00000000000E+00 0.  1.
          2   -1    0    0  501    0  0.00000000000E+00 -0.00000000000E+00 -0.23350273784E+04  0.23350273784E+04  0.00000000000E+00 0. -1.
         24    2    1    2    0    0 -0.73005275792E+03 -0.68734767674E+03 -0.88045222134E+03  0.13368457644E+04  0.80849400623E+02 0.  0.
        254    2    1    2    0    0  0.73005275792E+03  0.68734767674E+03 -0.85107237458E+03  0.16016843964E+04  0.91413612823E+03 0.  0.
         23    2    4    4    0    0  0.64546576857E+03  0.64416816192E+02 -0.67673647809E+03  0.94233377196E+03  0.96151403565E+02 0.  0.
         23    2    4    4    0    0  0.84586989351E+02  0.62293086055E+03 -0.17433589649E+03  0.65935062447E+03  0.95668309191E+02 0.  0.
          4    1    3    3  502    0 -0.71728487427E+03 -0.67603423013E+03 -0.87722079039E+03  0.13194833028E+04  0.00000000000E+00 0. -1.
         -3    1    3    3    0  502 -0.12767883646E+02 -0.11313446614E+02 -0.32314309432E+01  0.17362461606E+02  0.00000000000E+00 0.  1.
         11    1    5    5    0    0  0.49722743241E+03  0.59409062307E+02 -0.57491332707E+03  0.76242369446E+03  0.00000000000E+00 0. -1.
        -11    1    5    5    0    0  0.14823833615E+03  0.50077538846E+01 -0.10182315102E+03  0.17991007750E+03  0.00000000000E+00 0.  1.
          2    1    6    6  503    0  0.80251469761E+02  0.30328299226E+03 -0.57226272400E+02  0.31889766077E+03  0.00000000000E+00 0. -1.
         -2    1    6    6    0  503  0.43355195896E+01  0.31964786829E+03 -0.11710962409E+03  0.34045296369E+03  0.00000000000E+00 0.  1.
<mgrwt>
<rscale>  0 0.23741908E+04</rscale>
<asrwt>0</asrwt>
<pdfrwt beam="1">  1        2 0.35923498E+00 0.23741908E+04</pdfrwt>
<pdfrwt beam="2">  1       -1 0.92846581E-01 0.23741908E+04</pdfrwt>
<totfact> 0.50036483E+00</totfact>
</mgrwt>
</event>
<event>
12    6  0.1553355E-007  0.2541302E+04  0.7818608E-02  0.8388418E-01
          2   -1    0    0  501    0  0.00000000000E+00  0.00000000000E+00  0.25419437733E+04  0.25419437733E+04  0.00000000000E+00 0. -1.
         -1   -1    0    0    0  501 -0.00000000000E+00 -0.00000000000E+00 -0.63516494413E+03  0.63516494413E+03  0.00000000000E+00 0.  1.
         24    2    1    2    0    0 -0.96212011414E+03  0.55441496083E+03  0.73103459897E+03  0.13318851056E+04  0.80344800244E+02 0.  0.
        254    2    1    2    0    0  0.96212011414E+03 -0.55441496083E+03  0.11757442302E+04  0.18452236118E+04  0.88849570615E+03 0.  0.
         23    2    4    4    0    0  0.88958491748E+03 -0.58622657339E+03  0.12919117189E+04  0.16769088812E+04  0.89244526586E+02 0.  0.
         23    2    4    4    0    0  0.72535196658E+02  0.31811612560E+02 -0.11616748865E+03  0.16831473066E+03  0.92529074839E+02 0.  0.
          2    1    3    3  502    0 -0.12603086369E+02  0.50210331439E+01  0.21486303963E+02  0.25410820881E+02  0.00000000000E+00 0. -1.
         -1    1    3    3    0  502 -0.94951702777E+03  0.54939392769E+03  0.70954829501E+03  0.13064742848E+04  0.00000000000E+00 0.  1.
         11    1    5    5    0    0  0.86032405097E+03 -0.55020730383E+03  0.12160030177E+04  0.15879385659E+04  0.00000000000E+00 0. -1.
        -11    1    5    5    0    0  0.29260866514E+02 -0.36019269563E+02  0.75908701178E+02  0.88970315294E+02  0.00000000000E+00 0.  1.
          3    1    6    6  503    0 -0.59848726370E+01  0.37695424085E+02 -0.61773271869E+02  0.72613365263E+02  0.00000000000E+00 0. -1.
         -3    1    6    6    0  503  0.78520069295E+02 -0.58838115242E+01 -0.54394216786E+02  0.95701365402E+02  0.00000000000E+00 0.  1.
<mgrwt>
<rscale>  0 0.25413017E+04</rscale>
<asrwt>0</asrwt>
<pdfrwt beam="1">  1        2 0.39106827E+00 0.25413017E+04</pdfrwt>
<pdfrwt beam="2">  1       -1 0.97717685E-01 0.25413017E+04</pdfrwt>
<totfact> 0.33414790E+00</totfact>
</mgrwt>
</event>
<event>
12    6  0.2191325E-007  0.1489779E+04  0.7818608E-02  0.8891278E-01
          2   -1    0    0  501    0  0.00000000000E+00  0.00000000000E+00  0.14576015484E+04  0.14576015484E+04  0.00000000000E+00 0. -1.
         -1   -1    0    0    0  501 -0.00000000000E+00 -0.00000000000E+00 -0.38066660464E+03  0.38066660464E+03  0.00000000000E+00 0.  1.
         24    2    1    2    0    0  0.42990550547E+03  0.82077829318E+02  0.52166608286E+03  0.68495870765E+03  0.74009563492E+02 0.  0.
        254    2    1    2    0    0 -0.42990550547E+03 -0.82077829318E+02  0.55526886092E+03  0.11533094454E+04  0.91117707130E+03 0.  0.
         23    2    4    4    0    0 -0.46279352880E+02 -0.37084614491E+03  0.54114197771E+03  0.66422118270E+03  0.93201383109E+02 0.  0.
         23    2    4    4    0    0 -0.38362615259E+03  0.28876831559E+03  0.14126883209E+02  0.48908826271E+03  0.91932555993E+02 0.  0.
          2    1    3    3  502    0  0.42803655616E+03  0.74114305119E+02  0.50324759339E+03  0.66480550832E+03  0.00000000000E+00 0. -1.
         -1    1    3    3    0  502  0.18689493038E+01  0.79635241989E+01  0.18418489472E+02  0.20153199339E+02  0.00000000000E+00 0.  1.
         11    1    5    5    0    0 -0.31109481754E+02 -0.36839453561E+03  0.52233713674E+03  0.63993626100E+03  0.00000000000E+00 0.  1.
        -11    1    5    5    0    0 -0.15169871126E+02 -0.24516092925E+01  0.18804840973E+02  0.24284921703E+02  0.00000000000E+00 0. -1.
          4    1    6    6  503    0 -0.38406632004E+03  0.28683590914E+03  0.23087336930E+02  0.47991124397E+03  0.00000000000E+00 0.  1.
         -4    1    6    6    0  503  0.44016744969E+00  0.19324064466E+01 -0.89604537205E+01  0.91770187390E+01  0.00000000000E+00 0. -1.
<mgrwt>
<rscale>  0 0.14897788E+04</rscale>
<asrwt>0</asrwt>
<pdfrwt beam="1">  1        2 0.22424639E+00 0.14897788E+04</pdfrwt>
<pdfrwt beam="2">  1       -1 0.58564094E-01 0.14897788E+04</pdfrwt>
<totfact> 0.43676767E+01</totfact>
</mgrwt>
</event>
<event>
12    6  0.1553355E-007  0.1674504E+04  0.7818608E-02  0.8776041E-01
         -1   -1    0    0    0  501 -0.00000000000E+00  0.00000000000E+00  0.47928448295E+03  0.47928448295E+03  0.00000000000E+00 0.  1.
          2   -1    0    0  501    0  0.00000000000E+00 -0.00000000000E+00 -0.14625776019E+04  0.14625776019E+04  0.00000000000E+00 0. -1.
         24    2    1    2    0    0 -0.77635888227E+02 -0.40108854840E+03  0.19637047190E+03  0.46020630260E+03  0.79555791230E+02 0.  0.
        254    2    1    2    0    0  0.77635888227E+02  0.40108854840E+03 -0.11796635909E+04  0.14816557823E+04  0.79799643777E+03 0.  0.
         23    2    4    4    0    0 -0.12780106646E+02  0.11421843220E+03 -0.11575750508E+04  0.11668419154E+04  0.91273631549E+02 0.  0.
         23    2    4    4    0    0  0.90415994873E+02  0.28687011620E+03 -0.22088540033E+02  0.31481386687E+03  0.90279297062E+02 0.  0.
          4    1    3    3  502    0 -0.73465779098E+01 -0.23575262861E+03  0.98363500272E+02  0.25555557574E+03  0.00000000000E+00 0. -1.
         -3    1    3    3    0  502 -0.70289310317E+02 -0.16533591979E+03  0.98006971629E+02  0.20465072686E+03  0.00000000000E+00 0.  1.
         11    1    5    5    0    0 -0.40781297509E+02  0.18856176339E+02 -0.46613163410E+03  0.46829197081E+03  0.00000000000E+00 0.  1.
        -11    1    5    5    0    0  0.28001190863E+02  0.95362255861E+02 -0.69144341673E+03  0.69854994458E+03  0.00000000000E+00 0. -1.
          1    1    6    6  503    0  0.46171660702E+02  0.24423329080E+03  0.26567088075E+01  0.24857349152E+03  0.00000000000E+00 0. -1.
         -1    1    6    6    0  503  0.44244334171E+02  0.42636825401E+02 -0.24745248840E+02  0.66240375351E+02  0.00000000000E+00 0.  1.
<mgrwt>
<rscale>  0 0.16745038E+04</rscale>
<asrwt>0</asrwt>
<pdfrwt beam="1">  1        2 0.22501194E+00 0.16745038E+04</pdfrwt>
<pdfrwt beam="2">  1       -1 0.73736075E-01 0.16745038E+04</pdfrwt>
<totfact> 0.26829259E+01</totfact>
</mgrwt>
</event>
<event>
12    6  0.1553355E-007  0.1302210E+04  0.7818608E-02  0.9027814E-01
         -1   -1    0    0    0  501 -0.00000000000E+00  0.00000000000E+00  0.40742535176E+03  0.40742535176E+03  0.00000000000E+00 0.  1.
          2   -1    0    0  501    0  0.00000000000E+00 -0.00000000000E+00 -0.10405288261E+04  0.10405288261E+04  0.00000000000E+00 0. -1.
         24    2    1    2    0    0  0.23777494751E+03 -0.98957294017E+02  0.45928995327E+02  0.27334047064E+03  0.79221642082E+02 0.  0.
        254    2    1    2    0    0 -0.23777494751E+03  0.98957294017E+02 -0.67903246962E+03  0.11746137072E+04  0.92320246674E+03 0.  0.
         23    2    4    4    0    0  0.95122438100E+00 -0.38096302279E+03 -0.15874077301E+03  0.42215670095E+03  0.88791427421E+02 0.  0.
         23    2    4    4    0    0 -0.23872617189E+03  0.47992031681E+03 -0.52029169662E+03  0.75245700623E+03  0.90412394207E+02 0.  0.
          4    1    3    3  502    0  0.90076564145E+02 -0.50432163065E+01 -0.69894977185E+01  0.90487979960E+02  0.00000000000E+00 0. -1.
         -3    1    3    3    0  502  0.14769838336E+03 -0.93914077711E+02  0.52918493046E+02  0.18285249068E+03  0.00000000000E+00 0.  1.
         11    1    5    5    0    0  0.34219882770E+02 -0.77787167860E+02 -0.21219668113E+02  0.87590628353E+02  0.00000000000E+00 0. -1.
        -11    1    5    5    0    0 -0.33268658389E+02 -0.30317585493E+03 -0.13752110489E+03  0.33456607260E+03  0.00000000000E+00 0.  1.
          4    1    6    6  503    0 -0.46258036512E+01  0.66633614927E+02 -0.45183770214E+02  0.80641241238E+02  0.00000000000E+00 0. -1.
         -4    1    6    6    0  503 -0.23410036824E+03  0.41328670188E+03 -0.47510792640E+03  0.67181576499E+03  0.00000000000E+00 0.  1.
<mgrwt>
<rscale>  0 0.13022102E+04</rscale>
<asrwt>0</asrwt>
<pdfrwt beam="1">  1        2 0.16008135E+00 0.13022102E+04</pdfrwt>
<pdfrwt beam="2">  1       -1 0.62680826E-01 0.13022102E+04</pdfrwt>
<totfact> 0.68494384E+01</totfact>
</mgrwt>
</event>
<event>
12    6  0.1553355E-007  0.2031320E+04  0.7818608E-02  0.8592116E-01
         -1   -1    0    0    0  501 -0.00000000000E+00  0.00000000000E+00  0.11511621335E+04  0.11511621335E+04  0.00000000000E+00 0.  1.
          2   -1    0    0  501    0  0.00000000000E+00 -0.00000000000E+00 -0.89610757489E+03  0.89610757489E+03  0.00000000000E+00 0. -1.
         24    2    1    2    0    0  0.47898835086E+03 -0.36715282699E+03 -0.44356292155E+03  0.75322155937E+03  0.79772260166E+02 0.  0.
        254    2    1    2    0    0 -0.47898835086E+03  0.36715282699E+03  0.69861748012E+03  0.12940481490E+04  0.90678729022E+03 0.  0.
         23    2    4    4    0    0 -0.29143043534E+03  0.59906351111E+03  0.71387053022E+03  0.98097422540E+03  0.94289490292E+02 0.  0.
         23    2    4    4    0    0 -0.18755791552E+03 -0.23191068412E+03 -0.15253050103E+02  0.31307392358E+03  0.93925976198E+02 0.  0.
          4    1    3    3  502    0  0.26140046485E+03 -0.21751815400E+03 -0.29523239662E+03  0.45034044717E+03  0.00000000000E+00 0. -1.
         -3    1    3    3    0  502  0.21758788601E+03 -0.14963467299E+03 -0.14833052494E+03  0.30288111220E+03  0.00000000000E+00 0.  1.
         11    1    5    5    0    0 -0.27905276926E+03  0.56948109420E+03  0.64267437648E+03  0.90288953858E+03  0.00000000000E+00 0.  1.
        -11    1    5    5    0    0 -0.12377666079E+02  0.29582416910E+02  0.71196153743E+02  0.78084686819E+02  0.00000000000E+00 0. -1.
          2    1    6    6  503    0 -0.14327547836E+03 -0.20995002136E+03  0.15851702645E+02  0.25467263427E+03  0.00000000000E+00 0.  1.
         -2    1    6    6    0  503 -0.44282437159E+02 -0.21960662760E+02 -0.31104752748E+02  0.58401289311E+02  0.00000000000E+00 0. -1.
<mgrwt>
<rscale>  0 0.20313199E+04</rscale>
<asrwt>0</asrwt>
<pdfrwt beam="1">  1        2 0.13786270E+00 0.20313199E+04</pdfrwt>
<pdfrwt beam="2">  1       -1 0.17710187E+00 0.20313199E+04</pdfrwt>
<totfact> 0.68113321E+00</totfact>
</mgrwt>
</event>
<event>
12    6  0.1553355E-007  0.1528102E+04  0.7818608E-02  0.8865977E-01
          2   -1    0    0  501    0  0.00000000000E+00  0.00000000000E+00  0.24106755952E+04  0.24106755952E+04  0.00000000000E+00 0. -1.
         -1   -1    0    0    0  501 -0.00000000000E+00 -0.00000000000E+00 -0.24216207335E+03  0.24216207335E+03  0.00000000000E+00 0.  1.
         24    2    1    2    0    0 -0.43439106567E+03 -0.18346930510E+03  0.94512052525E+03  0.10593762432E+04  0.81661701580E+02 0.  0.
        254    2    1    2    0    0  0.43439106567E+03  0.18346930510E+03  0.12233929966E+04  0.15934614254E+04  0.90557843737E+03 0.  0.
         23    2    4    4    0    0  0.57036804611E+03  0.12495240094E+03  0.12812791029E+04  0.14110226900E+04  0.91520935314E+02 0.  0.
         23    2    4    4    0    0 -0.13597698044E+03  0.58516904164E+02 -0.57886106227E+02  0.18243873546E+03  0.89549559578E+02 0.  0.
          4    1    3    3  502    0 -0.43377985405E+03 -0.17398966034E+03  0.93603849202E+03  0.10462339233E+04  0.00000000000E+00 0. -1.
         -3    1    3    3    0  502 -0.61121161955E+00 -0.94796447672E+01  0.90820332299E+01  0.13142319892E+02  0.00000000000E+00 0.  1.
         11    1    5    5    0    0  0.36397122329E+03  0.77833539617E+02  0.91756208778E+03  0.99017841635E+03  0.00000000000E+00 0.  1.
        -11    1    5    5    0    0  0.20639682282E+03  0.47118861323E+02  0.36371701508E+03  0.42084427360E+03  0.00000000000E+00 0. -1.
          2    1    6    6  503    0 -0.93692932270E+02 -0.84910093339E+00 -0.78370450656E+01  0.94023963994E+02  0.00000000000E+00 0. -1.
         -2    1    6    6    0  503 -0.42284048171E+02  0.59366005098E+02 -0.50049061161E+02  0.88414771470E+02  0.00000000000E+00 0.  1.
<mgrwt>
<rscale>  0 0.15281024E+04</rscale>
<asrwt>0</asrwt>
<pdfrwt beam="1">  1        2 0.37087315E+00 0.15281024E+04</pdfrwt>
<pdfrwt beam="2">  1       -1 0.37255705E-01 0.15281024E+04</pdfrwt>
<totfact> 0.29901718E+01</totfact>
</mgrwt>
</event>
<event>
12    6  0.1553355E-007  0.1177777E+04  0.7818608E-02  0.9132534E-01
         -1   -1    0    0    0  501 -0.00000000000E+00  0.00000000000E+00  0.23085740594E+03  0.23085740594E+03  0.00000000000E+00 0.  1.
          2   -1    0    0  501    0  0.00000000000E+00 -0.00000000000E+00 -0.15021813453E+04  0.15021813453E+04  0.00000000000E+00 0. -1.
         24    2    1    2    0    0  0.21774730188E+03 -0.42280002127E+02 -0.25246963750E+03  0.34520609769E+03  0.78897693019E+02 0.  0.
        254    2    1    2    0    0 -0.21774730188E+03  0.42280002127E+02 -0.10188543019E+04  0.13878326536E+04  0.91586783971E+03 0.  0.
         23    2    4    4    0    0 -0.51054575828E+03 -0.11738992860E+03 -0.85065831547E+03  0.10031032991E+04  0.90328801302E+02 0.  0.
         23    2    4    4    0    0  0.29279845639E+03  0.15966993073E+03 -0.16819598639E+03  0.38472935446E+03  0.92202838917E+02 0.  0.
          4    1    3    3  502    0  0.15193815023E+03  0.83840917844E+01 -0.17016851343E+03  0.22828231962E+03  0.00000000000E+00 0. -1.
         -3    1    3    3    0  502  0.65809151652E+02 -0.50664093911E+02 -0.82301124073E+02  0.11692377806E+03  0.00000000000E+00 0.  1.
         11    1    5    5    0    0 -0.67703943980E+02  0.12957271946E+02 -0.90627030391E+02  0.11386383782E+03  0.00000000000E+00 0.  1.
        -11    1    5    5    0    0 -0.44284181430E+03 -0.13034720055E+03 -0.76003128508E+03  0.88923946127E+03  0.00000000000E+00 0. -1.
          1    1    6    6  503    0  0.18344707682E+03  0.14843361896E+03 -0.11926078784E+03  0.26440216480E+03  0.00000000000E+00 0. -1.
         -1    1    6    6    0  503  0.10935137957E+03  0.11236311764E+02 -0.48935198541E+02  0.12032718966E+03  0.00000000000E+00 0.  1.
<mgrwt>
<rscale>  0 0.11777770E+04</rscale>
<asrwt>0</asrwt>
<pdfrwt beam="1">  1        2 0.23110482E+00 0.11777770E+04</pdfrwt>
<pdfrwt beam="2">  1       -1 0.35516524E-01 0.11777770E+04</pdfrwt>
<totfact> 0.10765772E+02</totfact>
</mgrwt>
</event>
<event>
12    6  0.1553355E-007  0.2008202E+04  0.7818608E-02  0.8602796E-01
          2   -1    0    0  501    0  0.00000000000E+00  0.00000000000E+00  0.14684542649E+04  0.14684542649E+04  0.00000000000E+00 0. -1.
         -1   -1    0    0    0  501 -0.00000000000E+00 -0.00000000000E+00 -0.68658480089E+03  0.68658480089E+03  0.00000000000E+00 0.  1.
         24    2    1    2    0    0  0.56641790603E+03 -0.69567872466E+02 -0.28711816800E+03  0.64377736391E+03  0.79646209793E+02 0.  0.
        254    2    1    2    0    0 -0.56641790603E+03  0.69567872466E+02  0.10689876320E+04  0.15112617019E+04  0.90305505980E+03 0.  0.
         23    2    4    4    0    0 -0.69601863973E+03 -0.22165384045E+03  0.75095432375E+03  0.10516584816E+04  0.92091225470E+02 0.  0.
         23    2    4    4    0    0  0.12960073370E+03  0.29122171292E+03  0.31803330827E+03  0.45960322025E+03  0.92105909946E+02 0.  0.
          2    1    3    3  502    0  0.22347027266E+03  0.45528773134E+01 -0.86981885461E+02  0.23984482453E+03  0.00000000000E+00 0. -1.
         -1    1    3    3    0  502  0.34294763337E+03 -0.74120749780E+02 -0.20013628254E+03  0.40393253938E+03  0.00000000000E+00 0.  1.
         11    1    5    5    0    0 -0.68697869596E+02 -0.50937662522E+02  0.10121523016E+03  0.13250873770E+03  0.00000000000E+00 0.  1.
        -11    1    5    5    0    0 -0.62732077013E+03 -0.17071617793E+03  0.64973909359E+03  0.91914974394E+03  0.00000000000E+00 0. -1.
          2    1    6    6  503    0  0.95974690025E+02  0.27661736806E+03  0.26357219580E+03  0.39395255024E+03  0.00000000000E+00 0. -1.
         -2    1    6    6    0  503  0.33626043673E+02  0.14604344852E+02  0.54461112472E+02  0.65650670014E+02  0.00000000000E+00 0.  1.
<mgrwt>
<rscale>  0 0.20082016E+04</rscale>
<asrwt>0</asrwt>
<pdfrwt beam="1">  1        2 0.22591604E+00 0.20082016E+04</pdfrwt>
<pdfrwt beam="2">  1       -1 0.10562843E+00 0.20082016E+04</pdfrwt>
<totfact> 0.11748452E+01</totfact>
</mgrwt>
</event>
<event>
12    6  0.1553355E-007  0.1384087E+04  0.7818608E-02  0.8965419E-01
         -1   -1    0    0    0  501 -0.00000000000E+00  0.00000000000E+00  0.95140855998E+03  0.95140855998E+03  0.00000000000E+00 0.  1.
          2   -1    0    0  501    0  0.00000000000E+00 -0.00000000000E+00 -0.50338421786E+03  0.50338421786E+03  0.00000000000E+00 0. -1.
         24    2    1    2    0    0 -0.30244318627E+03  0.24459210700E+03  0.11410067516E+03  0.41216895180E+03  0.74613008440E+02 0.  0.
        254    2    1    2    0    0  0.30244318627E+03 -0.24459210700E+03  0.33392366697E+03  0.10426238260E+04  0.90788889604E+03 0.  0.
         23    2    4    4    0    0  0.70873209699E+02 -0.48951768144E+03 -0.71610565465E+02  0.50779538585E+03  0.89874960415E+02 0.  0.
         23    2    4    4    0    0  0.23156997657E+03  0.24492557444E+03  0.40553423243E+03  0.53482844019E+03  0.89276288542E+02 0.  0.
          2    1    3    3  502    0 -0.17108468113E+03  0.11840882896E+03  0.95944519331E+02  0.22911998971E+03  0.00000000000E+00 0. -1.
         -1    1    3    3    0  502 -0.13135850513E+03  0.12618327804E+03  0.18156155829E+02  0.18304896209E+03  0.00000000000E+00 0.  1.
         11    1    5    5    0    0 -0.18792629020E+02 -0.16262228978E+03 -0.26553167184E+02  0.16584403133E+03  0.00000000000E+00 0. -1.
        -11    1    5    5    0    0  0.89665838719E+02 -0.32689539166E+03 -0.45057398280E+02  0.34195135453E+03  0.00000000000E+00 0.  1.
          1    1    6    6  503    0  0.18715407491E+03  0.15312194001E+03  0.32383149656E+03  0.40415320663E+03  0.00000000000E+00 0.  1.
         -1    1    6    6    0  503  0.44415901660E+02  0.91803634437E+02  0.81702735869E+02  0.13067523356E+03  0.00000000000E+00 0. -1.
<mgrwt>
<rscale>  0 0.13840868E+04</rscale>
<asrwt>0</asrwt>
<pdfrwt beam="1">  1        2 0.77443726E-01 0.13840868E+04</pdfrwt>
<pdfrwt beam="2">  1       -1 0.14637055E+00 0.13840868E+04</pdfrwt>
<totfact> 0.25368234E+01</totfact>
</mgrwt>
</event>
<event>
12    6  0.1553355E-007  0.1486745E+04  0.7818608E-02  0.8893316E-01
          2   -1    0    0  501    0  0.00000000000E+00  0.00000000000E+00  0.13423814208E+04  0.13423814208E+04  0.00000000000E+00 0. -1.
         -3   -1    0    0    0  501 -0.00000000000E+00 -0.00000000000E+00 -0.41165830726E+03  0.41165830726E+03  0.00000000000E+00 0.  1.
         24    2    1    2    0    0 -0.52106320743E+02  0.47257724287E+02  0.81903059392E+03  0.82591296188E+03  0.79829478643E+02 0.  0.
        254    2    1    2    0    0  0.52106320743E+02 -0.47257724287E+02  0.11169251960E+03  0.92812676615E+03  0.91869239354E+03 0.  0.
         23    2    4    4    0    0 -0.27896945970E+03 -0.34894194387E+03  0.11916887057E+03  0.47105872879E+03  0.90059239473E+02 0.  0.
         23    2    4    4    0    0  0.33107578044E+03  0.30168421959E+03 -0.74763509702E+01  0.45706803737E+03  0.90723504195E+02 0.  0.
          4    1    3    3  502    0 -0.44857109008E+01  0.24445211082E+02  0.60339252907E+03  0.60390415968E+03  0.00000000000E+00 0. -1.
         -3    1    3    3    0  502 -0.47620609842E+02  0.22812513205E+02  0.21563806485E+03  0.22200880220E+03  0.00000000000E+00 0.  1.
         11    1    5    5    0    0 -0.13937975797E+03 -0.18648046847E+03  0.10781184049E+03  0.25656397838E+03  0.00000000000E+00 0. -1.
        -11    1    5    5    0    0 -0.13958970173E+03 -0.16246147540E+03  0.11357030077E+02  0.21449475041E+03  0.00000000000E+00 0.  1.
          3    1    6    6  503    0  0.26241074288E+03  0.21501291163E+03  0.29364043810E+02  0.34051754318E+03  0.00000000000E+00 0. -1.
         -3    1    6    6    0  503  0.68665037563E+02  0.86671307960E+02 -0.36840394780E+02  0.11655049418E+03  0.00000000000E+00 0.  1.
<mgrwt>
<rscale>  0 0.14867447E+04</rscale>
<asrwt>0</asrwt>
<pdfrwt beam="1">  1        2 0.20652022E+00 0.14867447E+04</pdfrwt>
<pdfrwt beam="2">  1       -3 0.63332048E-01 0.14867447E+04</pdfrwt>
<totfact> 0.23338842E+01</totfact>
</mgrwt>
</event>
<event>
12    6  0.1553355E-007  0.1498520E+04  0.7818608E-02  0.8885437E-01
         -1   -1    0    0    0  501 -0.00000000000E+00  0.00000000000E+00  0.35214256919E+03  0.35214256919E+03  0.00000000000E+00 0.  1.
          2   -1    0    0  501    0  0.00000000000E+00 -0.00000000000E+00 -0.15942146979E+04  0.15942146979E+04  0.00000000000E+00 0. -1.
         24    2    1    2    0    0  0.44540725193E+02  0.44712373732E+02 -0.10135278315E+04  0.10186515182E+04  0.80182153189E+02 0.  0.
        254    2    1    2    0    0 -0.44540725193E+02 -0.44712373732E+02 -0.22854429722E+03  0.92770574893E+03  0.89689597403E+03 0.  0.
         23    2    4    4    0    0 -0.37400832317E+03  0.21186677211E+03 -0.23830390287E+03  0.49994043357E+03  0.91552892214E+02 0.  0.
         23    2    4    4    0    0  0.32946759798E+03 -0.25657914584E+03  0.97596056536E+01  0.42776531535E+03  0.92228839943E+02 0.  0.
          2    1    3    3  502    0  0.67190980514E+02  0.37457014228E+02 -0.83722281615E+03  0.84074948686E+03  0.00000000000E+00 0. -1.
         -1    1    3    3    0  502 -0.22650255321E+02  0.72553595044E+01 -0.17630501537E+03  0.17790203133E+03  0.00000000000E+00 0.  1.
         11    1    5    5    0    0 -0.18930395751E+02  0.21964186091E+02  0.50700683771E+01  0.29436218291E+02  0.00000000000E+00 0. -1.
        -11    1    5    5    0    0 -0.35507792742E+03  0.18990258602E+03 -0.24337397125E+03  0.47050421528E+03  0.00000000000E+00 0.  1.
          2    1    6    6  503    0  0.97826176691E+02 -0.11743986745E+03  0.33606771032E+02  0.15649759862E+03  0.00000000000E+00 0. -1.
         -2    1    6    6    0  503  0.23164142129E+03 -0.13913927839E+03 -0.23847165378E+02  0.27126771674E+03  0.00000000000E+00 0.  1.
<mgrwt>
<rscale>  0 0.14985204E+04</rscale>
<asrwt>0</asrwt>
<pdfrwt beam="1">  1        2 0.24526380E+00 0.14985204E+04</pdfrwt>
<pdfrwt beam="2">  1       -1 0.54175780E-01 0.14985204E+04</pdfrwt>
<totfact> 0.42554312E+01</totfact>
</mgrwt>
</event>
<event>
12    6  0.1553355E-007  0.1672793E+04  0.7818608E-02  0.8777035E-01
          2   -1    0    0  501    0  0.00000000000E+00  0.00000000000E+00  0.29449920104E+04  0.29449920104E+04  0.00000000000E+00 0. -1.
         -1   -1    0    0    0  501 -0.00000000000E+00 -0.00000000000E+00 -0.23754197470E+03  0.23754197470E+03  0.00000000000E+00 0.  1.
         24    2    1    2    0    0  0.12844545915E+03  0.25825483689E+03 -0.20545469176E+02  0.30003470234E+03  0.80030678808E+02 0.  0.
        254    2    1    2    0    0 -0.12844545915E+03 -0.25825483689E+03  0.27279955049E+04  0.28824992828E+04  0.88523942735E+03 0.  0.
         23    2    4    4    0    0 -0.23879592098E+03 -0.28040657927E+03  0.27102706199E+04  0.27369107185E+04  0.97273359393E+02 0.  0.
         23    2    4    4    0    0  0.11035046183E+03  0.22151742376E+02  0.17724884995E+02  0.14558856427E+03  0.90630758467E+02 0.  0.
          4    1    3    3  502    0  0.13097102790E+02  0.83982488428E+01 -0.19357275072E+02  0.24834830044E+02  0.00000000000E+00 0. -1.
         -3    1    3    3    0  502  0.11534835636E+03  0.24985658805E+03 -0.11881941042E+01  0.27519987229E+03  0.00000000000E+00 0.  1.
         11    1    5    5    0    0 -0.19668455511E+02 -0.18986588211E+02  0.78458484215E+02  0.83084730363E+02  0.00000000000E+00 0.  1.
        -11    1    5    5    0    0 -0.21912746547E+03 -0.26141999106E+03  0.26318121357E+04  0.26538259881E+04  0.00000000000E+00 0. -1.
          2    1    6    6  503    0  0.10224146057E+03 -0.12863458569E+02 -0.48215904099E+01  0.10316022760E+03  0.00000000000E+00 0. -1.
         -2    1    6    6    0  503  0.81090012641E+01  0.35015200945E+02  0.22546475405E+02  0.42428336662E+02  0.00000000000E+00 0.  1.
<mgrwt>
<rscale>  0 0.16727931E+04</rscale>
<asrwt>0</asrwt>
<pdfrwt beam="1">  1        2 0.45307567E+00 0.16727931E+04</pdfrwt>
<pdfrwt beam="2">  1       -1 0.36544921E-01 0.16727931E+04</pdfrwt>
<totfact> 0.14757057E+01</totfact>
</mgrwt>
</event>
<event>
12    6  0.1553355E-007  0.1594708E+04  0.7818608E-02  0.8823806E-01
         -1   -1    0    0    0  501 -0.00000000000E+00  0.00000000000E+00  0.57175784732E+03  0.57175784732E+03  0.00000000000E+00 0.  1.
          2   -1    0    0  501    0  0.00000000000E+00 -0.00000000000E+00 -0.11119620468E+04  0.11119620468E+04  0.00000000000E+00 0. -1.
         24    2    1    2    0    0  0.15208364731E+03  0.26041814657E+03 -0.66806660402E+03  0.73860123744E+03  0.90949181941E+02 0.  0.
        254    2    1    2    0    0 -0.15208364731E+03 -0.26041814657E+03  0.12786240455E+03  0.94511865667E+03  0.88654014790E+03 0.  0.
         23    2    4    4    0    0 -0.15521292839E+03 -0.32417228247E+03 -0.31653195490E+03  0.48748729446E+03  0.90954174873E+02 0.  0.
         23    2    4    4    0    0  0.31292810800E+01  0.63754135900E+02  0.44439435945E+03  0.45763136220E+03  0.88688977441E+02 0.  0.
          2    1    3    3  502    0  0.10051923808E+03  0.22136742339E+03 -0.58357966074E+03  0.63219686316E+03  0.00000000000E+00 0. -1.
         -1    1    3    3    0  502  0.51564409235E+02  0.39050723188E+02 -0.84486943288E+02  0.10640437429E+03  0.00000000000E+00 0.  1.
         11    1    5    5    0    0 -0.99711972415E+02 -0.19349906238E+03 -0.24755053488E+03  0.32964470556E+03  0.00000000000E+00 0. -1.
        -11    1    5    5    0    0 -0.55500955980E+02 -0.13067322009E+03 -0.68981420023E+02  0.15784258891E+03  0.00000000000E+00 0.  1.
          4    1    6    6  503    0  0.35520984256E+02  0.47663514672E+02  0.15537719642E+03  0.16635992342E+03  0.00000000000E+00 0.  1.
         -4    1    6    6    0  503 -0.32391703176E+02  0.16090621228E+02  0.28901716302E+03  0.29127143878E+03  0.00000000000E+00 0. -1.
<mgrwt>
<rscale>  0 0.15947075E+04</rscale>
<asrwt>0</asrwt>
<pdfrwt beam="1">  1        2 0.17107108E+00 0.15947075E+04</pdfrwt>
<pdfrwt beam="2">  1       -1 0.87962746E-01 0.15947075E+04</pdfrwt>
<totfact> 0.29778423E+01</totfact>
</mgrwt>
</event>
<event>
12    6  0.1553355E-007  0.2685528E+04  0.7818608E-02  0.8339716E-01
         -1   -1    0    0    0  501 -0.00000000000E+00  0.00000000000E+00  0.45748313083E+03  0.45748313083E+03  0.00000000000E+00 0.  1.
          2   -1    0    0  501    0  0.00000000000E+00 -0.00000000000E+00 -0.39411614412E+04  0.39411614412E+04  0.00000000000E+00 0. -1.
         24    2    1    2    0    0  0.51331355890E+03 -0.10422656574E+04 -0.11137984616E+04  0.16114748273E+04  0.80595256793E+02 0.  0.
        254    2    1    2    0    0 -0.51331355890E+03  0.10422656574E+04 -0.23698798487E+04  0.27871697447E+04  0.89564288545E+03 0.  0.
         23    2    4    4    0    0  0.84677481555E+02  0.41576478863E+03 -0.26373238279E+03  0.50801470044E+03  0.92160353625E+02 0.  0.
         23    2    4    4    0    0 -0.59799104046E+03  0.62650086878E+03 -0.21061474659E+04  0.22791550443E+04  0.92703531112E+02 0.  0.
          4    1    3    3  502    0  0.43607378212E+02 -0.49427265280E+02 -0.54212817742E+02  0.85344522936E+02  0.00000000000E+00 0. -1.
         -3    1    3    3    0  502  0.46970618069E+03 -0.99283839213E+03 -0.10595856439E+04  0.15261303043E+04  0.00000000000E+00 0.  1.
         11    1    5    5    0    0  0.89160502573E+02  0.23165682242E+03 -0.12833443390E+03  0.27943551226E+03  0.00000000000E+00 0.  1.
        -11    1    5    5    0    0 -0.44830210190E+01  0.18410796622E+03 -0.13539794889E+03  0.22857918817E+03  0.00000000000E+00 0. -1.
          1    1    6    6  503    0 -0.18051508058E+02  0.21619000418E+02 -0.35119947787E+02  0.45018316881E+02  0.00000000000E+00 0. -1.
         -1    1    6    6    0  503 -0.57993953240E+03  0.60488186836E+03 -0.20710275181E+04  0.22341367274E+04  0.00000000000E+00 0.  1.
<mgrwt>
<rscale>  0 0.26855278E+04</rscale>
<asrwt>0</asrwt>
<pdfrwt beam="1">  1        2 0.60633252E+00 0.26855278E+04</pdfrwt>
<pdfrwt beam="2">  1       -1 0.70382021E-01 0.26855278E+04</pdfrwt>
<totfact> 0.77812073E-01</totfact>
</mgrwt>
</event>
<event>
12    6  0.1553355E-007  0.2339359E+04  0.7818608E-02  0.8462562E-01
         -1   -1    0    0    0  501 -0.00000000000E+00  0.00000000000E+00  0.15630001421E+04  0.15630001421E+04  0.00000000000E+00 0.  1.
          2   -1    0    0  501    0  0.00000000000E+00 -0.00000000000E+00 -0.87533588038E+03  0.87533588038E+03  0.00000000000E+00 0. -1.
         24    2    1    2    0    0 -0.15216292102E+03  0.88142473583E+03  0.73754085754E+03  0.11620808471E+04  0.80014117980E+02 0.  0.
        254    2    1    2    0    0  0.15216292102E+03 -0.88142473583E+03 -0.49876595809E+02  0.12762551754E+04  0.90899751296E+03 0.  0.
         23    2    4    4    0    0 -0.29490328891E+03 -0.57819590251E+03 -0.23591126658E+03  0.69731353642E+03  0.96506947329E+02 0.  0.
         23    2    4    4    0    0  0.44706620993E+03 -0.30322883332E+03  0.18603467077E+03  0.57894163902E+03  0.93533957765E+02 0.  0.
          4    1    3    3  502    0 -0.55891117336E+02  0.49187111112E+03  0.37140517740E+03  0.61887221036E+03  0.00000000000E+00 0. -1.
         -3    1    3    3    0  502 -0.96271803684E+02  0.38955362471E+03  0.36613568014E+03  0.54320863670E+03  0.00000000000E+00 0.  1.
         11    1    5    5    0    0 -0.13505659996E+03 -0.18166202561E+03 -0.54218135966E+02  0.23276808847E+03  0.00000000000E+00 0.  1.
        -11    1    5    5    0    0 -0.15984668894E+03 -0.39653387690E+03 -0.18169313061E+03  0.46454544794E+03  0.00000000000E+00 0. -1.
          1    1    6    6  503    0  0.71063344175E+00 -0.21571605159E+01 -0.67054030153E+01  0.70796024589E+01  0.00000000000E+00 0. -1.
         -1    1    6    6    0  503  0.44635557648E+03 -0.30107167280E+03  0.19274007378E+03  0.57186203656E+03  0.00000000000E+00 0.  1.
<mgrwt>
<rscale>  0 0.23393590E+04</rscale>
<asrwt>0</asrwt>
<pdfrwt beam="1">  1        2 0.13466706E+00 0.23393590E+04</pdfrwt>
<pdfrwt beam="2">  1       -1 0.24046156E+00 0.23393590E+04</pdfrwt>
<totfact> 0.25292988E+00</totfact>
</mgrwt>
</event>
<event>
12    6  0.1553355E-007  0.2112343E+04  0.7818608E-02  0.8555826E-01
          2   -1    0    0  501    0  0.00000000000E+00  0.00000000000E+00  0.10512153701E+04  0.10512153701E+04  0.00000000000E+00 0. -1.
         -1   -1    0    0    0  501 -0.00000000000E+00 -0.00000000000E+00 -0.10611507844E+04  0.10611507844E+04  0.00000000000E+00 0.  1.
         24    2    1    2    0    0  0.61363851522E+03  0.12744949119E+03 -0.59771909862E+03  0.86971364767E+03  0.79612234747E+02 0.  0.
        254    2    1    2    0    0 -0.61363851522E+03 -0.12744949119E+03  0.58778368424E+03  0.12426525068E+04  0.89771932868E+03 0.  0.
         23    2    4    4    0    0  0.19061971575E+03  0.12967550783E+03  0.12408281077E+03  0.27497148227E+03  0.84030701357E+02 0.  0.
         23    2    4    4    0    0 -0.80425823097E+03 -0.25712499902E+03  0.46370087348E+03  0.96768102455E+03  0.91888508598E+02 0.  0.
          4    1    3    3  502    0  0.21667328413E+03  0.10004455718E+02 -0.22771248013E+03  0.31448429976E+03  0.00000000000E+00 0. -1.
         -3    1    3    3    0  502  0.39696523109E+03  0.11744503547E+03 -0.37000661849E+03  0.55522934791E+03  0.00000000000E+00 0.  1.
         11    1    5    5    0    0  0.38726176038E+02 -0.29521308687E+01  0.42146478345E+02  0.57312803317E+02  0.00000000000E+00 0.  1.
        -11    1    5    5    0    0  0.15189353971E+03  0.13262763870E+03  0.81936332422E+02  0.21765867895E+03  0.00000000000E+00 0. -1.
          1    1    6    6  503    0 -0.56722419032E+03 -0.21538211649E+03  0.36092449624E+03  0.70597395857E+03  0.00000000000E+00 0. -1.
         -1    1    6    6    0  503 -0.23703404065E+03 -0.41742882526E+02  0.10277637723E+03  0.26170706599E+03  0.00000000000E+00 0.  1.
<mgrwt>
<rscale>  0 0.21123428E+04</rscale>
<asrwt>0</asrwt>
<pdfrwt beam="1">  1        2 0.16172544E+00 0.21123428E+04</pdfrwt>
<pdfrwt beam="2">  1       -1 0.16325397E+00 0.21123428E+04</pdfrwt>
<totfact> 0.67758488E+00</totfact>
</mgrwt>
</event>
<event>
12    6  0.1553355E-007  0.1327652E+04  0.7818608E-02  0.9007920E-01
          2   -1    0    0  501    0  0.00000000000E+00  0.00000000000E+00  0.15767196653E+04  0.15767196653E+04  0.00000000000E+00 0. -1.
         -1   -1    0    0    0  501 -0.00000000000E+00 -0.00000000000E+00 -0.27948219292E+03  0.27948219292E+03  0.00000000000E+00 0.  1.
         24    2    1    2    0    0 -0.31729963183E+03 -0.19588994256E+02  0.55940478560E+03  0.64821338950E+03  0.78639043243E+02 0.  0.
        254    2    1    2    0    0  0.31729963183E+03  0.19588994256E+02  0.73783268673E+03  0.12079884687E+04  0.90209549481E+03 0.  0.
         23    2    4    4    0    0  0.56517800089E+03  0.20298599795E+03  0.33959115337E+03  0.69637517924E+03  0.94798474497E+02 0.  0.
         23    2    4    4    0    0 -0.24787836906E+03 -0.18339700369E+03  0.39824153336E+03  0.51161328942E+03  0.89853726769E+02 0.  0.
          2    1    3    3  502    0 -0.22897171430E+03  0.35938623462E+01  0.45590330871E+03  0.51018505338E+03  0.00000000000E+00 0. -1.
         -1    1    3    3    0  502 -0.88327917526E+02 -0.23182856602E+02  0.10350147689E+03  0.13802833612E+03  0.00000000000E+00 0.  1.
         11    1    5    5    0    0  0.20494746667E+03  0.11616586519E+03  0.10585479545E+03  0.25826964601E+03  0.00000000000E+00 0.  1.
        -11    1    5    5    0    0  0.36023053422E+03  0.86820132753E+02  0.23373635792E+03  0.43810553323E+03  0.00000000000E+00 0. -1.
          1    1    6    6  503    0 -0.23757237322E+03 -0.14344881221E+03  0.32338699827E+03  0.42614239979E+03  0.00000000000E+00 0. -1.
         -1    1    6    6    0  503 -0.10305995834E+02 -0.39948191479E+02  0.74854535086E+02  0.85470889637E+02  0.00000000000E+00 0.  1.
<mgrwt>
<rscale>  0 0.13276522E+04</rscale>
<asrwt>0</asrwt>
<pdfrwt beam="1">  1        2 0.24257225E+00 0.13276522E+04</pdfrwt>
<pdfrwt beam="2">  1       -1 0.42997261E-01 0.13276522E+04</pdfrwt>
<totfact> 0.68273315E+01</totfact>
</mgrwt>
</event>
<event>
12    6  0.1553355E-007  0.1043598E+04  0.7818608E-02  0.9261979E-01
         -1   -1    0    0    0  501 -0.00000000000E+00  0.00000000000E+00  0.10939820955E+03  0.10939820955E+03  0.00000000000E+00 0.  1.
          2   -1    0    0  501    0  0.00000000000E+00 -0.00000000000E+00 -0.24888339850E+04  0.24888339850E+04  0.00000000000E+00 0. -1.
         24    2    1    2    0    0 -0.72163569066E+02  0.58055617052E+02 -0.18994405695E+03  0.22596283836E+03  0.80015149679E+02 0.  0.
        254    2    1    2    0    0  0.72163569066E+02 -0.58055617052E+02 -0.21894917185E+04  0.23722693562E+04  0.90841063265E+03 0.  0.
         23    2    4    4    0    0  0.41347475784E+03  0.16249307258E+03 -0.77712809535E+03  0.89984030748E+03  0.91755808472E+02 0.  0.
         23    2    4    4    0    0 -0.34131118877E+03 -0.22054868963E+03 -0.14123636231E+04  0.14724290487E+04  0.90228860973E+02 0.  0.
          4    1    3    3  502    0  0.11418792563E+02  0.10840889917E+01 -0.61044281431E+02  0.62112545979E+02  0.00000000000E+00 0. -1.
         -3    1    3    3    0  502 -0.83582361630E+02  0.56971528061E+02 -0.12889977552E+03  0.16385029238E+03  0.00000000000E+00 0.  1.
         11    1    5    5    0    0  0.30619259260E+03  0.88761745153E+02 -0.48996924201E+03  0.58455317061E+03  0.00000000000E+00 0.  1.
        -11    1    5    5    0    0  0.10728216524E+03  0.73731327428E+02 -0.28715885334E+03  0.31528713687E+03  0.00000000000E+00 0. -1.
          1    1    6    6  503    0 -0.13239324491E+03 -0.67665334578E+02 -0.37875208315E+03  0.40689029147E+03  0.00000000000E+00 0. -1.
         -1    1    6    6    0  503 -0.20891794386E+03 -0.15288335506E+03 -0.10336115400E+04  0.10655387572E+04  0.00000000000E+00 0.  1.
<mgrwt>
<rscale>  0 0.10435976E+04</rscale>
<asrwt>0</asrwt>
<pdfrwt beam="1">  1        2 0.38289754E+00 0.10435976E+04</pdfrwt>
<pdfrwt beam="2">  1       -1 0.16830493E-01 0.10435976E+04</pdfrwt>
<totfact> 0.11036995E+02</totfact>
</mgrwt>
</event>
<event>
12    6  0.1553355E-007  0.3090219E+04  0.7818608E-02  0.8218427E-01
          2   -1    0    0  501    0  0.00000000000E+00  0.00000000000E+00  0.35467131886E+04  0.35467131886E+04  0.00000000000E+00 0. -1.
         -1   -1    0    0    0  501 -0.00000000000E+00 -0.00000000000E+00 -0.67312010289E+03  0.67312010289E+03  0.00000000000E+00 0.  1.
         24    2    1    2    0    0  0.18889536034E+03 -0.11582432503E+04  0.23860175641E+04  0.26601976061E+04  0.79765931222E+02 0.  0.
        254    2    1    2    0    0 -0.18889536034E+03  0.11582432503E+04  0.48757552166E+03  0.15596356854E+04  0.90417072383E+03 0.  0.
         23    2    4    4    0    0 -0.32264631754E+03  0.10502475277E+04  0.76635020689E+02  0.11050753231E+04  0.90542959918E+02 0.  0.
         23    2    4    4    0    0  0.13375095720E+03  0.10799572251E+03  0.41094050097E+03  0.45456036226E+03  0.90557346274E+02 0.  0.
          4    1    3    3  502    0  0.17931850509E+03 -0.10974247898E+04  0.22153461735E+04  0.24787607718E+04  0.00000000000E+00 0. -1.
         -1    1    3    3    0  502  0.95768552548E+01 -0.60818460490E+02  0.17067139057E+03  0.18143683433E+03  0.00000000000E+00 0.  1.
         11    1    5    5    0    0 -0.28449489694E+03  0.98216945781E+03  0.54668944329E+02  0.10240033612E+04  0.00000000000E+00 0. -1.
        -11    1    5    5    0    0 -0.38151420601E+02  0.68078069939E+02  0.21966076360E+02  0.81071961930E+02  0.00000000000E+00 0.  1.
          3    1    6    6  503    0  0.88674097348E+02  0.36595013097E+02  0.30111725408E+03  0.31602830764E+03  0.00000000000E+00 0. -1.
         -3    1    6    6    0  503  0.45076859852E+02  0.71400709415E+02  0.10982324689E+03  0.13853205462E+03  0.00000000000E+00 0.  1.
<mgrwt>
<rscale>  0 0.30902194E+04</rscale>
<asrwt>0</asrwt>
<pdfrwt beam="1">  1        2 0.54564817E+00 0.30902194E+04</pdfrwt>
<pdfrwt beam="2">  1       -1 0.10355694E+00 0.30902194E+04</pdfrwt>
<totfact> 0.63881497E-01</totfact>
</mgrwt>
</event>
<event>
12    6  0.1553355E-007  0.2712548E+04  0.7818608E-02  0.8330945E-01
         -1   -1    0    0    0  501 -0.00000000000E+00  0.00000000000E+00  0.15496567266E+04  0.15496567266E+04  0.00000000000E+00 0.  1.
          2   -1    0    0  501    0  0.00000000000E+00 -0.00000000000E+00 -0.11870233835E+04  0.11870233835E+04  0.00000000000E+00 0. -1.
         24    2    1    2    0    0  0.23676872536E+03  0.62609032426E+03 -0.83954524039E+03  0.10767273448E+04  0.80355715215E+02 0.  0.
        254    2    1    2    0    0 -0.23676872536E+03 -0.62609032426E+03  0.12021785835E+04  0.16599527653E+04  0.92852642010E+03 0.  0.
         23    2    4    4    0    0 -0.15568470317E+03 -0.50973389447E+03  0.10574798259E+03  0.55101135408E+03  0.91457676183E+02 0.  0.
         23    2    4    4    0    0 -0.81084022193E+02 -0.11635642980E+03  0.10964306010E+04  0.11089414112E+04  0.86472847713E+02 0.  0.
          2    1    3    3  502    0  0.20938422444E+03  0.60090172194E+03 -0.80311116274E+03  0.10246522203E+04  0.00000000000E+00 0. -1.
         -1    1    3    3    0  502  0.27384500923E+02  0.25188602322E+02 -0.36434077650E+02  0.52075124503E+02  0.00000000000E+00 0.  1.
         11    1    5    5    0    0 -0.69344414199E+02 -0.11301819854E+03  0.47522417460E+02  0.14085503592E+03  0.00000000000E+00 0. -1.
        -11    1    5    5    0    0 -0.86340288967E+02 -0.39671569592E+03  0.58225565133E+02  0.41015631816E+03  0.00000000000E+00 0.  1.
          3    1    6    6  503    0  0.16408007198E+02 -0.41354030960E+01  0.14177040962E+03  0.14277665532E+03  0.00000000000E+00 0. -1.
         -3    1    6    6    0  503 -0.97492029391E+02 -0.11222102670E+03  0.95466019133E+03  0.96616475590E+03  0.00000000000E+00 0.  1.
<mgrwt>
<rscale>  0 0.27125477E+04</rscale>
<asrwt>0</asrwt>
<pdfrwt beam="1">  1        2 0.18261898E+00 0.27125477E+04</pdfrwt>
<pdfrwt beam="2">  1       -1 0.23840873E+00 0.27125477E+04</pdfrwt>
<totfact> 0.15993382E+00</totfact>
</mgrwt>
</event>
<event>
12    6  0.1553355E-007  0.1873240E+04  0.7818608E-02  0.8668292E-01
          2   -1    0    0  501    0  0.00000000000E+00  0.00000000000E+00  0.33500405960E+04  0.33500405960E+04  0.00000000000E+00 0. -1.
         -1   -1    0    0    0  501 -0.00000000000E+00 -0.00000000000E+00 -0.26186462678E+03  0.26186462678E+03  0.00000000000E+00 0.  1.
         24    2    1    2    0    0 -0.10843854969E+03 -0.63723258529E+02 -0.17063436736E+03  0.22665091189E+03  0.80218300905E+02 0.  0.
        254    2    1    2    0    0  0.10843854969E+03  0.63723258529E+02  0.32588103365E+04  0.33852543109E+04  0.90789997625E+03 0.  0.
         23    2    4    4    0    0 -0.21964069251E+03 -0.15312379377E+03  0.25784510386E+04  0.25940568314E+04  0.95037655955E+02 0.  0.
         23    2    4    4    0    0  0.32807924220E+03  0.21684705230E+03  0.68035929793E+03  0.79119747944E+03  0.91902360908E+02 0.  0.
          4    1    3    3  502    0 -0.10048439037E+02 -0.32536027374E+02 -0.88239496956E+02  0.94582096760E+02  0.00000000000E+00 0. -1.
         -3    1    3    3    0  502 -0.98390110652E+02 -0.31187231155E+02 -0.82394870407E+02  0.13206881513E+03  0.00000000000E+00 0.  1.
         11    1    5    5    0    0 -0.22125800887E+03 -0.12265258276E+03  0.23497999732E+04  0.23633786571E+04  0.00000000000E+00 0.  1.
        -11    1    5    5    0    0  0.16173163621E+01 -0.30471211016E+02  0.22865106538E+03  0.23067817433E+03  0.00000000000E+00 0. -1.
          1    1    6    6  503    0  0.14555441079E+03  0.75012906506E+02  0.20295042753E+03  0.26077173673E+03  0.00000000000E+00 0. -1.
         -1    1    6    6    0  503  0.18252483141E+03  0.14183414580E+03  0.47740887040E+03  0.53042574271E+03  0.00000000000E+00 0.  1.
<mgrwt>
<rscale>  0 0.18732401E+04</rscale>
<asrwt>0</asrwt>
<pdfrwt beam="1">  1        2 0.51539083E+00 0.18732401E+04</pdfrwt>
<pdfrwt beam="2">  1       -1 0.40286868E-01 0.18732401E+04</pdfrwt>
<totfact> 0.66602010E+00</totfact>
</mgrwt>
</event>
<event>
12    6  0.1553355E-007  0.2524675E+04  0.7818608E-02  0.8394247E-01
         -1   -1    0    0    0  501 -0.00000000000E+00  0.00000000000E+00  0.70634064233E+03  0.70634064233E+03  0.00000000000E+00 0.  1.
          2   -1    0    0  501    0  0.00000000000E+00 -0.00000000000E+00 -0.22559875754E+04  0.22559875754E+04  0.00000000000E+00 0. -1.
         24    2    1    2    0    0 -0.40902144180E+03  0.68017751565E+03  0.21672818129E+03  0.82651422851E+03  0.78833195592E+02 0.  0.
        254    2    1    2    0    0  0.40902144180E+03 -0.68017751565E+03 -0.17663751144E+04  0.21358139893E+04  0.90093304929E+03 0.  0.
         23    2    4    4    0    0  0.64342273815E+03 -0.26987918237E+03 -0.12111698842E+04  0.14009018999E+04  0.93627195150E+02 0.  0.
         23    2    4    4    0    0 -0.23440129636E+03 -0.41029833328E+03 -0.55520523017E+03  0.73491208935E+03  0.92489142234E+02 0.  0.
          4    1    3    3  502    0 -0.69816690921E+02  0.94054075458E+02  0.60156639747E+01  0.11728907730E+03  0.00000000000E+00 0. -1.
         -3    1    3    3    0  502 -0.33920475087E+03  0.58612344019E+03  0.21071251731E+03  0.70922515121E+03  0.00000000000E+00 0.  1.
         11    1    5    5    0    0  0.26505317512E+03 -0.10203583660E+03 -0.40478391890E+03  0.49448409337E+03  0.00000000000E+00 0. -1.
        -11    1    5    5    0    0  0.37836956303E+03 -0.16784334578E+03 -0.80638596532E+03  0.90641780654E+03  0.00000000000E+00 0.  1.
          2    1    6    6  503    0 -0.16709940243E+03 -0.25541835393E+03 -0.41658324403E+03  0.51643232376E+03  0.00000000000E+00 0. -1.
         -2    1    6    6    0  503 -0.67301893933E+02 -0.15487997934E+03 -0.13862198614E+03  0.21847976559E+03  0.00000000000E+00 0.  1.
<mgrwt>
<rscale>  0 0.25246748E+04</rscale>
<asrwt>0</asrwt>
<pdfrwt beam="1">  1        2 0.34707501E+00 0.25246748E+04</pdfrwt>
<pdfrwt beam="2">  1       -1 0.10866779E+00 0.25246748E+04</pdfrwt>
<totfact> 0.38179102E+00</totfact>
</mgrwt>
</event>
<event>
12    6  0.1553355E-007  0.1287027E+04  0.7818608E-02  0.9039916E-01
          4   -1    0    0  501    0  0.00000000000E+00  0.00000000000E+00  0.16452560547E+04  0.16452560547E+04  0.00000000000E+00 0. -1.
         -3   -1    0    0    0  501 -0.00000000000E+00 -0.00000000000E+00 -0.25169924509E+03  0.25169924509E+03  0.00000000000E+00 0.  1.
         24    2    1    2    0    0  0.18150176127E+03  0.81799252605E+02 -0.10650251044E+02  0.21430374959E+03  0.78604466624E+02 0.  0.
        254    2    1    2    0    0 -0.18150176127E+03 -0.81799252605E+02  0.14042070606E+04  0.16826515502E+04  0.90547488264E+03 0.  0.
         23    2    4    4    0    0  0.31891446264E+03  0.15190529999E+03  0.61558412845E+03  0.71556414716E+03  0.91140412820E+02 0.  0.
         23    2    4    4    0    0 -0.50041622391E+03 -0.23370455259E+03  0.78862293220E+03  0.96708740303E+03  0.91091716682E+02 0.  0.
          2    1    3    3  502    0  0.39278118476E+01  0.11868421566E+02 -0.19598696175E+02  0.23246419684E+02  0.00000000000E+00 0. -1.
         -1    1    3    3    0  502  0.17757394942E+03  0.69930831039E+02  0.89484451306E+01  0.19105732991E+03  0.00000000000E+00 0.  1.
         11    1    5    5    0    0  0.30978471985E+03  0.12522897875E+03  0.54148588215E+03  0.63628282260E+03  0.00000000000E+00 0.  1.
        -11    1    5    5    0    0  0.91297427935E+01  0.26676321242E+02  0.74098246299E+02  0.79281324555E+02  0.00000000000E+00 0. -1.
          3    1    6    6  503    0 -0.15295511997E+03 -0.11378246827E+03  0.23588159239E+03  0.30328508773E+03  0.00000000000E+00 0. -1.
         -3    1    6    6    0  503 -0.34746110394E+03 -0.11992208432E+03  0.55274133981E+03  0.66380231529E+03  0.00000000000E+00 0.  1.
<mgrwt>
<rscale>  0 0.12870271E+04</rscale>
<asrwt>0</asrwt>
<pdfrwt beam="1">  1        4 0.25311631E+00 0.12870271E+04</pdfrwt>
<pdfrwt beam="2">  1       -3 0.38722962E-01 0.12870271E+04</pdfrwt>
<totfact> 0.90143014E-01</totfact>
</mgrwt>
</event>
<event>
12    6  0.1553355E-007  0.1409337E+04  0.7818608E-02  0.8947087E-01
         -1   -1    0    0    0  501 -0.00000000000E+00  0.00000000000E+00  0.13155454272E+03  0.13155454272E+03  0.00000000000E+00 0.  1.
          2   -1    0    0  501    0  0.00000000000E+00 -0.00000000000E+00 -0.37745405479E+04  0.37745405479E+04  0.00000000000E+00 0. -1.
         24    2    1    2    0    0 -0.12442824165E+03  0.28744377681E+03 -0.36126902617E+03  0.48508121495E+03  0.81744502475E+02 0.  0.
        254    2    1    2    0    0  0.12442824165E+03 -0.28744377681E+03 -0.32817169790E+04  0.34210138757E+04  0.91409151351E+03 0.  0.
         23    2    4    4    0    0  0.28561719631E+03  0.21923687382E+03 -0.19318516360E+04  0.19671754311E+04  0.89924656747E+02 0.  0.
         23    2    4    4    0    0 -0.16118895465E+03 -0.50668065063E+03 -0.13498653431E+04  0.14538384445E+04  0.93822265902E+02 0.  0.
          4    1    3    3  502    0 -0.34389566518E+02  0.13677918651E+03 -0.21224450459E+03  0.25483115562E+03  0.00000000000E+00 0. -1.
         -3    1    3    3    0  502 -0.90038675136E+02  0.15066459030E+03 -0.14902452158E+03  0.23025005933E+03  0.00000000000E+00 0.  1.
         11    1    5    5    0    0  0.15989463070E+03  0.68300334341E+02 -0.84255895299E+03  0.86031204680E+03  0.00000000000E+00 0. -1.
        -11    1    5    5    0    0  0.12572256560E+03  0.15093653948E+03 -0.10892926830E+04  0.11068633843E+04  0.00000000000E+00 0.  1.
          3    1    6    6  503    0 -0.22319691245E+02 -0.20785481328E+03 -0.57478622735E+03  0.61162161438E+03  0.00000000000E+00 0. -1.
         -3    1    6    6    0  503 -0.13886926341E+03 -0.29882583736E+03 -0.77507911571E+03  0.84221683016E+03  0.00000000000E+00 0.  1.
<mgrwt>
<rscale>  0 0.14093374E+04</rscale>
<asrwt>0</asrwt>
<pdfrwt beam="1">  1        2 0.58069852E+00 0.14093374E+04</pdfrwt>
<pdfrwt beam="2">  1       -1 0.20239161E-01 0.14093374E+04</pdfrwt>
<totfact> 0.11662784E+01</totfact>
</mgrwt>
</event>
<event>
12    6  0.1553355E-007  0.1398840E+04  0.7818608E-02  0.8954659E-01
         -1   -1    0    0    0  501 -0.00000000000E+00  0.00000000000E+00  0.26336738302E+03  0.26336738302E+03  0.00000000000E+00 0.  1.
          2   -1    0    0  501    0  0.00000000000E+00 -0.00000000000E+00 -0.18574365706E+04  0.18574365706E+04  0.00000000000E+00 0. -1.
         24    2    1    2    0    0 -0.88687564009E+02  0.39460076279E+01 -0.10583739792E+04  0.10650579642E+04  0.79447670234E+02 0.  0.
        254    2    1    2    0    0  0.88687564009E+02 -0.39460076279E+01 -0.53569520838E+03  0.10557459894E+04  0.90540001263E+03 0.  0.
         23    2    4    4    0    0 -0.29554940239E+03 -0.11800194710E+03 -0.55296824355E+03  0.64440425182E+03  0.90603822288E+02 0.  0.
         23    2    4    4    0    0  0.38423696640E+03  0.11405593948E+03  0.17273035176E+02  0.41134173758E+03  0.90867285911E+02 0.  0.
          2    1    3    3  502    0 -0.10189572287E+03 -0.59366716126E+01 -0.94366577577E+03  0.94916967860E+03  0.00000000000E+00 0. -1.
         -1    1    3    3    0  502  0.13208158861E+02  0.98826792404E+01 -0.11470820345E+03  0.11588828564E+03  0.00000000000E+00 0.  1.
         11    1    5    5    0    0 -0.89531087465E+01  0.17563368152E+01  0.11208204818E+01  0.91923399517E+01  0.00000000000E+00 0. -1.
        -11    1    5    5    0    0 -0.28659629365E+03 -0.11975828392E+03 -0.55408906403E+03  0.63521191187E+03  0.00000000000E+00 0.  1.
          2    1    6    6  503    0  0.26532439390E+03  0.11364331287E+03  0.36315205152E+02  0.29091344191E+03  0.00000000000E+00 0.  1.
         -2    1    6    6    0  503  0.11891257250E+03  0.41262660488E+00 -0.19042169976E+02  0.12042829567E+03  0.00000000000E+00 0. -1.
<mgrwt>
<rscale>  0 0.13988398E+04</rscale>
<asrwt>0</asrwt>
<pdfrwt beam="1">  1        2 0.28575948E+00 0.13988398E+04</pdfrwt>
<pdfrwt beam="2">  1       -1 0.40518058E-01 0.13988398E+04</pdfrwt>
<totfact> 0.52900253E+01</totfact>
</mgrwt>
</event>
<event>
12    6  0.1553355E-007  0.3520144E+04  0.7818608E-02  0.8109033E-01
         -1   -1    0    0    0  501 -0.00000000000E+00  0.00000000000E+00  0.10753734959E+04  0.10753734959E+04  0.00000000000E+00 0.  1.
          2   -1    0    0  501    0  0.00000000000E+00 -0.00000000000E+00 -0.28807232936E+04  0.28807232936E+04  0.00000000000E+00 0. -1.
         24    2    1    2    0    0 -0.91957117681E+03  0.50511631956E+03  0.57836632306E+03  0.12007517085E+04  0.80891385492E+02 0.  0.
        254    2    1    2    0    0  0.91957117681E+03 -0.50511631956E+03 -0.23837161207E+04  0.27553450810E+04  0.89948336598E+03 0.  0.
         23    2    4    4    0    0  0.54385483726E+03 -0.66102897380E+03 -0.20408254169E+04  0.22149633095E+04  0.91414943492E+02 0.  0.
         23    2    4    4    0    0  0.37571633955E+03  0.15591265424E+03 -0.34289070386E+03  0.54038177154E+03  0.94693720322E+02 0.  0.
          4    1    3    3  502    0 -0.13902733467E+03  0.99844621612E+02  0.11954297697E+03  0.20877756487E+03  0.00000000000E+00 0. -1.
         -3    1    3    3    0  502 -0.78054384214E+03  0.40527169795E+03  0.45882334609E+03  0.99197414360E+03  0.00000000000E+00 0.  1.
         11    1    5    5    0    0  0.42982779375E+03 -0.46426567196E+03 -0.14592117593E+04  0.15904695863E+04  0.00000000000E+00 0.  1.
        -11    1    5    5    0    0  0.11402704351E+03 -0.19676330184E+03 -0.58161365761E+03  0.62449372320E+03  0.00000000000E+00 0. -1.
          1    1    6    6  503    0  0.26474134240E+02 -0.99555518946E+01 -0.94291556034E+01  0.29814455767E+02  0.00000000000E+00 0. -1.
         -1    1    6    6    0  503  0.34924220531E+03  0.16586820613E+03 -0.33346154825E+03  0.51056731577E+03  0.00000000000E+00 0.  1.
<mgrwt>
<rscale>  0 0.35201440E+04</rscale>
<asrwt>0</asrwt>
<pdfrwt beam="1">  1        2 0.44318819E+00 0.35201440E+04</pdfrwt>
<pdfrwt beam="2">  1       -1 0.16544208E+00 0.35201440E+04</pdfrwt>
<totfact> 0.51136445E-01</totfact>
</mgrwt>
</event>
<event>
12    6  0.1553355E-007  0.2553114E+04  0.7818608E-02  0.8384304E-01
         -1   -1    0    0    0  501 -0.00000000000E+00  0.00000000000E+00  0.57647479995E+03  0.57647479995E+03  0.00000000000E+00 0.  1.
          2   -1    0    0  501    0  0.00000000000E+00 -0.00000000000E+00 -0.28268324843E+04  0.28268324843E+04  0.00000000000E+00 0. -1.
         24    2    1    2    0    0 -0.69789968407E+03  0.80063482147E+03 -0.53447069013E+03  0.11917621577E+04  0.80981698665E+02 0.  0.
        254    2    1    2    0    0  0.69789968407E+03 -0.80063482147E+03 -0.17158869942E+04  0.22115451265E+04  0.90475609062E+03 0.  0.
         23    2    4    4    0    0  0.63193548253E+03 -0.40839575102E+03 -0.16257882611E+04  0.17937816392E+04  0.91299264096E+02 0.  0.
         23    2    4    4    0    0  0.65964201543E+02 -0.39223907045E+03 -0.90098733053E+02  0.41776348732E+03  0.90585790092E+02 0.  0.
          4    1    3    3  502    0 -0.27819515202E+02  0.58432166902E+02 -0.41818747969E+02  0.77052263021E+02  0.00000000000E+00 0. -1.
         -3    1    3    3    0  502 -0.67008016887E+03  0.74220265457E+03 -0.49265194216E+03  0.11147098947E+04  0.00000000000E+00 0.  1.
         11    1    5    5    0    0  0.52248879868E+03 -0.35534365172E+03 -0.12852986547E+04  0.14322207537E+04  0.00000000000E+00 0. -1.
        -11    1    5    5    0    0  0.10944668385E+03 -0.53052099305E+02 -0.34048960642E+03  0.36156088550E+03  0.00000000000E+00 0.  1.
          4    1    6    6  503    0  0.58789443502E+01 -0.28143870267E+03 -0.70626543134E+02  0.29022476453E+03  0.00000000000E+00 0. -1.
         -4    1    6    6    0  503  0.60085257193E+02 -0.11080036777E+03 -0.19472189918E+02  0.12753872279E+03  0.00000000000E+00 0.  1.
<mgrwt>
<rscale>  0 0.25531139E+04</rscale>
<asrwt>0</asrwt>
<pdfrwt beam="1">  1        2 0.43489730E+00 0.25531139E+04</pdfrwt>
<pdfrwt beam="2">  1       -1 0.88688432E-01 0.25531139E+04</pdfrwt>
<totfact> 0.28057912E+00</totfact>
</mgrwt>
</event>
<event>
12    6  0.1553355E-007  0.2254085E+04  0.7818608E-02  0.8496248E-01
         -1   -1    0    0    0  501 -0.00000000000E+00  0.00000000000E+00  0.11869216648E+04  0.11869216648E+04  0.00000000000E+00 0.  1.
          2   -1    0    0  501    0  0.00000000000E+00 -0.00000000000E+00 -0.10701843045E+04  0.10701843045E+04  0.00000000000E+00 0. -1.
         24    2    1    2    0    0 -0.73230889756E+03 -0.39674266331E+03  0.43152723265E+03  0.94108880839E+03  0.75837526489E+02 0.  0.
        254    2    1    2    0    0  0.73230889756E+03  0.39674266331E+03 -0.31478987228E+03  0.13160171609E+04  0.96908587948E+03 0.  0.
         23    2    4    4    0    0  0.41965435170E+03 -0.69953916085E+02  0.25981288016E+03  0.50691726126E+03  0.91973103573E+02 0.  0.
         23    2    4    4    0    0  0.31265454585E+03  0.46669657939E+03 -0.57460275244E+03  0.80909989966E+03  0.94423314200E+02 0.  0.
          4    1    3    3  502    0 -0.34382601773E+03 -0.22451002241E+03  0.19235117419E+03  0.45345347594E+03  0.00000000000E+00 0. -1.
         -3    1    3    3    0  502 -0.38848287983E+03 -0.17223264090E+03  0.23917605846E+03  0.48763533245E+03  0.00000000000E+00 0.  1.
         11    1    5    5    0    0  0.36789326958E+03 -0.59668979035E+02  0.18697751120E+03  0.41697294223E+03  0.00000000000E+00 0.  1.
        -11    1    5    5    0    0  0.51761082129E+02 -0.10284937050E+02  0.72835368958E+02  0.89944319024E+02  0.00000000000E+00 0. -1.
          1    1    6    6  503    0  0.15600920740E+03  0.18225188457E+03 -0.29776094694E+03  0.38238227436E+03  0.00000000000E+00 0. -1.
         -1    1    6    6    0  503  0.15664533846E+03  0.28444469482E+03 -0.27684180550E+03  0.42671762530E+03  0.00000000000E+00 0.  1.
<mgrwt>
<rscale>  0 0.22540851E+04</rscale>
<asrwt>0</asrwt>
<pdfrwt beam="1">  1        2 0.16464374E+00 0.22540851E+04</pdfrwt>
<pdfrwt beam="2">  1       -1 0.18260333E+00 0.22540851E+04</pdfrwt>
<totfact> 0.47031269E+00</totfact>
</mgrwt>
</event>
<event>
12    6  0.1553355E-007  0.1513902E+04  0.7818608E-02  0.8875261E-01
         -1   -1    0    0    0  501 -0.00000000000E+00  0.00000000000E+00  0.25468151690E+03  0.25468151690E+03  0.00000000000E+00 0.  1.
          2   -1    0    0  501    0  0.00000000000E+00 -0.00000000000E+00 -0.22497696128E+04  0.22497696128E+04  0.00000000000E+00 0. -1.
         24    2    1    2    0    0 -0.24940959698E+03  0.34711720058E+03 -0.10362257305E+04  0.11238139647E+04  0.80613675978E+02 0.  0.
        254    2    1    2    0    0  0.24940959698E+03 -0.34711720058E+03 -0.95886236543E+03  0.13806371650E+04  0.89668637080E+03 0.  0.
         23    2    4    4    0    0  0.28750026644E+03 -0.19238240151E+03 -0.10952186771E+04  0.11522821765E+04  0.92643790490E+02 0.  0.
         23    2    4    4    0    0 -0.38090669459E+02 -0.15473479906E+03  0.13635631166E+03  0.22835498856E+03  0.90328289753E+02 0.  0.
          4    1    3    3  502    0 -0.23573132487E+03  0.28056271037E+03 -0.85229309133E+03  0.92773283089E+03  0.00000000000E+00 0. -1.
         -3    1    3    3    0  502 -0.13678272105E+02  0.66554490201E+02 -0.18393263917E+03  0.19608113383E+03  0.00000000000E+00 0.  1.
         11    1    5    5    0    0  0.13501919074E+03 -0.14532979948E+03 -0.58905076615E+03  0.62155590061E+03  0.00000000000E+00 0.  1.
        -11    1    5    5    0    0  0.15248107570E+03 -0.47052602033E+02 -0.50616791094E+03  0.53072627585E+03  0.00000000000E+00 0. -1.
          3    1    6    6  503    0 -0.26366617285E+02 -0.38130385584E+02  0.92054221323E+02  0.10306844558E+03  0.00000000000E+00 0. -1.
         -3    1    6    6    0  503 -0.11724052174E+02 -0.11660441348E+03  0.44302090336E+02  0.12528654298E+03  0.00000000000E+00 0.  1.
<mgrwt>
<rscale>  0 0.15139019E+04</rscale>
<asrwt>0</asrwt>
<pdfrwt beam="1">  1        2 0.34611842E+00 0.15139019E+04</pdfrwt>
<pdfrwt beam="2">  1       -1 0.39181770E-01 0.15139019E+04</pdfrwt>
<totfact> 0.33702735E+01</totfact>
</mgrwt>
</event>
<event>
12    6  0.1553355E-007  0.1020636E+04  0.7818608E-02  0.9286197E-01
         -1   -1    0    0    0  501 -0.00000000000E+00  0.00000000000E+00  0.12412874788E+03  0.12412874788E+03  0.00000000000E+00 0.  1.
          2   -1    0    0  501    0  0.00000000000E+00 -0.00000000000E+00 -0.20980196600E+04  0.20980196600E+04  0.00000000000E+00 0. -1.
         24    2    1    2    0    0  0.62605149184E+00  0.57939517352E+02 -0.11156480520E+03  0.15363463369E+03  0.88314864543E+02 0.  0.
        254    2    1    2    0    0 -0.62605149184E+00 -0.57939517352E+02 -0.18623261069E+04  0.20685137742E+04  0.89840599167E+03 0.  0.
         23    2    4    4    0    0 -0.31174092998E+03 -0.18647206327E+03 -0.33732978665E+03  0.50424155515E+03  0.92270922713E+02 0.  0.
         23    2    4    4    0    0  0.31111487849E+03  0.12853254592E+03 -0.15249963203E+04  0.15642722190E+04  0.89558446907E+02 0.  0.
          2    1    3    3  502    0 -0.28546127486E+02  0.11908044139E+02 -0.89756095689E+02  0.94935976442E+02  0.00000000000E+00 0. -1.
         -1    1    3    3    0  502  0.29172178978E+02  0.46031473213E+02 -0.21808709511E+02  0.58698657251E+02  0.00000000000E+00 0.  1.
         11    1    5    5    0    0 -0.11996680219E+03 -0.12358241146E+03 -0.17109516943E+03  0.24277191570E+03  0.00000000000E+00 0.  1.
        -11    1    5    5    0    0 -0.19177412779E+03 -0.62889651811E+02 -0.16623461722E+03  0.26146963945E+03  0.00000000000E+00 0. -1.
          1    1    6    6  503    0  0.23246820699E+03  0.13151298159E+03 -0.10926232810E+04  0.11247945438E+04  0.00000000000E+00 0.  1.
         -1    1    6    6    0  503  0.78646671499E+02 -0.29804356665E+01 -0.43237303926E+03  0.43947767521E+03  0.00000000000E+00 0. -1.
<mgrwt>
<rscale>  0 0.10206362E+04</rscale>
<asrwt>0</asrwt>
<pdfrwt beam="1">  1        2 0.32277226E+00 0.10206362E+04</pdfrwt>
<pdfrwt beam="2">  1       -1 0.19096730E-01 0.10206362E+04</pdfrwt>
<totfact> 0.14857816E+02</totfact>
</mgrwt>
</event>
<event>
12    6  0.1553355E-007  0.1786559E+04  0.7818608E-02  0.8713480E-01
         -1   -1    0    0    0  501 -0.00000000000E+00  0.00000000000E+00  0.48059272753E+03  0.48059272753E+03  0.00000000000E+00 0.  1.
          2   -1    0    0  501    0  0.00000000000E+00 -0.00000000000E+00 -0.16603425934E+04  0.16603425934E+04  0.00000000000E+00 0. -1.
         24    2    1    2    0    0  0.35773143192E+03  0.42330999646E+03 -0.88403732013E+03  0.10465796038E+04  0.81509221186E+02 0.  0.
        254    2    1    2    0    0 -0.35773143192E+03 -0.42330999646E+03 -0.29571254572E+03  0.10943557171E+04  0.89610568319E+03 0.  0.
         23    2    4    4    0    0  0.22307165077E+03 -0.44085612974E+02  0.12954034303E+03  0.27558861996E+03  0.86393774826E+02 0.  0.
         23    2    4    4    0    0 -0.58080308270E+03 -0.37922438349E+03 -0.42525288874E+03  0.81876709718E+03  0.91630705261E+02 0.  0.
          2    1    3    3  502    0  0.22035510481E+03  0.19777133227E+03 -0.47047080236E+03  0.55588906083E+03  0.00000000000E+00 0. -1.
         -1    1    3    3    0  502  0.13737632711E+03  0.22553866420E+03 -0.41356651777E+03  0.49069054293E+03  0.00000000000E+00 0.  1.
         11    1    5    5    0    0  0.87868937066E+02  0.50714127943E-02  0.74942436794E+01  0.88187945974E+02  0.00000000000E+00 0. -1.
        -11    1    5    5    0    0  0.13520271371E+03 -0.44090684387E+02  0.12204609935E+03  0.18740067398E+03  0.00000000000E+00 0.  1.
          1    1    6    6  503    0 -0.65054622235E+02 -0.27635372438E+02 -0.74859244490E+02  0.10295496185E+03  0.00000000000E+00 0. -1.
         -1    1    6    6    0  503 -0.51574846046E+03 -0.35158901105E+03 -0.35039364425E+03  0.71581213533E+03  0.00000000000E+00 0.  1.
<mgrwt>
<rscale>  0 0.17865593E+04</rscale>
<asrwt>0</asrwt>
<pdfrwt beam="1">  1        2 0.25543732E+00 0.17865593E+04</pdfrwt>
<pdfrwt beam="2">  1       -1 0.73937344E-01 0.17865593E+04</pdfrwt>
<totfact> 0.20463137E+01</totfact>
</mgrwt>
</event>
<event>
12    6  0.1553355E-007  0.1435632E+04  0.7818608E-02  0.8928423E-01
         -1   -1    0    0    0  501 -0.00000000000E+00  0.00000000000E+00  0.33004915607E+03  0.33004915607E+03  0.00000000000E+00 0.  1.
          2   -1    0    0  501    0  0.00000000000E+00 -0.00000000000E+00 -0.15611597576E+04  0.15611597576E+04  0.00000000000E+00 0. -1.
         24    2    1    2    0    0 -0.69436292190E+02  0.41881746775E+03 -0.46135592479E+03  0.63198660307E+03  0.79550657795E+02 0.  0.
        254    2    1    2    0    0  0.69436292190E+02 -0.41881746775E+03 -0.76975467673E+03  0.12592223106E+04  0.90160362421E+03 0.  0.
         23    2    4    4    0    0 -0.36610847436E+02 -0.67429366758E+03 -0.65829500832E+03  0.94732654401E+03  0.89793979335E+02 0.  0.
         23    2    4    4    0    0  0.10604713963E+03  0.25547619983E+03 -0.11145966841E+03  0.31189576658E+03  0.91332508043E+02 0.  0.
          4    1    3    3  502    0 -0.37299459940E+02  0.34676660946E+03 -0.33880752586E+03  0.48623951992E+03  0.00000000000E+00 0. -1.
         -3    1    3    3    0  502 -0.32136832250E+02  0.72050858288E+02 -0.12254839894E+03  0.14574708316E+03  0.00000000000E+00 0.  1.
         11    1    5    5    0    0 -0.19368067106E+02 -0.11539262947E+03 -0.16092044646E+03  0.19896223523E+03  0.00000000000E+00 0. -1.
        -11    1    5    5    0    0 -0.17242780331E+02 -0.55890103811E+03 -0.49737456186E+03  0.74836430879E+03  0.00000000000E+00 0.  1.
          1    1    6    6  503    0  0.99014752887E+02  0.13553700265E+03 -0.41651320814E+02  0.17294228199E+03  0.00000000000E+00 0. -1.
         -1    1    6    6    0  503  0.70323867403E+01  0.11993919718E+03 -0.69808347600E+02  0.13895348459E+03  0.00000000000E+00 0.  1.
<mgrwt>
<rscale>  0 0.14356315E+04</rscale>
<asrwt>0</asrwt>
<pdfrwt beam="1">  1        2 0.24017842E+00 0.14356315E+04</pdfrwt>
<pdfrwt beam="2">  1       -1 0.50776794E-01 0.14356315E+04</pdfrwt>
<totfact> 0.50544566E+01</totfact>
</mgrwt>
</event>
<event>
12    6  0.1553355E-007  0.2289313E+04  0.7818608E-02  0.8482147E-01
          2   -1    0    0  501    0  0.00000000000E+00  0.00000000000E+00  0.99595882472E+03  0.99595882472E+03  0.00000000000E+00 0. -1.
         -1   -1    0    0    0  501 -0.00000000000E+00 -0.00000000000E+00 -0.13155553613E+04  0.13155553613E+04  0.00000000000E+00 0.  1.
         24    2    1    2    0    0 -0.52325581371E+03  0.30025017132E+03 -0.89858122546E+03  0.10850195460E+04  0.76631485554E+02 0.  0.
        254    2    1    2    0    0  0.52325581371E+03 -0.30025017132E+03  0.57898468889E+03  0.12264946400E+04  0.89728424701E+03 0.  0.
         23    2    4    4    0    0  0.70720448504E+03 -0.31976940061E+03  0.21935397660E+03  0.81179056226E+03  0.92179697849E+02 0.  0.
         23    2    4    4    0    0 -0.18394867133E+03  0.19519229290E+02  0.35963071229E+03  0.41470407770E+03  0.91799285653E+02 0.  0.
          4    1    3    3  502    0 -0.19533407810E+03  0.11511498615E+03 -0.27337452809E+03  0.35516263135E+03  0.00000000000E+00 0. -1.
         -3    1    3    3    0  502 -0.32792173561E+03  0.18513518517E+03 -0.62520669737E+03  0.72985691469E+03  0.00000000000E+00 0.  1.
         11    1    5    5    0    0  0.23906460269E+03 -0.14509922242E+03  0.49193214526E+02  0.28394654596E+03  0.00000000000E+00 0.  1.
        -11    1    5    5    0    0  0.46813988235E+03 -0.17467017819E+03  0.17016076208E+03  0.52784401630E+03  0.00000000000E+00 0. -1.
          1    1    6    6  503    0 -0.15479852965E+03  0.45880846874E+02  0.32239580164E+03  0.36056440452E+03  0.00000000000E+00 0. -1.
         -1    1    6    6    0  503 -0.29150141674E+02 -0.26361617584E+02  0.37234910656E+02  0.54139673187E+02  0.00000000000E+00 0.  1.
<mgrwt>
<rscale>  0 0.22893134E+04</rscale>
<asrwt>0</asrwt>
<pdfrwt beam="1">  1        2 0.15322444E+00 0.22893134E+04</pdfrwt>
<pdfrwt beam="2">  1       -1 0.20239313E+00 0.22893134E+04</pdfrwt>
<totfact> 0.37992081E+00</totfact>
</mgrwt>
</event>
<event>
12    6  0.1553355E-007  0.1651499E+04  0.7818608E-02  0.8789520E-01
         -1   -1    0    0    0  501 -0.00000000000E+00  0.00000000000E+00  0.14568592393E+04  0.14568592393E+04  0.00000000000E+00 0.  1.
          2   -1    0    0  501    0  0.00000000000E+00 -0.00000000000E+00 -0.46803596424E+03  0.46803596424E+03  0.00000000000E+00 0. -1.
         24    2    1    2    0    0 -0.53184532518E+03  0.11481326618E+03  0.11246882905E+03  0.56100204984E+03  0.77669340233E+02 0.  0.
        254    2    1    2    0    0  0.53184532518E+03 -0.11481326618E+03  0.87635444596E+03  0.13638931537E+04  0.89228128056E+03 0.  0.
         23    2    4    4    0    0  0.27424914917E+03 -0.38698380439E+03  0.95762090164E+02  0.49267953893E+03  0.92702154738E+02 0.  0.
         23    2    4    4    0    0  0.25759617601E+03  0.27217053821E+03  0.78059235580E+03  0.87121361473E+03  0.96208860272E+02 0.  0.
          2    1    3    3  502    0 -0.13013705581E+03  0.49204552304E+02  0.56408602847E+02  0.15012885045E+03  0.00000000000E+00 0. -1.
         -1    1    3    3    0  502 -0.40170826937E+03  0.65608713880E+02  0.56060226206E+02  0.41087319939E+03  0.00000000000E+00 0.  1.
         11    1    5    5    0    0  0.51981104093E+02 -0.12951465463E+03  0.89241117067E+00  0.13955958350E+03  0.00000000000E+00 0.  1.
        -11    1    5    5    0    0  0.22226804507E+03 -0.25746914975E+03  0.94869678993E+02  0.35311995544E+03  0.00000000000E+00 0. -1.
          2    1    6    6  503    0  0.20692813073E+03  0.25325851577E+03  0.71465971843E+03  0.78593742769E+03  0.00000000000E+00 0. -1.
         -2    1    6    6    0  503  0.50668045285E+02  0.18912022435E+02  0.65932637365E+02  0.85276187036E+02  0.00000000000E+00 0.  1.
<mgrwt>
<rscale>  0 0.16514993E+04</rscale>
<asrwt>0</asrwt>
<pdfrwt beam="1">  1        2 0.72005534E-01 0.16514993E+04</pdfrwt>
<pdfrwt beam="2">  1       -1 0.22413219E+00 0.16514993E+04</pdfrwt>
<totfact> 0.74956987E+00</totfact>
</mgrwt>
</event>
<event>
12    6  0.1553355E-007  0.1185973E+04  0.7818608E-02  0.9125224E-01
         -1   -1    0    0    0  501 -0.00000000000E+00  0.00000000000E+00  0.94476635537E+02  0.94476635537E+02  0.00000000000E+00 0.  1.
          2   -1    0    0  501    0  0.00000000000E+00 -0.00000000000E+00 -0.37219043948E+04  0.37219043948E+04  0.00000000000E+00 0. -1.
         24    2    1    2    0    0  0.11396512047E+03 -0.70323954610E+02 -0.14774768212E+04  0.14856559153E+04  0.79386612111E+02 0.  0.
        254    2    1    2    0    0 -0.11396512047E+03  0.70323954610E+02 -0.21499509381E+04  0.23307251151E+04  0.88997585280E+03 0.  0.
         23    2    4    4    0    0 -0.32068877717E+03 -0.19305649651E+03 -0.43542297103E+03  0.58142342410E+03  0.91367016734E+02 0.  0.
         23    2    4    4    0    0  0.20672365669E+03  0.26338045112E+03 -0.17145279671E+04  0.17493016910E+04  0.91358217699E+02 0.  0.
          2    1    3    3  502    0  0.10180642921E+03 -0.71695562551E+02 -0.14526569531E+04  0.14579838909E+04  0.00000000000E+00 0. -1.
         -1    1    3    3    0  502  0.12158691262E+02  0.13716079412E+01 -0.24819868062E+02  0.27672024359E+02  0.00000000000E+00 0.  1.
         11    1    5    5    0    0 -0.22084917843E+03 -0.10075862563E+03 -0.22557270242E+03  0.33137547334E+03  0.00000000000E+00 0. -1.
        -11    1    5    5    0    0 -0.99839598734E+02 -0.92297870883E+02 -0.20985026862E+03  0.25004795077E+03  0.00000000000E+00 0.  1.
          2    1    6    6  503    0  0.12868400230E+03  0.94750278482E+02 -0.87274593812E+03  0.88725569044E+03  0.00000000000E+00 0. -1.
         -2    1    6    6    0  503  0.78039654396E+02  0.16863017264E+03 -0.84178202894E+03  0.86204600053E+03  0.00000000000E+00 0.  1.
<mgrwt>
<rscale>  0 0.11859730E+04</rscale>
<asrwt>0</asrwt>
<pdfrwt beam="1">  1        2 0.57260069E+00 0.11859730E+04</pdfrwt>
<pdfrwt beam="2">  1       -1 0.14534867E-01 0.11859730E+04</pdfrwt>
<totfact> 0.22632807E+01</totfact>
</mgrwt>
</event>
<event>
12    6  0.1553355E-007  0.1926995E+04  0.7818608E-02  0.8641535E-01
          2   -1    0    0  501    0  0.00000000000E+00  0.00000000000E+00  0.98283536366E+03  0.98283536366E+03  0.00000000000E+00 0. -1.
         -1   -1    0    0    0  501 -0.00000000000E+00 -0.00000000000E+00 -0.94454034659E+03  0.94454034659E+03  0.00000000000E+00 0.  1.
         24    2    1    2    0    0 -0.39263633406E+03  0.63565565658E+03  0.11450114077E+03  0.75987380171E+03  0.77950488894E+02 0.  0.
        254    2    1    2    0    0  0.39263633406E+03 -0.63565565658E+03 -0.76206123693E+02  0.11675019085E+04  0.89388585881E+03 0.  0.
         23    2    4    4    0    0 -0.20503682090E+03 -0.88902016143E+01 -0.18375483014E+03  0.28990951235E+03  0.90346854631E+02 0.  0.
         23    2    4    4    0    0  0.59767315496E+03 -0.62676545497E+03  0.10754870645E+03  0.87759239619E+03  0.92485425269E+02 0.  0.
          4    1    3    3  502    0 -0.35775926375E+03  0.52747627620E+03  0.10309410158E+03  0.64564022995E+03  0.00000000000E+00 0. -1.
         -3    1    3    3    0  502 -0.34877070307E+02  0.10817938038E+03  0.11407039193E+02  0.11423357176E+03  0.00000000000E+00 0.  1.
         11    1    5    5    0    0 -0.94424616715E+02  0.31905790606E+02 -0.11960926034E+03  0.15569316901E+03  0.00000000000E+00 0.  1.
        -11    1    5    5    0    0 -0.11061220418E+03 -0.40795992220E+02 -0.64145569801E+02  0.13421634334E+03  0.00000000000E+00 0. -1.
          3    1    6    6  503    0  0.51623271832E+03 -0.50937853299E+03  0.11609185036E+03  0.73446581068E+03  0.00000000000E+00 0. -1.
         -3    1    6    6    0  503  0.81440436636E+02 -0.11738692197E+03 -0.85431439159E+01  0.14312658550E+03  0.00000000000E+00 0.  1.
<mgrwt>
<rscale>  0 0.19269952E+04</rscale>
<asrwt>0</asrwt>
<pdfrwt beam="1">  1        2 0.15120544E+00 0.19269952E+04</pdfrwt>
<pdfrwt beam="2">  1       -1 0.14531390E+00 0.19269952E+04</pdfrwt>
<totfact> 0.10466320E+01</totfact>
</mgrwt>
</event>
<event>
12    6  0.1553355E-007  0.1787847E+04  0.7818608E-02  0.8712789E-01
         -1   -1    0    0    0  501 -0.00000000000E+00  0.00000000000E+00  0.34379076875E+03  0.34379076875E+03  0.00000000000E+00 0.  1.
          2   -1    0    0  501    0  0.00000000000E+00 -0.00000000000E+00 -0.23243777672E+04  0.23243777672E+04  0.00000000000E+00 0. -1.
         24    2    1    2    0    0  0.26902765872E+01  0.96140688640E+02  0.23908162741E+03  0.26998126666E+03  0.80495901646E+02 0.  0.
        254    2    1    2    0    0 -0.26902765872E+01 -0.96140688640E+02 -0.22196686259E+04  0.23981872693E+04  0.90284168067E+03 0.  0.
         23    2    4    4    0    0 -0.36931347069E+03 -0.29168767244E+03 -0.10764407279E+04  0.11784414352E+04  0.92333296971E+02 0.  0.
         23    2    4    4    0    0  0.36662319410E+03  0.19554698380E+03 -0.11432278980E+04  0.12197458341E+04  0.90325432017E+02 0.  0.
          2    1    3    3  502    0  0.37977800688E+02  0.25335659587E+02  0.74543303243E+02  0.87412316353E+02  0.00000000000E+00 0. -1.
         -1    1    3    3    0  502 -0.35287524101E+02  0.70805029052E+02  0.16453832416E+03  0.18256895030E+03  0.00000000000E+00 0.  1.
         11    1    5    5    0    0 -0.26535409110E+03 -0.19140571878E+03 -0.83871581908E+03  0.90027394055E+03  0.00000000000E+00 0. -1.
        -11    1    5    5    0    0 -0.10395937959E+03 -0.10028195366E+03 -0.23772490882E+03  0.27816749470E+03  0.00000000000E+00 0.  1.
          3    1    6    6  503    0  0.33827343069E+03  0.18600027042E+03 -0.97072430668E+03  0.10446677434E+04  0.00000000000E+00 0. -1.
         -3    1    6    6    0  503  0.28349763416E+02  0.95467133864E+01 -0.17250359130E+03  0.17507809067E+03  0.00000000000E+00 0.  1.
<mgrwt>
<rscale>  0 0.17878474E+04</rscale>
<asrwt>0</asrwt>
<pdfrwt beam="1">  1        2 0.35759659E+00 0.17878474E+04</pdfrwt>
<pdfrwt beam="2">  1       -1 0.52890886E-01 0.17878474E+04</pdfrwt>
<totfact> 0.17039119E+01</totfact>
</mgrwt>
</event>
<event>
12    6  0.1553355E-007  0.3775443E+04  0.7818608E-02  0.8051445E-01
         -1   -1    0    0    0  501 -0.00000000000E+00  0.00000000000E+00  0.16022417033E+04  0.16022417033E+04  0.00000000000E+00 0.  1.
          2   -1    0    0  501    0  0.00000000000E+00 -0.00000000000E+00 -0.22240666828E+04  0.22240666828E+04  0.00000000000E+00 0. -1.
         24    2    1    2    0    0 -0.93199860461E+03  0.15076945707E+04 -0.50529147904E+03  0.18448253316E+04  0.79351798636E+02 0.  0.
        254    2    1    2    0    0  0.93199860461E+03 -0.15076945707E+04 -0.11653350042E+03  0.19814830545E+04  0.87802660606E+03 0.  0.
         23    2    4    4    0    0  0.27456975909E+03 -0.69706749102E+03 -0.45413547806E+03  0.88084614195E+03  0.91428954471E+02 0.  0.
         23    2    4    4    0    0  0.65742884552E+03 -0.81062707966E+03  0.33760197764E+03  0.11006369125E+04  0.89986491642E+02 0.  0.
          2    1    3    3  502    0 -0.79569692396E+03  0.12492779045E+04 -0.39934183377E+03  0.15340478408E+04  0.00000000000E+00 0. -1.
         -1    1    3    3    0  502 -0.13630168065E+03  0.25841666615E+03 -0.10594964527E+03  0.31077749086E+03  0.00000000000E+00 0.  1.
         11    1    5    5    0    0  0.24963704713E+02 -0.15177412337E+03 -0.72842987238E+02  0.17019010508E+03  0.00000000000E+00 0.  1.
        -11    1    5    5    0    0  0.24960605438E+03 -0.54529336765E+03 -0.38129249082E+03  0.71065603687E+03  0.00000000000E+00 0. -1.
          3    1    6    6  503    0  0.51728805504E+03 -0.62788590771E+03  0.22373204543E+03  0.84373199130E+03  0.00000000000E+00 0. -1.
         -3    1    6    6    0  503  0.14014079048E+03 -0.18274117195E+03  0.11386993221E+03  0.25690492122E+03  0.00000000000E+00 0.  1.
<mgrwt>
<rscale>  0 0.37754430E+04</rscale>
<asrwt>0</asrwt>
<pdfrwt beam="1">  1        2 0.34216410E+00 0.37754430E+04</pdfrwt>
<pdfrwt beam="2">  1       -1 0.24649873E+00 0.37754430E+04</pdfrwt>
<totfact> 0.33606398E-01</totfact>
</mgrwt>
</event>
<event>
12    6  0.1553355E-007  0.1386854E+04  0.7818608E-02  0.8963389E-01
          2   -1    0    0  501    0  0.00000000000E+00  0.00000000000E+00  0.20802700977E+04  0.20802700977E+04  0.00000000000E+00 0. -1.
         -1   -1    0    0    0  501 -0.00000000000E+00 -0.00000000000E+00 -0.23114362246E+03  0.23114362246E+03  0.00000000000E+00 0.  1.
         24    2    1    2    0    0 -0.14527562219E+03 -0.26029577162E+03  0.95577413723E+03  0.10045422223E+04  0.82109560673E+02 0.  0.
        254    2    1    2    0    0  0.14527562219E+03  0.26029577162E+03  0.89335233804E+03  0.13068714978E+04  0.90607715834E+03 0.  0.
         23    2    4    4    0    0  0.46412013978E+03  0.34916030418E+03  0.69148668617E+03  0.90753806893E+03  0.90283371875E+02 0.  0.
         23    2    4    4    0    0 -0.31884451759E+03 -0.88864532558E+02  0.20186565187E+03  0.39933342891E+03  0.95701172914E+02 0.  0.
          4    1    3    3  502    0 -0.13868172176E+03 -0.26258689852E+03  0.88645949803E+03  0.93487696563E+03  0.00000000000E+00 0. -1.
         -3    1    3    3    0  502 -0.65939004312E+01  0.22911269035E+01  0.69314639200E+02  0.69665256713E+02  0.00000000000E+00 0.  1.
         11    1    5    5    0    0  0.69992628687E+02  0.96394575519E+02  0.12665063623E+03  0.17387140627E+03  0.00000000000E+00 0. -1.
        -11    1    5    5    0    0  0.39412751110E+03  0.25276572866E+03  0.56483604994E+03  0.73366666266E+03  0.00000000000E+00 0.  1.
          2    1    6    6  503    0 -0.62996268325E+02 -0.18154005456E+02 -0.48376342706E+00  0.65561663829E+02  0.00000000000E+00 0. -1.
         -2    1    6    6    0  503 -0.25584824927E+03 -0.70710527102E+02  0.20234941530E+03  0.33377176508E+03  0.00000000000E+00 0.  1.
<mgrwt>
<rscale>  0 0.13868542E+04</rscale>
<asrwt>0</asrwt>
<pdfrwt beam="1">  1        2 0.32004154E+00 0.13868542E+04</pdfrwt>
<pdfrwt beam="2">  1       -1 0.35560559E-01 0.13868542E+04</pdfrwt>
<totfact> 0.50487908E+01</totfact>
</mgrwt>
</event>
<event>
12    6  0.1553355E-007  0.1224237E+04  0.7818608E-02  0.9091903E-01
         -1   -1    0    0    0  501 -0.00000000000E+00  0.00000000000E+00  0.20000797168E+03  0.20000797168E+03  0.00000000000E+00 0.  1.
          2   -1    0    0  501    0  0.00000000000E+00 -0.00000000000E+00 -0.18733698034E+04  0.18733698034E+04  0.00000000000E+00 0. -1.
         24    2    1    2    0    0  0.16449485617E+03 -0.13686435266E+03 -0.67260422780E+03  0.70861452978E+03  0.62830691796E+02 0.  0.
        254    2    1    2    0    0 -0.16449485617E+03  0.13686435266E+03 -0.10007576039E+04  0.13647632453E+04  0.90292442937E+03 0.  0.
         23    2    4    4    0    0 -0.56686448959E+02  0.37268853232E+03 -0.10172348565E+04  0.10891172653E+04  0.96434271030E+02 0.  0.
         23    2    4    4    0    0 -0.10780840722E+03 -0.23582417966E+03  0.16477252559E+02  0.27564598003E+03  0.92051670681E+02 0.  0.
          4    1    3    3  502    0  0.91674423169E+02 -0.61774640933E+02 -0.25166604075E+03  0.27487470272E+03  0.00000000000E+00 0. -1.
         -3    1    3    3    0  502  0.72820433005E+02 -0.75089711724E+02 -0.42093818704E+03  0.43373982706E+03  0.00000000000E+00 0.  1.
         11    1    5    5    0    0 -0.44886801436E+02  0.15989723781E+03 -0.32743075836E+03  0.36714146201E+03  0.00000000000E+00 0. -1.
        -11    1    5    5    0    0 -0.11799647523E+02  0.21279129450E+03 -0.68980409813E+03  0.72197580326E+03  0.00000000000E+00 0.  1.
          2    1    6    6  503    0  0.11971467522E+02 -0.35367699746E+02  0.19469879323E+02  0.42110170040E+02  0.00000000000E+00 0. -1.
         -2    1    6    6    0  503 -0.11977987474E+03 -0.20045647991E+03 -0.29926267640E+01  0.23353580999E+03  0.00000000000E+00 0.  1.
<mgrwt>
<rscale>  0 0.12242367E+04</rscale>
<asrwt>0</asrwt>
<pdfrwt beam="1">  1        2 0.28821074E+00 0.12242367E+04</pdfrwt>
<pdfrwt beam="2">  1       -1 0.30770457E-01 0.12242367E+04</pdfrwt>
<totfact> 0.86086816E+01</totfact>
</mgrwt>
</event>
<event>
12    6  0.1553355E-007  0.1096829E+04  0.7818608E-02  0.9208288E-01
          2   -1    0    0  501    0  0.00000000000E+00  0.00000000000E+00  0.12596109075E+04  0.12596109075E+04  0.00000000000E+00 0. -1.
         -1   -1    0    0    0  501 -0.00000000000E+00 -0.00000000000E+00 -0.23877075372E+03  0.23877075372E+03  0.00000000000E+00 0.  1.
         24    2    1    2    0    0  0.12179282342E+03 -0.35592411820E+02  0.20677168942E+02  0.15215471911E+03  0.81383054849E+02 0.  0.
        254    2    1    2    0    0 -0.12179282342E+03  0.35592411820E+02  0.10001629848E+04  0.13462269421E+04  0.89213265369E+03 0.  0.
         23    2    4    4    0    0 -0.14082447845E+03  0.38220116572E+03  0.18748555237E+03  0.45774281633E+03  0.92023848838E+02 0.  0.
         23    2    4    4    0    0  0.19031655031E+02 -0.34660875390E+03  0.81267743244E+03  0.88848412574E+03  0.91976085618E+02 0.  0.
          4    1    3    3  502    0 -0.66031293026E+01 -0.84064567501E+01  0.17940404105E+02  0.20883676188E+02  0.00000000000E+00 0. -1.
         -3    1    3    3    0  502  0.12839595272E+03 -0.27185955070E+02  0.27367648379E+01  0.13127104292E+03  0.00000000000E+00 0.  1.
         11    1    5    5    0    0 -0.63601135241E+02  0.24149509201E+03  0.71651567768E+02  0.25980556390E+03  0.00000000000E+00 0.  1.
        -11    1    5    5    0    0 -0.77223343208E+02  0.14070607370E+03  0.11583398460E+03  0.19793725243E+03  0.00000000000E+00 0. -1.
          3    1    6    6  503    0  0.46605185101E+02 -0.18490018134E+03  0.36710759244E+03  0.41367632850E+03  0.00000000000E+00 0. -1.
         -3    1    6    6    0  503 -0.27573530070E+02 -0.16170857256E+03  0.44556984001E+03  0.47480779725E+03  0.00000000000E+00 0.  1.
<mgrwt>
<rscale>  0 0.10968286E+04</rscale>
<asrwt>0</asrwt>
<pdfrwt beam="1">  1        2 0.19378629E+00 0.10968286E+04</pdfrwt>
<pdfrwt beam="2">  1       -1 0.36733963E-01 0.10968286E+04</pdfrwt>
<totfact> 0.14040767E+02</totfact>
</mgrwt>
</event>
<event>
12    6  0.1553355E-007  0.1716214E+04  0.7818608E-02  0.8752171E-01
         -1   -1    0    0    0  501 -0.00000000000E+00  0.00000000000E+00  0.81483733970E+03  0.81483733970E+03  0.00000000000E+00 0.  1.
          2   -1    0    0  501    0  0.00000000000E+00 -0.00000000000E+00 -0.90367390509E+03  0.90367390509E+03  0.00000000000E+00 0. -1.
         24    2    1    2    0    0 -0.40605965478E+03  0.86294840044E+01 -0.50707269019E+03  0.65423495958E+03  0.77082799412E+02 0.  0.
        254    2    1    2    0    0  0.40605965478E+03 -0.86294840044E+01  0.41823612480E+03  0.10642762852E+04  0.89039521784E+03 0.  0.
         23    2    4    4    0    0  0.20536584474E+03  0.32124752263E+03 -0.10674223389E+03  0.40621246137E+03  0.90772012718E+02 0.  0.
         23    2    4    4    0    0  0.20069381003E+03 -0.32987700663E+03  0.52497835868E+03  0.65806382384E+03  0.91372174516E+02 0.  0.
          4    1    3    3  502    0 -0.34839849559E+03 -0.16088104096E+02 -0.40556178146E+03  0.53490251206E+03  0.00000000000E+00 0. -1.
         -3    1    3    3    0  502 -0.57661159187E+02  0.24717588100E+02 -0.10151090873E+03  0.11933244752E+03  0.00000000000E+00 0.  1.
         11    1    5    5    0    0  0.20649764626E+03  0.30990317600E+03 -0.11754150378E+03  0.39050897751E+03  0.00000000000E+00 0. -1.
        -11    1    5    5    0    0 -0.11318015193E+01  0.11344346627E+02  0.10799269888E+02  0.15703483856E+02  0.00000000000E+00 0.  1.
          1    1    6    6  503    0  0.92069782887E+02 -0.17335558965E+03  0.19286508763E+03  0.27518347954E+03  0.00000000000E+00 0. -1.
         -1    1    6    6    0  503  0.10862402715E+03 -0.15652141699E+03  0.33211327105E+03  0.38288034431E+03  0.00000000000E+00 0.  1.
<mgrwt>
<rscale>  0 0.17162136E+04</rscale>
<asrwt>0</asrwt>
<pdfrwt beam="1">  1        2 0.13902675E+00 0.17162136E+04</pdfrwt>
<pdfrwt beam="2">  1       -1 0.12535959E+00 0.17162136E+04</pdfrwt>
<totfact> 0.17571633E+01</totfact>
</mgrwt>
</event>
<event>
12    6  0.1553355E-007  0.1904684E+04  0.7818608E-02  0.8652528E-01
          2   -1    0    0  501    0  0.00000000000E+00  0.00000000000E+00  0.16349524361E+04  0.16349524361E+04  0.00000000000E+00 0. -1.
         -1   -1    0    0    0  501 -0.00000000000E+00 -0.00000000000E+00 -0.55472892337E+03  0.55472892337E+03  0.00000000000E+00 0.  1.
         24    2    1    2    0    0  0.43972537671E+03 -0.52595988737E+03  0.70937022684E+03  0.98992318917E+03  0.82155898599E+02 0.  0.
        254    2    1    2    0    0 -0.43972537671E+03  0.52595988737E+03  0.37085328594E+03  0.11997581704E+04  0.91208294446E+03 0.  0.
         23    2    4    4    0    0  0.24053717238E+03 -0.27454535328E+02  0.82051724618E+02  0.27203573307E+03  0.93054133409E+02 0.  0.
         23    2    4    4    0    0 -0.68026254910E+03  0.55341442270E+03  0.28880156133E+03  0.92772243729E+03  0.90762987293E+02 0.  0.
          4    1    3    3  502    0  0.27115372366E+03 -0.38372399120E+03  0.48790346837E+03  0.67736123134E+03  0.00000000000E+00 0. -1.
         -3    1    3    3    0  502  0.16857165305E+03 -0.14223589618E+03  0.22146675846E+03  0.31256195782E+03  0.00000000000E+00 0.  1.
         11    1    5    5    0    0  0.62215074814E+02  0.32142526058E+02  0.34669098949E+02  0.78139643827E+02  0.00000000000E+00 0.  1.
        -11    1    5    5    0    0  0.17832209757E+03 -0.59597061386E+02  0.47382625669E+02  0.19389608924E+03  0.00000000000E+00 0. -1.
          4    1    6    6  503    0 -0.42006790181E+03  0.36072245888E+03  0.13846430046E+03  0.57074521196E+03  0.00000000000E+00 0. -1.
         -4    1    6    6    0  503 -0.26019464729E+03  0.19269196382E+03  0.15033726087E+03  0.35697722533E+03  0.00000000000E+00 0.  1.
<mgrwt>
<rscale>  0 0.19046841E+04</rscale>
<asrwt>0</asrwt>
<pdfrwt beam="1">  1        2 0.25153114E+00 0.19046841E+04</pdfrwt>
<pdfrwt beam="2">  1       -1 0.85342912E-01 0.19046841E+04</pdfrwt>
<totfact> 0.15430285E+01</totfact>
</mgrwt>
</event>
<event>
12    6  0.1688199E-007  0.1709916E+04  0.7818608E-02  0.8755729E-01
         -1   -1    0    0    0  501 -0.00000000000E+00  0.00000000000E+00  0.52283874204E+03  0.52283874204E+03  0.00000000000E+00 0.  1.
          2   -1    0    0  501    0  0.00000000000E+00 -0.00000000000E+00 -0.13980474151E+04  0.13980474151E+04  0.00000000000E+00 0. -1.
         24    2    1    2    0    0 -0.47961025769E+03  0.14029082280E+02  0.10768603476E+03  0.49823119204E+03  0.80095094751E+02 0.  0.
        254    2    1    2    0    0  0.47961025769E+03 -0.14029082280E+02 -0.98289470781E+03  0.14226549651E+04  0.90974849746E+03 0.  0.
         23    2    4    4    0    0  0.40363199256E+03 -0.39083852153E+03 -0.81435232733E+03  0.99360551135E+03  0.91698766796E+02 0.  0.
         23    2    4    4    0    0  0.75978265137E+02  0.37680943925E+03 -0.16854238048E+03  0.42904945374E+03  0.88987917479E+02 0.  0.
          2    1    3    3  502    0 -0.12018763854E+03 -0.13073302577E+02  0.58967027627E+02  0.13451055737E+03  0.00000000000E+00 0. -1.
         -1    1    3    3    0  502 -0.35942261916E+03  0.27102384857E+02  0.48719007138E+02  0.36372063467E+03  0.00000000000E+00 0.  1.
         11    1    5    5    0    0  0.78107889052E+01  0.43815561350E+01 -0.67571740565E+01  0.11218995441E+02  0.00000000000E+00 0.  1.
        -11    1    5    5    0    0  0.39582120365E+03 -0.39522007766E+03 -0.80759515328E+03  0.98238651591E+03  0.00000000000E+00 0. -1.
          3    1    6    6  503    0  0.85191532681E+02  0.37006343804E+03 -0.17233399558E+03  0.41701744742E+03  0.00000000000E+00 0. -1.
         -3    1    6    6    0  503 -0.92132675442E+01  0.67460012028E+01  0.37916151001E+01  0.12032006322E+02  0.00000000000E+00 0.  1.
<mgrwt>
<rscale>  0 0.17099162E+04</rscale>
<asrwt>0</asrwt>
<pdfrwt beam="1">  1        2 0.21508422E+00 0.17099162E+04</pdfrwt>
<pdfrwt beam="2">  1       -1 0.80436729E-01 0.17099162E+04</pdfrwt>
<totfact> 0.24241856E+01</totfact>
</mgrwt>
</event>
<event>
12    6  0.1553355E-007  0.1998061E+04  0.7818608E-02  0.8607528E-01
          2   -1    0    0  501    0  0.00000000000E+00  0.00000000000E+00  0.84905807017E+03  0.84905807017E+03  0.00000000000E+00 0. -1.
         -1   -1    0    0    0  501 -0.00000000000E+00 -0.00000000000E+00 -0.11754935583E+04  0.11754935583E+04  0.00000000000E+00 0.  1.
         24    2    1    2    0    0 -0.20478446189E+02  0.30854998803E+03  0.60984249259E+03  0.68822261853E+03  0.78230716497E+02 0.  0.
        254    2    1    2    0    0  0.20478446189E+02 -0.30854998803E+03 -0.93627798069E+03  0.13363290099E+04  0.90196247356E+03 0.  0.
         23    2    4    4    0    0  0.24553346210E+03 -0.31032070359E+03 -0.40418925106E+02  0.40809644299E+03  0.91232654141E+02 0.  0.
         23    2    4    4    0    0 -0.22505501591E+03  0.17707155617E+01 -0.89585905558E+03  0.92823256691E+03  0.91647996056E+02 0.  0.
          4    1    3    3  502    0  0.50975367654E+01  0.89438567933E+02  0.25626716833E+03  0.27147394696E+03  0.00000000000E+00 0. -1.
         -3    1    3    3    0  502 -0.25575982954E+02  0.21911142010E+03  0.35357532427E+03  0.41674867157E+03  0.00000000000E+00 0.  1.
         11    1    5    5    0    0  0.39542171429E+01 -0.52964333650E+02 -0.56033973300E+01  0.53406502730E+02  0.00000000000E+00 0. -1.
        -11    1    5    5    0    0  0.24157924496E+03 -0.25735636994E+03 -0.34815527776E+02  0.35468994026E+03  0.00000000000E+00 0.  1.
          3    1    6    6  503    0 -0.56061910116E+02  0.18914791612E+02 -0.39374256672E+03  0.39816317755E+03  0.00000000000E+00 0. -1.
         -3    1    6    6    0  503 -0.16899310580E+03 -0.17144076051E+02 -0.50211648886E+03  0.53006938936E+03  0.00000000000E+00 0.  1.
<mgrwt>
<rscale>  0 0.19980614E+04</rscale>
<asrwt>0</asrwt>
<pdfrwt beam="1">  1        2 0.13062432E+00 0.19980614E+04</pdfrwt>
<pdfrwt beam="2">  1       -1 0.18084516E+00 0.19980614E+04</pdfrwt>
<totfact> 0.69166141E+00</totfact>
</mgrwt>
</event>
<event>
12    6  0.1553355E-007  0.1790302E+04  0.7818608E-02  0.8711474E-01
         -1   -1    0    0    0  501 -0.00000000000E+00  0.00000000000E+00  0.52499009915E+03  0.52499009915E+03  0.00000000000E+00 0.  1.
          2   -1    0    0  501    0  0.00000000000E+00 -0.00000000000E+00 -0.15263059740E+04  0.15263059740E+04  0.00000000000E+00 0. -1.
         24    2    1    2    0    0 -0.16277135270E+03 -0.11723005939E+03 -0.11021929245E+04  0.11228446791E+04  0.75587899918E+02 0.  0.
        254    2    1    2    0    0  0.16277135270E+03  0.11723005939E+03  0.10087704965E+03  0.92845139400E+03  0.90089311896E+03 0.  0.
         23    2    4    4    0    0  0.35603800680E+03  0.27478815163E+03  0.33980341119E+03  0.56992119234E+03  0.84096472323E+02 0.  0.
         23    2    4    4    0    0 -0.19326665410E+03 -0.15755809225E+03 -0.23892636154E+03  0.35853020166E+03  0.96340787025E+02 0.  0.
          2    1    3    3  502    0 -0.16586183304E+03 -0.12319604337E+03 -0.10823993954E+04  0.11019418605E+04  0.00000000000E+00 0. -1.
         -1    1    3    3    0  502  0.30904803484E+01  0.59659839793E+01 -0.19793529123E+02  0.20902818680E+02  0.00000000000E+00 0.  1.
         11    1    5    5    0    0  0.22057400142E+03  0.21863916527E+03  0.24080013396E+03  0.39298941360E+03  0.00000000000E+00 0.  1.
        -11    1    5    5    0    0  0.13546400538E+03  0.56148986367E+02  0.99003277228E+02  0.17693177873E+03  0.00000000000E+00 0. -1.
          1    1    6    6  503    0 -0.25763890522E+01  0.11553366573E+02 -0.16110267269E+02  0.19991467460E+02  0.00000000000E+00 0. -1.
         -1    1    6    6    0  503 -0.19069026505E+03 -0.16911145882E+03 -0.22281609427E+03  0.33853873420E+03  0.00000000000E+00 0.  1.
<mgrwt>
<rscale>  0 0.17903022E+04</rscale>
<asrwt>0</asrwt>
<pdfrwt beam="1">  1        2 0.23481630E+00 0.17903022E+04</pdfrwt>
<pdfrwt beam="2">  1       -1 0.80767709E-01 0.17903022E+04</pdfrwt>
<totfact> 0.20183547E+01</totfact>
</mgrwt>
</event>
<event>
12    6  0.1553355E-007  0.2865695E+04  0.7818608E-02  0.8283158E-01
          2   -1    0    0  501    0  0.00000000000E+00  0.00000000000E+00  0.17107845550E+04  0.17107845550E+04  0.00000000000E+00 0. -1.
         -1   -1    0    0    0  501 -0.00000000000E+00 -0.00000000000E+00 -0.12000644094E+04  0.12000644094E+04  0.00000000000E+00 0.  1.
         24    2    1    2    0    0 -0.58121931910E+03  0.91006659727E+03 -0.48454156789E+03  0.11864896037E+04  0.83306304000E+02 0.  0.
        254    2    1    2    0    0  0.58121931910E+03 -0.91006659727E+03  0.99526171347E+03  0.17243593607E+04  0.90378770634E+03 0.  0.
         23    2    4    4    0    0 -0.70789592789E+02 -0.57342263895E+03  0.73689544671E+03  0.94101337430E+03  0.93094478434E+02 0.  0.
         23    2    4    4    0    0  0.65200891189E+03 -0.33664395832E+03  0.25836626675E+03  0.78334598639E+03  0.91831534543E+02 0.  0.
          4    1    3    3  502    0 -0.22164122357E+02  0.69155569779E+02 -0.22604126375E+02  0.76057134317E+02  0.00000000000E+00 0. -1.
         -1    1    3    3    0  502 -0.55905519675E+03  0.84091102749E+03 -0.46193744152E+03  0.11104324694E+04  0.00000000000E+00 0.  1.
         11    1    5    5    0    0 -0.32840454355E+02 -0.30845414187E+03  0.32070626045E+03  0.44617816909E+03  0.00000000000E+00 0. -1.
        -11    1    5    5    0    0 -0.37949138434E+02 -0.26496849708E+03  0.41618918627E+03  0.49483520521E+03  0.00000000000E+00 0.  1.
          4    1    6    6  503    0  0.18846805876E+03 -0.13670447851E+03  0.55956134593E+02  0.23945649420E+03  0.00000000000E+00 0.  1.
         -4    1    6    6    0  503  0.46354085313E+03 -0.19993947981E+03  0.20241013216E+03  0.54388949219E+03  0.00000000000E+00 0. -1.
<mgrwt>
<rscale>  0 0.28656948E+04</rscale>
<asrwt>0</asrwt>
<pdfrwt beam="1">  1        2 0.26319762E+00 0.28656948E+04</pdfrwt>
<pdfrwt beam="2">  1       -1 0.18462529E+00 0.28656948E+04</pdfrwt>
<totfact> 0.18376766E+00</totfact>
</mgrwt>
</event>
<event>
12    6  0.1553355E-007  0.2100999E+04  0.7818608E-02  0.8560803E-01
          2   -1    0    0  501    0  0.00000000000E+00  0.00000000000E+00  0.10500798915E+04  0.10500798915E+04  0.00000000000E+00 0. -1.
         -1   -1    0    0    0  501 -0.00000000000E+00 -0.00000000000E+00 -0.10509197350E+04  0.10509197350E+04  0.00000000000E+00 0.  1.
         24    2    1    2    0    0 -0.78894185676E+03 -0.16799299430E+03  0.28901271619E+03  0.86059769463E+03  0.80306552666E+02 0.  0.
        254    2    1    2    0    0  0.78894185676E+03  0.16799299430E+03 -0.28985255972E+03  0.12404019319E+04  0.89662229879E+03 0.  0.
         23    2    4    4    0    0  0.10051203838E+03  0.43876329096E+03 -0.11494745987E+03  0.47384275314E+03  0.93263823717E+02 0.  0.
         23    2    4    4    0    0  0.68842981837E+03 -0.27077029666E+03 -0.17490509986E+03  0.76655917872E+03  0.98838313144E+02 0.  0.
          2    1    3    3  502    0 -0.74221939643E+03 -0.13984085062E+03  0.27885280726E+03  0.80511116255E+03  0.00000000000E+00 0. -1.
         -1    1    3    3    0  502 -0.46722460325E+02 -0.28152143684E+02  0.10159908930E+02  0.55486532080E+02  0.00000000000E+00 0.  1.
         11    1    5    5    0    0  0.45860439012E+02  0.28567892711E+03 -0.11484432518E+03  0.31129543570E+03  0.00000000000E+00 0.  1.
        -11    1    5    5    0    0  0.54651599372E+02  0.15308436385E+03 -0.10313469064E+00  0.16254731743E+03  0.00000000000E+00 0. -1.
          1    1    6    6  503    0  0.15060315821E+03 -0.16741546016E+02 -0.34198098045E+02  0.15534188275E+03  0.00000000000E+00 0. -1.
         -1    1    6    6    0  503  0.53782666016E+03 -0.25402875064E+03 -0.14070700181E+03  0.61121729597E+03  0.00000000000E+00 0.  1.
<mgrwt>
<rscale>  0 0.21009995E+04</rscale>
<asrwt>0</asrwt>
<pdfrwt beam="1">  1        2 0.16155075E+00 0.21009995E+04</pdfrwt>
<pdfrwt beam="2">  1       -1 0.16167996E+00 0.21009995E+04</pdfrwt>
<totfact> 0.69812571E+00</totfact>
</mgrwt>
</event>
<event>
12    6  0.1553355E-007  0.2200288E+04  0.7818608E-02  0.8518308E-01
          2   -1    0    0  501    0  0.00000000000E+00  0.00000000000E+00  0.11597721918E+04  0.11597721918E+04  0.00000000000E+00 0. -1.
         -1   -1    0    0    0  501 -0.00000000000E+00 -0.00000000000E+00 -0.10435812214E+04  0.10435812214E+04  0.00000000000E+00 0.  1.
         24    2    1    2    0    0 -0.46082446940E+03  0.65463316731E+03 -0.37909792235E+03  0.88917765702E+03  0.77575096923E+02 0.  0.
        254    2    1    2    0    0  0.46082446940E+03 -0.65463316731E+03  0.49528889281E+03  0.13141757562E+04  0.91697494812E+03 0.  0.
         23    2    4    4    0    0  0.13091656639E+03 -0.56028559113E+03 -0.12843016157E+03  0.59661721952E+03  0.91644471968E+02 0.  0.
         23    2    4    4    0    0  0.32990790301E+03 -0.94347576181E+02  0.62371905438E+03  0.71755853668E+03  0.90133818051E+02 0.  0.
          2    1    3    3  502    0 -0.79128367343E+02  0.13321859306E+03 -0.42988448364E+02  0.16079956078E+03  0.00000000000E+00 0. -1.
         -1    1    3    3    0  502 -0.38169610206E+03  0.52141457425E+03 -0.33610947399E+03  0.72837809623E+03  0.00000000000E+00 0.  1.
         11    1    5    5    0    0  0.62628213841E+02 -0.20852962860E+03 -0.55239687897E+01  0.21780131635E+03  0.00000000000E+00 0.  1.
        -11    1    5    5    0    0  0.68288352550E+02 -0.35175596253E+03 -0.12290619278E+03  0.37881590317E+03  0.00000000000E+00 0. -1.
          1    1    6    6  503    0  0.24015503547E+03 -0.91185541494E+02  0.38820668682E+03  0.46550367961E+03  0.00000000000E+00 0. -1.
         -1    1    6    6    0  503  0.89752867541E+02 -0.31620346867E+01  0.23551236757E+03  0.25205485707E+03  0.00000000000E+00 0.  1.
<mgrwt>
<rscale>  0 0.22002877E+04</rscale>
<asrwt>0</asrwt>
<pdfrwt beam="1">  1        2 0.17842649E+00 0.22002877E+04</pdfrwt>
<pdfrwt beam="2">  1       -1 0.16055096E+00 0.22002877E+04</pdfrwt>
<totfact> 0.60408433E+00</totfact>
</mgrwt>
</event>
<event>
12    6  0.1553355E-007  0.1320696E+04  0.7818608E-02  0.9013312E-01
         -1   -1    0    0    0  501 -0.00000000000E+00  0.00000000000E+00  0.41687090060E+03  0.41687090060E+03  0.00000000000E+00 0.  1.
          2   -1    0    0  501    0  0.00000000000E+00 -0.00000000000E+00 -0.10460296039E+04  0.10460296039E+04  0.00000000000E+00 0. -1.
         24    2    1    2    0    0 -0.17491717647E+03 -0.16844162930E+03 -0.44394209209E+03  0.51202918442E+03  0.78234924802E+02 0.  0.
        254    2    1    2    0    0  0.17491717647E+03  0.16844162930E+03 -0.18521661124E+03  0.95087132012E+03  0.90049012945E+03 0.  0.
         23    2    4    4    0    0 -0.11873869193E+03  0.39780080135E+03 -0.33152016862E+03  0.54038177309E+03  0.98805283115E+02 0.  0.
         23    2    4    4    0    0  0.29365586840E+03 -0.22935917205E+03  0.14630355737E+03  0.41048954703E+03  0.90870999071E+02 0.  0.
          2    1    3    3  502    0 -0.15602648491E+03 -0.12578575556E+03 -0.30058484223E+03  0.36127215181E+03  0.00000000000E+00 0. -1.
         -1    1    3    3    0  502 -0.18890691555E+02 -0.42655873741E+02 -0.14335724986E+03  0.15075703260E+03  0.00000000000E+00 0.  1.
         11    1    5    5    0    0  0.78600238360E+00  0.90090284547E+02 -0.35004580291E+02  0.96655045450E+02  0.00000000000E+00 0.  1.
        -11    1    5    5    0    0 -0.11952469431E+03  0.30771051681E+03 -0.29651558832E+03  0.44372672764E+03  0.00000000000E+00 0. -1.
          3    1    6    6  503    0  0.24885001660E+03 -0.14868805488E+03  0.12554236859E+03  0.31590402773E+03  0.00000000000E+00 0. -1.
         -3    1    6    6    0  503  0.44805851795E+02 -0.80671117172E+02  0.20761188781E+02  0.94585519296E+02  0.00000000000E+00 0.  1.
<mgrwt>
<rscale>  0 0.13206957E+04</rscale>
<asrwt>0</asrwt>
<pdfrwt beam="1">  1        2 0.16092763E+00 0.13206957E+04</pdfrwt>
<pdfrwt beam="2">  1       -1 0.64133985E-01 0.13206957E+04</pdfrwt>
<totfact> 0.64811004E+01</totfact>
</mgrwt>
</event>
<event>
12    6  0.1553355E-007  0.1430411E+04  0.7818608E-02  0.8932095E-01
         -1   -1    0    0    0  501 -0.00000000000E+00  0.00000000000E+00  0.29095203454E+03  0.29095203454E+03  0.00000000000E+00 0.  1.
          2   -1    0    0  501    0  0.00000000000E+00 -0.00000000000E+00 -0.17580866279E+04  0.17580866279E+04  0.00000000000E+00 0. -1.
         24    2    1    2    0    0 -0.26168895326E+03 -0.15523160493E+03 -0.87725700311E+03  0.93212610071E+03  0.81861216026E+02 0.  0.
        254    2    1    2    0    0  0.26168895326E+03  0.15523160493E+03 -0.58987759027E+03  0.11169125617E+04  0.89830960123E+03 0.  0.
         23    2    4    4    0    0 -0.87032186900E+02 -0.11138529218E+03 -0.64415425703E+03  0.66560773830E+03  0.90098110773E+02 0.  0.
         23    2    4    4    0    0  0.34872114016E+03  0.26661689711E+03  0.54276666759E+02  0.45130482345E+03  0.89660937418E+02 0.  0.
          4    1    3    3  502    0 -0.73988922673E+02 -0.15650629420E+02 -0.29746283257E+03  0.30692578848E+03  0.00000000000E+00 0. -1.
         -3    1    3    3    0  502 -0.18770003058E+03 -0.13958097551E+03 -0.57979417054E+03  0.62520031222E+03  0.00000000000E+00 0.  1.
         11    1    5    5    0    0 -0.60972910543E+02 -0.12284176691E+03 -0.56758217324E+03  0.58391550664E+03  0.00000000000E+00 0. -1.
        -11    1    5    5    0    0 -0.26059276357E+02  0.11456474726E+02 -0.76572083783E+02  0.81692231652E+02  0.00000000000E+00 0.  1.
          1    1    6    6  503    0  0.19231594290E+03  0.19107438954E+03  0.65681864385E+01  0.27117888064E+03  0.00000000000E+00 0. -1.
         -1    1    6    6    0  503  0.15640519726E+03  0.75542507568E+02  0.47708480320E+02  0.18012594281E+03  0.00000000000E+00 0.  1.
<mgrwt>
<rscale>  0 0.14304110E+04</rscale>
<asrwt>0</asrwt>
<pdfrwt beam="1">  1        2 0.27047486E+00 0.14304110E+04</pdfrwt>
<pdfrwt beam="2">  1       -1 0.44761852E-01 0.14304110E+04</pdfrwt>
<totfact> 0.49821237E+01</totfact>
</mgrwt>
</event>
<event>
12    6  0.1553355E-007  0.1324175E+04  0.7818608E-02  0.9010611E-01
          2   -1    0    0  501    0  0.00000000000E+00  0.00000000000E+00  0.52716830448E+03  0.52716830448E+03  0.00000000000E+00 0. -1.
         -3   -1    0    0    0  501 -0.00000000000E+00 -0.00000000000E+00 -0.83153693537E+03  0.83153693537E+03  0.00000000000E+00 0.  1.
         24    2    1    2    0    0  0.28245484834E+03 -0.11863838133E+03  0.80051225839E+02  0.32710064408E+03  0.82041609728E+02 0.  0.
        254    2    1    2    0    0 -0.28245484834E+03  0.11863838133E+03 -0.38441985673E+03  0.10316045958E+04  0.90695843835E+03 0.  0.
         23    2    4    4    0    0  0.53911758467E+02 -0.66001876048E+02 -0.57769063425E+03  0.59108513369E+03  0.91610267025E+02 0.  0.
         23    2    4    4    0    0 -0.33636660680E+03  0.18464025737E+03  0.19327077752E+03  0.44051946208E+03  0.97310247231E+02 0.  0.
          4    1    3    3  502    0  0.10790956896E+03 -0.71947666551E+02  0.66918199711E+02  0.14594172552E+03  0.00000000000E+00 0. -1.
         -3    1    3    3    0  502  0.17454527937E+03 -0.46690714775E+02  0.13133026128E+02  0.18115891856E+03  0.00000000000E+00 0.  1.
         11    1    5    5    0    0 -0.20255029188E+02 -0.54199347474E+01 -0.42462395837E+02  0.47357121537E+02  0.00000000000E+00 0. -1.
        -11    1    5    5    0    0  0.74166787656E+02 -0.60581941301E+02 -0.53522823841E+03  0.54372801215E+03  0.00000000000E+00 0.  1.
          3    1    6    6  503    0 -0.40062794380E+02  0.49765859001E+02  0.41615944587E+01  0.64023332342E+02  0.00000000000E+00 0. -1.
         -3    1    6    6    0  503 -0.29630381242E+03  0.13487439837E+03  0.18910918306E+03  0.37649612974E+03  0.00000000000E+00 0.  1.
<mgrwt>
<rscale>  0 0.13241751E+04</rscale>
<asrwt>0</asrwt>
<pdfrwt beam="1">  1        2 0.81102816E-01 0.13241751E+04</pdfrwt>
<pdfrwt beam="2">  1       -3 0.12792876E+00 0.13241751E+04</pdfrwt>
<totfact> 0.17194602E+01</totfact>
</mgrwt>
</event>
<event>
12    6  0.1553355E-007  0.1968251E+04  0.7818608E-02  0.8621610E-01
          2   -1    0    0  501    0  0.00000000000E+00  0.00000000000E+00  0.10571747767E+04  0.10571747767E+04  0.00000000000E+00 0. -1.
         -1   -1    0    0    0  501 -0.00000000000E+00 -0.00000000000E+00 -0.91612353079E+03  0.91612353079E+03  0.00000000000E+00 0.  1.
         24    2    1    2    0    0  0.62813973203E+03  0.36940878527E+02 -0.40183686759E+03  0.75091193457E+03  0.80446963045E+02 0.  0.
        254    2    1    2    0    0 -0.62813973203E+03 -0.36940878527E+02  0.54288811355E+03  0.12223863730E+04  0.89642444720E+03 0.  0.
         23    2    4    4    0    0  0.24885469084E+02  0.20244839239E+03 -0.12323728458E+03  0.25452674443E+03  0.89396852119E+02 0.  0.
         23    2    4    4    0    0 -0.65302520111E+03 -0.23938927091E+03  0.66612539814E+03  0.96785962854E+03  0.96333162512E+02 0.  0.
          2    1    3    3  502    0 -0.21486964884E+01  0.21753638813E+01 -0.25691211719E+01  0.39936810352E+01  0.00000000000E+00 0. -1.
         -1    1    3    3    0  502  0.63028842851E+03  0.34765514646E+02 -0.39926774642E+03  0.74691825353E+03  0.00000000000E+00 0.  1.
         11    1    5    5    0    0 -0.28613531802E+02  0.69643692406E+02 -0.66717121939E+02  0.10059896845E+03  0.00000000000E+00 0. -1.
        -11    1    5    5    0    0  0.53499000886E+02  0.13280469998E+03 -0.56520162646E+02  0.15392777598E+03  0.00000000000E+00 0.  1.
          2    1    6    6  503    0 -0.52819722973E+03 -0.20871083062E+03  0.49188084442E+03  0.75133167737E+03  0.00000000000E+00 0.  1.
         -2    1    6    6    0  503 -0.12482797138E+03 -0.30678440291E+02  0.17424455371E+03  0.21652795117E+03  0.00000000000E+00 0. -1.
<mgrwt>
<rscale>  0 0.19682507E+04</rscale>
<asrwt>0</asrwt>
<pdfrwt beam="1">  1        2 0.16264227E+00 0.19682507E+04</pdfrwt>
<pdfrwt beam="2">  1       -1 0.14094208E+00 0.19682507E+04</pdfrwt>
<totfact> 0.10137085E+01</totfact>
</mgrwt>
</event>
<event>
12    6  0.1553355E-007  0.1294790E+04  0.7818608E-02  0.9033707E-01
          2   -1    0    0  501    0  0.00000000000E+00  0.00000000000E+00  0.17298588910E+04  0.17298588910E+04  0.00000000000E+00 0. -1.
         -1   -1    0    0    0  501 -0.00000000000E+00 -0.00000000000E+00 -0.24228586762E+03  0.24228586762E+03  0.00000000000E+00 0.  1.
         24    2    1    2    0    0 -0.32592413578E+03 -0.32648622637E+02  0.29598681739E+03  0.44887250350E+03  0.81153271570E+02 0.  0.
        254    2    1    2    0    0  0.32592413578E+03  0.32648622637E+02  0.11915862060E+04  0.15232722552E+04  0.89061113967E+03 0.  0.
         23    2    4    4    0    0 -0.27047693888E+03 -0.14448768230E+03  0.43657619274E+03  0.54068117314E+03  0.87766133076E+02 0.  0.
         23    2    4    4    0    0  0.59640107466E+03  0.17713630494E+03  0.75501001327E+03  0.98259108201E+03  0.91507387275E+02 0.  0.
          4    1    3    3  502    0 -0.30577673184E+03 -0.37647606050E+02  0.24435905864E+03  0.39322779851E+03  0.00000000000E+00 0. -1.
         -3    1    3    3    0  502 -0.20147403936E+02  0.49989834129E+01  0.51627758747E+02  0.55644704993E+02  0.00000000000E+00 0.  1.
         11    1    5    5    0    0 -0.14867231844E+03 -0.77800644878E+02  0.16328489817E+03  0.23413320265E+03  0.00000000000E+00 0.  1.
        -11    1    5    5    0    0 -0.12180462045E+03 -0.66687037422E+02  0.27329129458E+03  0.30654797049E+03  0.00000000000E+00 0. -1.
          3    1    6    6  503    0  0.11903061541E+03  0.21467060511E+02  0.97923151653E+02  0.15562154646E+03  0.00000000000E+00 0. -1.
         -3    1    6    6    0  503  0.47737045925E+03  0.15566924443E+03  0.65708686162E+03  0.82696953556E+03  0.00000000000E+00 0.  1.
<mgrwt>
<rscale>  0 0.12947901E+04</rscale>
<asrwt>0</asrwt>
<pdfrwt beam="1">  1        2 0.26613213E+00 0.12947901E+04</pdfrwt>
<pdfrwt beam="2">  1       -1 0.37274750E-01 0.12947901E+04</pdfrwt>
<totfact> 0.73031193E+01</totfact>
</mgrwt>
</event>
<event>
12    6  0.1553355E-007  0.1473226E+04  0.7818608E-02  0.8902455E-01
          2   -1    0    0  501    0  0.00000000000E+00  0.00000000000E+00  0.21053436073E+04  0.21053436073E+04  0.00000000000E+00 0. -1.
         -1   -1    0    0    0  501 -0.00000000000E+00 -0.00000000000E+00 -0.25772453625E+03  0.25772453625E+03  0.00000000000E+00 0.  1.
         24    2    1    2    0    0 -0.39819762920E+03  0.22385675729E+03  0.57409048768E+03  0.73813086009E+03  0.81142337193E+02 0.  0.
        254    2    1    2    0    0  0.39819762920E+03 -0.22385675729E+03  0.12735285834E+04  0.16249372835E+04  0.89992939881E+03 0.  0.
         23    2    4    4    0    0  0.24856838494E+02 -0.44486276023E+03  0.27365877781E+03  0.53063102596E+03  0.90329514487E+02 0.  0.
         23    2    4    4    0    0  0.37334079071E+03  0.22100600294E+03  0.99986980561E+03  0.10943062575E+04  0.97670659704E+02 0.  0.
          2    1    3    3  502    0 -0.59605408905E+02  0.51481093116E+02  0.60688833678E+02  0.99429584392E+02  0.00000000000E+00 0. -1.
         -1    1    3    3    0  502 -0.33859222030E+03  0.17237566417E+03  0.51340165401E+03  0.63870127570E+03  0.00000000000E+00 0.  1.
         11    1    5    5    0    0  0.11419181959E+02 -0.11883872359E+02  0.28391947572E+02  0.32828749989E+02  0.00000000000E+00 0.  1.
        -11    1    5    5    0    0  0.13437656534E+02 -0.43297888787E+03  0.24526683023E+03  0.49780227598E+03  0.00000000000E+00 0. -1.
          2    1    6    6  503    0  0.27053457060E+03  0.19404672240E+03  0.82536425630E+03  0.88998271890E+03  0.00000000000E+00 0. -1.
         -2    1    6    6    0  503  0.10280622011E+03  0.26959280539E+02  0.17450554932E+03  0.20432353864E+03  0.00000000000E+00 0.  1.
<mgrwt>
<rscale>  0 0.14732260E+04</rscale>
<asrwt>0</asrwt>
<pdfrwt beam="1">  1        2 0.32389901E+00 0.14732260E+04</pdfrwt>
<pdfrwt beam="2">  1       -1 0.39649930E-01 0.14732260E+04</pdfrwt>
<totfact> 0.39863332E+01</totfact>
</mgrwt>
</event>
<event>
12    6  0.1553355E-007  0.3435417E+04  0.7818608E-02  0.8129268E-01
          2   -1    0    0  501    0  0.00000000000E+00  0.00000000000E+00  0.22914560728E+04  0.22914560728E+04  0.00000000000E+00 0. -1.
         -1   -1    0    0    0  501 -0.00000000000E+00 -0.00000000000E+00 -0.12876188682E+04  0.12876188682E+04  0.00000000000E+00 0.  1.
         24    2    1    2    0    0 -0.51507281604E+03  0.35119488902E+03  0.19991055960E+04  0.20954792681E+04  0.77280806461E+02 0.  0.
        254    2    1    2    0    0  0.51507281604E+03 -0.35119488902E+03 -0.99526839135E+03  0.14835956729E+04  0.90656444552E+03 0.  0.
         23    2    4    4    0    0  0.32702225153E+03 -0.13958684451E+03 -0.11070105124E+04  0.11661043052E+04  0.88875957580E+02 0.  0.
         23    2    4    4    0    0  0.18805056450E+03 -0.21160804450E+03  0.11174212105E+03  0.31749136770E+03  0.90407342860E+02 0.  0.
          4    1    3    3  502    0 -0.43410776021E+03  0.32329389626E+03  0.16771055772E+04  0.17622859041E+04  0.00000000000E+00 0. -1.
         -1    1    3    3    0  502 -0.80965055830E+02  0.27900992754E+02  0.32200001877E+03  0.33319336390E+03  0.00000000000E+00 0.  1.
         11    1    5    5    0    0  0.32915293478E+03 -0.12780214248E+03 -0.10855124924E+04  0.11414956913E+04  0.00000000000E+00 0. -1.
        -11    1    5    5    0    0 -0.21306832436E+01 -0.11784702034E+02 -0.21498019954E+02  0.24608613838E+02  0.00000000000E+00 0.  1.
          4    1    6    6  503    0  0.18289860069E+03 -0.18843245991E+03  0.73868315298E+02  0.27279152862E+03  0.00000000000E+00 0. -1.
         -4    1    6    6    0  503  0.51519638145E+01 -0.23175584589E+02  0.37873805748E+02  0.44699839083E+02  0.00000000000E+00 0.  1.
<mgrwt>
<rscale>  0 0.34354168E+04</rscale>
<asrwt>0</asrwt>
<pdfrwt beam="1">  1        2 0.35253170E+00 0.34354168E+04</pdfrwt>
<pdfrwt beam="2">  1       -1 0.19809521E+00 0.34354168E+04</pdfrwt>
<totfact> 0.66788349E-01</totfact>
</mgrwt>
</event>
<event>
12    6  0.1553355E-007  0.1491890E+04  0.7818608E-02  0.8889864E-01
         -1   -1    0    0    0  501 -0.00000000000E+00  0.00000000000E+00  0.17186132748E+04  0.17186132748E+04  0.00000000000E+00 0.  1.
          2   -1    0    0  501    0  0.00000000000E+00 -0.00000000000E+00 -0.32376908920E+03  0.32376908920E+03  0.00000000000E+00 0. -1.
         24    2    1    2    0    0 -0.13500054183E+03  0.12575531654E+03  0.98984507656E+03  0.10100596200E+04  0.79922552948E+02 0.  0.
        254    2    1    2    0    0  0.13500054183E+03 -0.12575531654E+03  0.40499910904E+03  0.10323227440E+04  0.93146466571E+03 0.  0.
         23    2    4    4    0    0  0.29980309004E+03 -0.23741817266E+03  0.61431384464E+03  0.72941518494E+03  0.91737292303E+02 0.  0.
         23    2    4    4    0    0 -0.16480254821E+03  0.11166285612E+03 -0.20931473559E+03  0.30290755904E+03  0.91169388793E+02 0.  0.
          2    1    3    3  502    0 -0.76171974277E+01 -0.11247858835E+02  0.52501367920E+02  0.54230338912E+02  0.00000000000E+00 0. -1.
         -1    1    3    3    0  502 -0.12738334440E+03  0.13700317537E+03  0.93734370864E+03  0.95582928111E+03  0.00000000000E+00 0.  1.
         11    1    5    5    0    0  0.21786843618E+03 -0.17174600601E+03  0.36165178817E+03  0.45580188893E+03  0.00000000000E+00 0. -1.
        -11    1    5    5    0    0  0.81934653859E+02 -0.65672166652E+02  0.25266205646E+03  0.27361329601E+03  0.00000000000E+00 0.  1.
          4    1    6    6  503    0 -0.61506462583E+02  0.51929198039E+02 -0.14865480436E+03  0.16905010325E+03  0.00000000000E+00 0.  1.
         -4    1    6    6    0  503 -0.10329608562E+03  0.59733658084E+02 -0.60659931231E+02  0.13385745579E+03  0.00000000000E+00 0. -1.
<mgrwt>
<rscale>  0 0.14918899E+04</rscale>
<asrwt>0</asrwt>
<pdfrwt beam="1">  1        2 0.49810630E-01 0.14918899E+04</pdfrwt>
<pdfrwt beam="2">  1       -1 0.26440204E+00 0.14918899E+04</pdfrwt>
<totfact> 0.62762977E+00</totfact>
</mgrwt>
</event>
<event>
12    6  0.1553355E-007  0.1950992E+04  0.7818608E-02  0.8629883E-01
         -3   -1    0    0    0  501 -0.00000000000E+00  0.00000000000E+00  0.15832415173E+04  0.15832415173E+04  0.00000000000E+00 0.  1.
          4   -1    0    0  501    0  0.00000000000E+00 -0.00000000000E+00 -0.60104038193E+03  0.60104038193E+03  0.00000000000E+00 0. -1.
         24    2    1    2    0    0 -0.20236627207E+03 -0.13992744348E+03  0.11974691988E+04  0.12249747052E+04  0.78094486144E+02 0.  0.
        254    2    1    2    0    0  0.20236627207E+03  0.13992744348E+03 -0.21526806348E+03  0.95930719400E+03  0.90188588845E+03 0.  0.
         23    2    4    4    0    0  0.44771436337E+03 -0.18230097494E+03  0.11279007578E+01  0.49059999088E+03  0.83697564227E+02 0.  0.
         23    2    4    4    0    0 -0.24534809131E+03  0.32222841842E+03 -0.21639596424E+03  0.46870720311E+03  0.93980792558E+02 0.  0.
          4    1    3    3  502    0  0.23719613822E+01 -0.20672354542E+02  0.79922647601E+02  0.82586936271E+02  0.00000000000E+00 0. -1.
         -3    1    3    3    0  502 -0.20473823345E+03 -0.11925508894E+03  0.11175465512E+04  0.11423877689E+04  0.00000000000E+00 0.  1.
         11    1    5    5    0    0  0.11123549803E+03 -0.52282571196E+02  0.36315416575E+02  0.12816244674E+03  0.00000000000E+00 0. -1.
        -11    1    5    5    0    0  0.33647886535E+03 -0.13001840374E+03 -0.35187515817E+02  0.36243754414E+03  0.00000000000E+00 0.  1.
          3    1    6    6  503    0 -0.92853898729E+01  0.52982083146E+02 -0.79392853937E+01  0.54372344552E+02  0.00000000000E+00 0. -1.
         -3    1    6    6    0  503 -0.23606270143E+03  0.26924633527E+03 -0.20845667884E+03  0.41433485856E+03  0.00000000000E+00 0.  1.
<mgrwt>
<rscale>  0 0.19509916E+04</rscale>
<asrwt>0</asrwt>
<pdfrwt beam="1">  1        4 0.92467752E-01 0.19509916E+04</pdfrwt>
<pdfrwt beam="2">  1       -3 0.24357562E+00 0.19509916E+04</pdfrwt>
<totfact> 0.16912103E-01</totfact>
</mgrwt>
</event>
<event>
12    6  0.1553355E-007  0.1834849E+04  0.7818608E-02  0.8687984E-01
          2   -1    0    0  501    0  0.00000000000E+00  0.00000000000E+00  0.12120890696E+04  0.12120890696E+04  0.00000000000E+00 0. -1.
         -1   -1    0    0    0  501 -0.00000000000E+00 -0.00000000000E+00 -0.69439417893E+03  0.69439417893E+03  0.00000000000E+00 0.  1.
         24    2    1    2    0    0 -0.27003784288E+03 -0.63512497766E+03  0.15773980631E+03  0.71236865991E+03  0.79265927732E+02 0.  0.
        254    2    1    2    0    0  0.27003784288E+03  0.63512497766E+03  0.35995508434E+03  0.11941145886E+04  0.90555939293E+03 0.  0.
         23    2    4    4    0    0  0.41528739622E+03  0.37298970190E+03 -0.15915336600E+03  0.58762292186E+03  0.91574915795E+02 0.  0.
         23    2    4    4    0    0 -0.14524955334E+03  0.26213527576E+03  0.51910845035E+03  0.60649166674E+03  0.92445784447E+02 0.  0.
          2    1    3    3  502    0 -0.79074535282E+02 -0.20475881434E+03  0.87644615113E+02  0.23634832925E+03  0.00000000000E+00 0. -1.
         -1    1    3    3    0  502 -0.19096330759E+03 -0.43036616332E+03  0.70095191197E+02  0.47602033066E+03  0.00000000000E+00 0.  1.
         11    1    5    5    0    0  0.35594009906E+03  0.29555770057E+03 -0.16151367636E+03  0.49003507643E+03  0.00000000000E+00 0.  1.
        -11    1    5    5    0    0  0.59347297160E+02  0.77432001327E+02  0.23603103539E+01  0.97587845424E+02  0.00000000000E+00 0. -1.
          1    1    6    6  503    0 -0.74784326668E+02  0.49705062027E+02  0.14609638761E+03  0.17148598538E+03  0.00000000000E+00 0. -1.
         -1    1    6    6    0  503 -0.70465226673E+02  0.21243021373E+03  0.37301206273E+03  0.43500568137E+03  0.00000000000E+00 0.  1.
<mgrwt>
<rscale>  0 0.18348489E+04</rscale>
<asrwt>0</asrwt>
<pdfrwt beam="1">  1        2 0.18647524E+00 0.18348489E+04</pdfrwt>
<pdfrwt beam="2">  1       -1 0.10682987E+00 0.18348489E+04</pdfrwt>
<totfact> 0.16351485E+01</totfact>
</mgrwt>
</event>
<event>
12    6  0.1553355E-007  0.2913305E+04  0.7818608E-02  0.8268930E-01
          2   -1    0    0  501    0  0.00000000000E+00  0.00000000000E+00  0.23314016568E+04  0.23314016568E+04  0.00000000000E+00 0. -1.
         -1   -1    0    0    0  501 -0.00000000000E+00 -0.00000000000E+00 -0.91011186398E+03  0.91011186398E+03  0.00000000000E+00 0.  1.
         24    2    1    2    0    0  0.12742879634E+04  0.19499137711E+02  0.10586654757E+04  0.16587608456E+04  0.80776997541E+02 0.  0.
        254    2    1    2    0    0 -0.12742879634E+04 -0.19499137711E+02  0.36262431716E+03  0.15827526752E+04  0.86569024803E+03 0.  0.
         23    2    4    4    0    0 -0.13740777065E+03 -0.23867274642E+02  0.40829235713E+03  0.44121033450E+03  0.92267915039E+02 0.  0.
         23    2    4    4    0    0 -0.11368801928E+04  0.43681369305E+01 -0.45668039970E+02  0.11415423407E+04  0.92291345901E+02 0.  0.
          4    1    3    3  502    0  0.10874007893E+04  0.39047871757E+02  0.92530114987E+03  0.14283372958E+04  0.00000000000E+00 0. -1.
         -3    1    3    3    0  502  0.18688717415E+03 -0.19548734046E+02  0.13336432579E+03  0.23042354970E+03  0.00000000000E+00 0.  1.
         11    1    5    5    0    0 -0.69817306987E+02  0.17552664550E+02  0.29007551819E+03  0.29887515561E+03  0.00000000000E+00 0. -1.
        -11    1    5    5    0    0 -0.67590463664E+02 -0.41419939192E+02  0.11821683894E+03  0.14233517889E+03  0.00000000000E+00 0.  1.
          4    1    6    6  503    0 -0.10371939223E+04  0.20573392140E+01 -0.15304856366E+02  0.10373088757E+04  0.00000000000E+00 0. -1.
         -4    1    6    6    0  503 -0.99686270462E+02  0.23107977164E+01 -0.30363183604E+02  0.10423346499E+03  0.00000000000E+00 0.  1.
<mgrwt>
<rscale>  0 0.29133049E+04</rscale>
<asrwt>0</asrwt>
<pdfrwt beam="1">  1        2 0.35867717E+00 0.29133049E+04</pdfrwt>
<pdfrwt beam="2">  1       -1 0.14001721E+00 0.29133049E+04</pdfrwt>
<totfact> 0.17868014E+00</totfact>
</mgrwt>
</event>
<event>
12    6  0.1553355E-007  0.1476184E+04  0.7818608E-02  0.8900446E-01
         -1   -1    0    0    0  501 -0.00000000000E+00  0.00000000000E+00  0.98150582132E+03  0.98150582132E+03  0.00000000000E+00 0.  1.
          2   -1    0    0  501    0  0.00000000000E+00 -0.00000000000E+00 -0.55504519923E+03  0.55504519923E+03  0.00000000000E+00 0. -1.
         24    2    1    2    0    0  0.39778978700E+03  0.16440301595E+03  0.30491486200E+03  0.53346556845E+03  0.79670404499E+02 0.  0.
        254    2    1    2    0    0 -0.39778978700E+03 -0.16440301595E+03  0.12154576009E+03  0.10030854521E+04  0.89785410069E+03 0.  0.
         23    2    4    4    0    0  0.16199748519E+03  0.16645725406E+02  0.32428436055E+03  0.37400831772E+03  0.90562739811E+02 0.  0.
         23    2    4    4    0    0 -0.55978727219E+03 -0.18104874136E+03 -0.20273860046E+03  0.62907713438E+03  0.92166501645E+02 0.  0.
          4    1    3    3  502    0  0.50032337198E+01  0.17408929738E+02  0.16235856276E+02  0.24325012052E+02  0.00000000000E+00 0. -1.
         -3    1    3    3    0  502  0.39278655328E+03  0.14699408621E+03  0.28867900573E+03  0.50914055640E+03  0.00000000000E+00 0.  1.
         11    1    5    5    0    0  0.13601580450E+03 -0.18147376317E+02  0.28090392171E+03  0.31262859686E+03  0.00000000000E+00 0. -1.
        -11    1    5    5    0    0  0.25981680687E+02  0.34793101723E+02  0.43380438846E+02  0.61379720864E+02  0.00000000000E+00 0.  1.
          2    1    6    6  503    0 -0.35610616805E+03 -0.12556189409E+03 -0.83829645871E+02  0.38678779932E+03  0.00000000000E+00 0. -1.
         -2    1    6    6    0  503 -0.20368110414E+03 -0.55486847266E+02 -0.11890895459E+03  0.24228933506E+03  0.00000000000E+00 0.  1.
<mgrwt>
<rscale>  0 0.14761844E+04</rscale>
<asrwt>0</asrwt>
<pdfrwt beam="1">  1        2 0.85391570E-01 0.14761844E+04</pdfrwt>
<pdfrwt beam="2">  1       -1 0.15100089E+00 0.14761844E+04</pdfrwt>
<totfact> 0.20646360E+01</totfact>
</mgrwt>
</event>
<event>
12    6  0.1553355E-007  0.3223345E+04  0.7818608E-02  0.8182679E-01
          2   -1    0    0  501    0  0.00000000000E+00  0.00000000000E+00  0.21338362154E+04  0.21338362154E+04  0.00000000000E+00 0. -1.
         -1   -1    0    0    0  501 -0.00000000000E+00 -0.00000000000E+00 -0.12172860151E+04  0.12172860151E+04  0.00000000000E+00 0.  1.
         24    2    1    2    0    0  0.14628206281E+04  0.21669249626E+03  0.56655124607E+03  0.15858744713E+04  0.84957028005E+02 0.  0.
        254    2    1    2    0    0 -0.14628206281E+04 -0.21669249626E+03  0.34999895421E+03  0.17652477591E+04  0.89822077201E+03 0.  0.
         23    2    4    4    0    0 -0.14020649913E+04  0.72569173328E+01  0.47918879784E+03  0.14839202202E+04  0.80984030850E+02 0.  0.
         23    2    4    4    0    0 -0.60755636726E+02 -0.22394941359E+03 -0.12918984363E+03  0.28132753888E+03  0.92793217392E+02 0.  0.
          2    1    3    3  502    0  0.61311635997E+03  0.10407016835E+03  0.19569815375E+03  0.65195094768E+03  0.00000000000E+00 0. -1.
         -1    1    3    3    0  502  0.84970426809E+03  0.11262232791E+03  0.37085309232E+03  0.93392352366E+03  0.00000000000E+00 0.  1.
         11    1    5    5    0    0 -0.15663344334E+03  0.25957727235E+02  0.49214127791E+02  0.16622234973E+03  0.00000000000E+00 0.  1.
        -11    1    5    5    0    0 -0.12454315480E+04 -0.18700809902E+02  0.42997467005E+03  0.13176978705E+04  0.00000000000E+00 0. -1.
          3    1    6    6  503    0 -0.79422630294E+02 -0.13403655711E+03 -0.62653568632E+02  0.16792624127E+03  0.00000000000E+00 0. -1.
         -3    1    6    6    0  503  0.18666993568E+02 -0.89912856483E+02 -0.66536274993E+02  0.11340129761E+03  0.00000000000E+00 0.  1.
<mgrwt>
<rscale>  0 0.32233455E+04</rscale>
<asrwt>0</asrwt>
<pdfrwt beam="1">  1        2 0.32828249E+00 0.32233455E+04</pdfrwt>
<pdfrwt beam="2">  1       -1 0.18727477E+00 0.32233455E+04</pdfrwt>
<totfact> 0.99287198E-01</totfact>
</mgrwt>
</event>
<event>
12    6  0.1553355E-007  0.2282118E+04  0.7818608E-02  0.8485005E-01
         -1   -1    0    0    0  501 -0.00000000000E+00  0.00000000000E+00  0.81119085395E+03  0.81119085395E+03  0.00000000000E+00 0.  1.
          2   -1    0    0  501    0  0.00000000000E+00 -0.00000000000E+00 -0.16050674278E+04  0.16050674278E+04  0.00000000000E+00 0. -1.
         24    2    1    2    0    0  0.77326029334E+03  0.29962560381E+03  0.18036535775E+03  0.85232244960E+03  0.78834713743E+02 0.  0.
        254    2    1    2    0    0 -0.77326029334E+03 -0.29962560381E+03 -0.97424193158E+03  0.15639358321E+04  0.89946704334E+03 0.  0.
         23    2    4    4    0    0 -0.73421812392E+03  0.14670073121E+03 -0.49560018436E+03  0.90238344196E+03  0.89883121682E+02 0.  0.
         23    2    4    4    0    0 -0.39042169425E+02 -0.44632633501E+03 -0.47864174722E+03  0.66155239017E+03  0.88442944498E+02 0.  0.
          4    1    3    3  502    0  0.35621760018E+03  0.17312562163E+03  0.63488745179E+02  0.40111629275E+03  0.00000000000E+00 0. -1.
         -3    1    3    3    0  502  0.41704269317E+03  0.12649998217E+03  0.11687661257E+03  0.45120615685E+03  0.00000000000E+00 0.  1.
         11    1    5    5    0    0 -0.54618334609E+03  0.75195593878E+02 -0.33660919735E+03  0.64596933102E+03  0.00000000000E+00 0.  1.
        -11    1    5    5    0    0 -0.18803477783E+03  0.71505137327E+02 -0.15899098701E+03  0.25641411094E+03  0.00000000000E+00 0. -1.
          2    1    6    6  503    0 -0.67418941976E+02 -0.33540315239E+03 -0.35358587190E+03  0.49199954998E+03  0.00000000000E+00 0. -1.
         -2    1    6    6    0  503  0.28376772552E+02 -0.11092318262E+03 -0.12505587532E+03  0.16955284019E+03  0.00000000000E+00 0.  1.
<mgrwt>
<rscale>  0 0.22821183E+04</rscale>
<asrwt>0</asrwt>
<pdfrwt beam="1">  1        2 0.24693345E+00 0.22821183E+04</pdfrwt>
<pdfrwt beam="2">  1       -1 0.12479860E+00 0.22821183E+04</pdfrwt>
<totfact> 0.64373521E+00</totfact>
</mgrwt>
</event>
<event>
12    6  0.1553355E-007  0.1626242E+04  0.7818608E-02  0.8804587E-01
          4   -1    0    0  501    0  0.00000000000E+00  0.00000000000E+00  0.25401855548E+03  0.25401855548E+03  0.00000000000E+00 0. -1.
         -3   -1    0    0    0  501 -0.00000000000E+00 -0.00000000000E+00 -0.26028244853E+04  0.26028244853E+04  0.00000000000E+00 0.  1.
         24    2    1    2    0    0 -0.16904106585E+03 -0.41593041228E+03 -0.13985625669E+04  0.14710027782E+04  0.79365799686E+02 0.  0.
        254    2    1    2    0    0  0.16904106585E+03  0.41593041228E+03 -0.95024336291E+03  0.13858402626E+04  0.90333703278E+03 0.  0.
         23    2    4    4    0    0 -0.11955569966E+03  0.53732596627E+03 -0.24527739601E+03  0.60916816444E+03  0.88949942235E+02 0.  0.
         23    2    4    4    0    0  0.28859676551E+03 -0.12139555399E+03 -0.70496596690E+03  0.77667209813E+03  0.90650758063E+02 0.  0.
          4    1    3    3  502    0  0.58888077424E+00 -0.17456363362E+02 -0.11571456910E+03  0.11702535154E+03  0.00000000000E+00 0. -1.
         -1    1    3    3    0  502 -0.16962994663E+03 -0.39847404892E+03 -0.12828479978E+04  0.13539774266E+04  0.00000000000E+00 0.  1.
         11    1    5    5    0    0 -0.12757305364E+03  0.47588231824E+03 -0.19697526057E+03  0.53060165671E+03  0.00000000000E+00 0.  1.
        -11    1    5    5    0    0  0.80173539885E+01  0.61443648030E+02 -0.48302135439E+02  0.78566507725E+02  0.00000000000E+00 0. -1.
          2    1    6    6  503    0  0.11792316415E+03 -0.31776186228E+02 -0.18081682863E+03  0.21819790139E+03  0.00000000000E+00 0. -1.
         -2    1    6    6    0  503  0.17067360136E+03 -0.89619367762E+02 -0.52414913827E+03  0.55847419674E+03  0.00000000000E+00 0.  1.
<mgrwt>
<rscale>  0 0.16262419E+04</rscale>
<asrwt>0</asrwt>
<pdfrwt beam="1">  1        4 0.39079782E-01 0.16262419E+04</pdfrwt>
<pdfrwt beam="2">  1       -3 0.40043450E+00 0.16262419E+04</pdfrwt>
<totfact> 0.14880059E-01</totfact>
</mgrwt>
</event>
<event>
12    6  0.1553355E-007  0.2288513E+04  0.7818608E-02  0.8482464E-01
         -1   -1    0    0    0  501 -0.00000000000E+00  0.00000000000E+00  0.15405457231E+04  0.15405457231E+04  0.00000000000E+00 0.  1.
          2   -1    0    0  501    0  0.00000000000E+00 -0.00000000000E+00 -0.84990842073E+03  0.84990842073E+03  0.00000000000E+00 0. -1.
         24    2    1    2    0    0 -0.24158516884E+03  0.78582022819E+01 -0.67089104223E+03  0.71754896365E+03  0.79728160349E+02 0.  0.
        254    2    1    2    0    0  0.24158516884E+03 -0.78582022819E+01  0.13615283446E+04  0.16729051802E+04  0.94150260944E+03 0.  0.
         23    2    4    4    0    0  0.53741231343E+02  0.38022599488E+03  0.10800743005E+04  0.11499551890E+04  0.91523303293E+02 0.  0.
         23    2    4    4    0    0  0.18784393749E+03 -0.38808419716E+03  0.28145404409E+03  0.52294999114E+03  0.91463792625E+02 0.  0.
          2    1    3    3  502    0 -0.22432692427E+03  0.64932789168E+00 -0.53139534271E+03  0.57680499377E+03  0.00000000000E+00 0. -1.
         -1    1    3    3    0  502 -0.17258244566E+02  0.72088743902E+01 -0.13949569952E+03  0.14074396989E+03  0.00000000000E+00 0.  1.
         11    1    5    5    0    0  0.29580950353E+02  0.30256072821E+03  0.94048601353E+03  0.98839868905E+03  0.00000000000E+00 0. -1.
        -11    1    5    5    0    0  0.24160280990E+02  0.77665266673E+02  0.13958828696E+03  0.16155649996E+03  0.00000000000E+00 0.  1.
          3    1    6    6  503    0  0.13055865279E+03 -0.25680285334E+03  0.13518006431E+03  0.31822463307E+03  0.00000000000E+00 0. -1.
         -3    1    6    6    0  503  0.57285284700E+02 -0.13128134382E+03  0.14627397978E+03  0.20472535808E+03  0.00000000000E+00 0.  1.
<mgrwt>
<rscale>  0 0.22885129E+04</rscale>
<asrwt>0</asrwt>
<pdfrwt beam="1">  1        2 0.13075514E+00 0.22885129E+04</pdfrwt>
<pdfrwt beam="2">  1       -1 0.23700703E+00 0.22885129E+04</pdfrwt>
<totfact> 0.27875110E+00</totfact>
</mgrwt>
</event>
<event>
12    6  0.1651489E-007  0.1528238E+04  0.7818608E-02  0.8865889E-01
          2   -1    0    0  501    0  0.00000000000E+00  0.00000000000E+00  0.12764942344E+04  0.12764942344E+04  0.00000000000E+00 0. -1.
         -1   -1    0    0    0  501 -0.00000000000E+00 -0.00000000000E+00 -0.45740721210E+03  0.45740721210E+03  0.00000000000E+00 0.  1.
         24    2    1    2    0    0 -0.23007591394E+03  0.19154998856E+03  0.76093650002E+03  0.82156832936E+03  0.79522565737E+02 0.  0.
        254    2    1    2    0    0  0.23007591394E+03 -0.19154998856E+03  0.58150522324E+02  0.91233311718E+03  0.85985109709E+03 0.  0.
         23    2    4    4    0    0 -0.10358120002E+03 -0.21577870098E+02 -0.33487706756E+03  0.36185046022E+03  0.87169006590E+02 0.  0.
         23    2    4    4    0    0  0.33365711395E+03 -0.16997211846E+03  0.39302758989E+03  0.55048265696E+03  0.91339358746E+02 0.  0.
          2    1    3    3  502    0 -0.16989553318E+03  0.11640944911E+03  0.59614619731E+03  0.63071859066E+03  0.00000000000E+00 0. -1.
         -1    1    3    3    0  502 -0.60180380757E+02  0.75140539447E+02  0.16479030271E+03  0.19084973871E+03  0.00000000000E+00 0.  1.
         11    1    5    5    0    0  0.13012110782E+02  0.85967057660E+01 -0.25922709479E+02  0.30252359309E+02  0.00000000000E+00 0. -1.
        -11    1    5    5    0    0 -0.11659331080E+03 -0.30174575864E+02 -0.30895435808E+03  0.33159810091E+03  0.00000000000E+00 0.  1.
          4    1    6    6  503    0  0.14371262582E+02 -0.20733693624E+02  0.39932521291E+01  0.25541442834E+02  0.00000000000E+00 0. -1.
         -4    1    6    6    0  503  0.31928585137E+03 -0.14923842484E+03  0.38903433776E+03  0.52494121413E+03  0.00000000000E+00 0.  1.
<mgrwt>
<rscale>  0 0.15282378E+04</rscale>
<asrwt>0</asrwt>
<pdfrwt beam="1">  1        2 0.19638373E+00 0.15282378E+04</pdfrwt>
<pdfrwt beam="2">  1       -1 0.70370341E-01 0.15282378E+04</pdfrwt>
<totfact> 0.38280867E+01</totfact>
</mgrwt>
</event>
<event>
12    6  0.1553355E-007  0.1431756E+04  0.7818608E-02  0.8931147E-01
         -1   -1    0    0    0  501 -0.00000000000E+00  0.00000000000E+00  0.13009645446E+04  0.13009645446E+04  0.00000000000E+00 0.  1.
          2   -1    0    0  501    0  0.00000000000E+00 -0.00000000000E+00 -0.39392419797E+03  0.39392419797E+03  0.00000000000E+00 0. -1.
         24    2    1    2    0    0 -0.36553750829E+02 -0.38071092167E+03  0.49507008768E+03  0.63064723876E+03  0.79652780599E+02 0.  0.
        254    2    1    2    0    0  0.36553750829E+02  0.38071092167E+03  0.41197025896E+03  0.10642415038E+04  0.90366669830E+03 0.  0.
         23    2    4    4    0    0 -0.31208058085E+02 -0.27413088466E+03  0.24239171845E+03  0.37839317050E+03  0.91137047845E+02 0.  0.
         23    2    4    4    0    0  0.67761808914E+02  0.65484180633E+03  0.16957854051E+03  0.68584833333E+03  0.90673043754E+02 0.  0.
          4    1    3    3  502    0 -0.33552720076E+02 -0.23030990842E+03  0.23859403257E+03  0.33330999283E+03  0.00000000000E+00 0. -1.
         -3    1    3    3    0  502 -0.30010307532E+01 -0.15040101326E+03  0.25647605511E+03  0.29733724593E+03  0.00000000000E+00 0.  1.
         11    1    5    5    0    0  0.28763302928E+02 -0.65916172837E+02  0.80277378346E+02  0.10778092090E+03  0.00000000000E+00 0.  1.
        -11    1    5    5    0    0 -0.59971361013E+02 -0.20821471182E+03  0.16211434011E+03  0.27061224959E+03  0.00000000000E+00 0. -1.
          4    1    6    6  503    0  0.74237491604E+02  0.64264588419E+03  0.17626943882E+03  0.67050417798E+03  0.00000000000E+00 0. -1.
         -4    1    6    6    0  503 -0.64756826903E+01  0.12195922145E+02 -0.66908983131E+01  0.15344155353E+02  0.00000000000E+00 0.  1.
<mgrwt>
<rscale>  0 0.14317561E+04</rscale>
<asrwt>0</asrwt>
<pdfrwt beam="1">  1        2 0.60603723E-01 0.14317561E+04</pdfrwt>
<pdfrwt beam="2">  1       -1 0.20014839E+00 0.14317561E+04</pdfrwt>
<totfact> 0.13496782E+01</totfact>
</mgrwt>
</event>
<event>
12    6  0.1553355E-007  0.1622689E+04  0.7818608E-02  0.8806730E-01
         -1   -1    0    0    0  501 -0.00000000000E+00  0.00000000000E+00  0.16968061840E+03  0.16968061840E+03  0.00000000000E+00 0.  1.
          2   -1    0    0  501    0  0.00000000000E+00 -0.00000000000E+00 -0.38795209638E+04  0.38795209638E+04  0.00000000000E+00 0. -1.
         24    2    1    2    0    0  0.45375260108E+03  0.10566830670E+03 -0.53693305275E+03  0.71526322028E+03  0.79038959506E+02 0.  0.
        254    2    1    2    0    0 -0.45375260108E+03 -0.10566830670E+03 -0.31729072927E+04  0.33339383620E+04  0.91145328974E+03 0.  0.
         23    2    4    4    0    0 -0.27891888149E+03  0.42071413521E+02 -0.30397133637E+04  0.30541430052E+04  0.91468115665E+02 0.  0.
         23    2    4    4    0    0 -0.17483371959E+03 -0.14773972022E+03 -0.13319392896E+03  0.27979535679E+03  0.90282692310E+02 0.  0.
          4    1    3    3  502    0  0.12909672988E+03  0.15215453885E+02 -0.20130744721E+03  0.23962922194E+03  0.00000000000E+00 0. -1.
         -3    1    3    3    0  502  0.32465587119E+03  0.90452852814E+02 -0.33562560554E+03  0.47563399834E+03  0.00000000000E+00 0.  1.
         11    1    5    5    0    0 -0.42780442507E+02  0.13119321900E+02 -0.22583880243E+03  0.23022911969E+03  0.00000000000E+00 0. -1.
        -11    1    5    5    0    0 -0.23613843898E+03  0.28952091621E+02 -0.28138745613E+04  0.28239138855E+04  0.00000000000E+00 0.  1.
          4    1    6    6  503    0 -0.16203027604E+03 -0.11957171756E+03 -0.14340027195E+03  0.24721416623E+03  0.00000000000E+00 0. -1.
         -4    1    6    6    0  503 -0.12803443554E+02 -0.28168002663E+02  0.10206342984E+02  0.32581190555E+02  0.00000000000E+00 0.  1.
<mgrwt>
<rscale>  0 0.16226885E+04</rscale>
<asrwt>0</asrwt>
<pdfrwt beam="1">  1        2 0.59684941E+00 0.16226885E+04</pdfrwt>
<pdfrwt beam="2">  1       -1 0.26104709E-01 0.16226885E+04</pdfrwt>
<totfact> 0.61500697E+00</totfact>
</mgrwt>
</event>
<event>
12    6  0.1553355E-007  0.2097451E+04  0.7818608E-02  0.8562367E-01
         -1   -1    0    0    0  501 -0.00000000000E+00  0.00000000000E+00  0.14738217225E+04  0.14738217225E+04  0.00000000000E+00 0.  1.
          2   -1    0    0  501    0  0.00000000000E+00 -0.00000000000E+00 -0.74624033876E+03  0.74624033876E+03  0.00000000000E+00 0. -1.
         24    2    1    2    0    0  0.61466562750E+03  0.48579836006E+03 -0.58721171486E+02  0.78967655802E+03  0.79542504526E+02 0.  0.
        254    2    1    2    0    0 -0.61466562750E+03 -0.48579836006E+03  0.78630255528E+03  0.14303855033E+04  0.90217354168E+03 0.  0.
         23    2    4    4    0    0  0.91304395146E+02  0.10879680084E+03  0.38107712342E+03  0.41823381903E+03  0.97603877710E+02 0.  0.
         23    2    4    4    0    0 -0.70597002265E+03 -0.59459516091E+03  0.40522543186E+03  0.10121516843E+04  0.91138921768E+02 0.  0.
          2    1    3    3  502    0  0.43748128880E+03  0.37825279146E+03 -0.67288071394E+02  0.58223082781E+03  0.00000000000E+00 0. -1.
         -1    1    3    3    0  502  0.17718433870E+03  0.10754556860E+03  0.85668999084E+01  0.20744573021E+03  0.00000000000E+00 0.  1.
         11    1    5    5    0    0  0.54770397029E+02  0.79284947618E+02  0.34720338008E+03  0.36032774865E+03  0.00000000000E+00 0.  1.
        -11    1    5    5    0    0  0.36533998118E+02  0.29511853225E+02  0.33873743336E+02  0.57906070380E+02  0.00000000000E+00 0. -1.
          3    1    6    6  503    0 -0.14648372978E+03 -0.87220976809E+02  0.99044142360E+02  0.19716674167E+03  0.00000000000E+00 0. -1.
         -3    1    6    6    0  503 -0.55948629287E+03 -0.50737418410E+03  0.30618128950E+03  0.81498494259E+03  0.00000000000E+00 0.  1.
<mgrwt>
<rscale>  0 0.20974510E+04</rscale>
<asrwt>0</asrwt>
<pdfrwt beam="1">  1        2 0.11480621E+00 0.20974510E+04</pdfrwt>
<pdfrwt beam="2">  1       -1 0.22674180E+00 0.20974510E+04</pdfrwt>
<totfact> 0.39391289E+00</totfact>
</mgrwt>
</event>
<event>
12    6  0.1553355E-007  0.1362102E+04  0.7818608E-02  0.8981717E-01
          2   -1    0    0  501    0  0.00000000000E+00  0.00000000000E+00  0.13589672089E+04  0.13589672089E+04  0.00000000000E+00 0. -1.
         -1   -1    0    0    0  501 -0.00000000000E+00 -0.00000000000E+00 -0.34131096519E+03  0.34131096519E+03  0.00000000000E+00 0.  1.
         24    2    1    2    0    0 -0.31150983454E+03  0.20033752424E+03  0.21114449417E+03  0.43406669638E+03  0.81599012570E+02 0.  0.
        254    2    1    2    0    0  0.31150983454E+03 -0.20033752424E+03  0.80651174954E+03  0.12662114777E+04  0.90313720084E+03 0.  0.
         23    2    4    4    0    0  0.25166471556E+03  0.11522300936E+03 -0.94412897767E+02  0.30545648731E+03  0.88195234762E+02 0.  0.
         23    2    4    4    0    0  0.59845118982E+02 -0.31556053359E+03  0.90092464731E+03  0.96075499041E+03  0.90692021934E+02 0.  0.
          2    1    3    3  502    0 -0.27341568047E+03  0.20343006404E+03  0.18509985904E+03  0.38781681642E+03  0.00000000000E+00 0. -1.
         -1    1    3    3    0  502 -0.38094154070E+02 -0.30925398049E+01  0.26044635133E+02  0.46249879956E+02  0.00000000000E+00 0.  1.
         11    1    5    5    0    0  0.24365042783E+02 -0.41462517962E+01  0.12079176168E+02  0.27509147763E+02  0.00000000000E+00 0. -1.
        -11    1    5    5    0    0  0.22729967277E+03  0.11936926115E+03 -0.10649207393E+03  0.27794733955E+03  0.00000000000E+00 0.  1.
          2    1    6    6  503    0 -0.47394791742E+01  0.28341112395E+01  0.43433286117E+02  0.43782932660E+02  0.00000000000E+00 0. -1.
         -2    1    6    6    0  503  0.64584598156E+02 -0.31839464483E+03  0.85749136119E+03  0.91697205775E+03  0.00000000000E+00 0.  1.
<mgrwt>
<rscale>  0 0.13621019E+04</rscale>
<asrwt>0</asrwt>
<pdfrwt beam="1">  1        2 0.20907188E+00 0.13621019E+04</pdfrwt>
<pdfrwt beam="2">  1       -1 0.52509380E-01 0.13621019E+04</pdfrwt>
<totfact> 0.62096830E+01</totfact>
</mgrwt>
</event>
<event>
12    6  0.1553355E-007  0.1974897E+04  0.7818608E-02  0.8618448E-01
         -1   -1    0    0    0  501 -0.00000000000E+00  0.00000000000E+00  0.15635221027E+04  0.15635221027E+04  0.00000000000E+00 0.  1.
          2   -1    0    0  501    0  0.00000000000E+00 -0.00000000000E+00 -0.62362674893E+03  0.62362674893E+03  0.00000000000E+00 0. -1.
         24    2    1    2    0    0  0.26006234749E+03  0.70275452772E+03  0.14500312448E+03  0.76728061763E+03  0.78722863719E+02 0.  0.
        254    2    1    2    0    0 -0.26006234749E+03 -0.70275452772E+03  0.79489222930E+03  0.14198682340E+04  0.90701477106E+03 0.  0.
         23    2    4    4    0    0  0.11142416427E+03  0.89771268224E+02 -0.72894038590E+02  0.18376366850E+03  0.89338233798E+02 0.  0.
         23    2    4    4    0    0 -0.37148651175E+03 -0.79252579594E+03  0.86778626789E+03  0.12361045655E+04  0.93819637936E+02 0.  0.
          4    1    3    3  502    0  0.12645411577E+03  0.44618647489E+03  0.76781826014E+02  0.47007282689E+03  0.00000000000E+00 0. -1.
         -3    1    3    3    0  502  0.13360823172E+03  0.25656805282E+03  0.68221298461E+02  0.29720779074E+03  0.00000000000E+00 0.  1.
         11    1    5    5    0    0  0.21334351821E+02  0.56002246428E+02 -0.63152149994E+02  0.87060899498E+02  0.00000000000E+00 0. -1.
        -11    1    5    5    0    0  0.90089812445E+02  0.33769021797E+02 -0.97418885952E+01  0.96702769003E+02  0.00000000000E+00 0.  1.
          2    1    6    6  503    0 -0.29136560232E+03 -0.53174957392E+03  0.62712037048E+03  0.87231386705E+03  0.00000000000E+00 0. -1.
         -2    1    6    6    0  503 -0.80120909428E+02 -0.26077622202E+03  0.24066589740E+03  0.36379069844E+03  0.00000000000E+00 0.  1.
<mgrwt>
<rscale>  0 0.19748967E+04</rscale>
<asrwt>0</asrwt>
<pdfrwt beam="1">  1        2 0.95942577E-01 0.19748967E+04</pdfrwt>
<pdfrwt beam="2">  1       -1 0.24054186E+00 0.19748967E+04</pdfrwt>
<totfact> 0.40444257E+00</totfact>
</mgrwt>
</event>
<event>
12    6  0.1553355E-007  0.2283113E+04  0.7818608E-02  0.8484609E-01
         -1   -1    0    0    0  501 -0.00000000000E+00  0.00000000000E+00  0.67780835933E+03  0.67780835933E+03  0.00000000000E+00 0.  1.
          2   -1    0    0  501    0  0.00000000000E+00 -0.00000000000E+00 -0.19225948778E+04  0.19225948778E+04  0.00000000000E+00 0. -1.
         24    2    1    2    0    0  0.24469671556E+03 -0.81122579663E+03 -0.10425302137E+04  0.13457670084E+04  0.79093733916E+02 0.  0.
        254    2    1    2    0    0 -0.24469671556E+03  0.81122579663E+03 -0.20225630475E+03  0.12546362287E+04  0.90290679356E+03 0.  0.
         23    2    4    4    0    0 -0.75257650557E+02  0.19436658930E+03  0.34045978765E+03  0.41063387948E+03  0.96256069762E+02 0.  0.
         23    2    4    4    0    0 -0.16943906500E+03  0.61685920733E+03 -0.54271609240E+03  0.84400234922E+03  0.92597678859E+02 0.  0.
          4    1    3    3  502    0  0.17331693655E+03 -0.66410381474E+03 -0.81360594261E+03  0.10644375355E+04  0.00000000000E+00 0. -1.
         -3    1    3    3    0  502  0.71379779007E+02 -0.14712198189E+03 -0.22892427113E+03  0.28132947289E+03  0.00000000000E+00 0.  1.
         11    1    5    5    0    0 -0.58062784215E+02  0.31993209800E+02  0.96997525375E+02  0.11748775389E+03  0.00000000000E+00 0. -1.
        -11    1    5    5    0    0 -0.17194866341E+02  0.16237337950E+03  0.24346226228E+03  0.29314612559E+03  0.00000000000E+00 0.  1.
          2    1    6    6  503    0 -0.14981346039E+02  0.20008875284E+02 -0.45735176744E+02  0.52120074933E+02  0.00000000000E+00 0.  1.
         -2    1    6    6    0  503 -0.15445771897E+03  0.59685033204E+03 -0.49698091566E+03  0.79188227429E+03  0.00000000000E+00 0. -1.
<mgrwt>
<rscale>  0 0.22831127E+04</rscale>
<asrwt>0</asrwt>
<pdfrwt beam="1">  1        2 0.29578383E+00 0.22831127E+04</pdfrwt>
<pdfrwt beam="2">  1       -1 0.10427821E+00 0.22831127E+04</pdfrwt>
<totfact> 0.65950671E+00</totfact>
</mgrwt>
</event>
<event>
12    6  0.1553355E-007  0.1732784E+04  0.7818608E-02  0.8742884E-01
          2   -1    0    0  501    0  0.00000000000E+00  0.00000000000E+00  0.13617061718E+04  0.13617061718E+04  0.00000000000E+00 0. -1.
         -1   -1    0    0    0  501 -0.00000000000E+00 -0.00000000000E+00 -0.55124602742E+03  0.55124602742E+03  0.00000000000E+00 0.  1.
         24    2    1    2    0    0  0.39096847065E+03 -0.68611350741E+02  0.84631163289E+03  0.93837117656E+03  0.82056215779E+02 0.  0.
        254    2    1    2    0    0 -0.39096847065E+03  0.68611350741E+02 -0.35851488548E+02  0.97458102263E+03  0.88935874536E+03 0.  0.
         23    2    4    4    0    0 -0.45744811842E+03  0.39292409131E+03 -0.12308255893E+03  0.62203096211E+03  0.90139219751E+02 0.  0.
         23    2    4    4    0    0  0.66479647770E+02 -0.32431274057E+03  0.87231070381E+02  0.35255006051E+03  0.84166431946E+02 0.  0.
          4    1    3    3  502    0  0.35770288389E+03 -0.75641505607E+02  0.71928475191E+03  0.80687269432E+03  0.00000000000E+00 0. -1.
         -1    1    3    3    0  502  0.33265586754E+02  0.70301548664E+01  0.12702688098E+03  0.13149848223E+03  0.00000000000E+00 0.  1.
         11    1    5    5    0    0 -0.67141814439E+02  0.97504912530E+02 -0.50154162765E+01  0.11849213313E+03  0.00000000000E+00 0.  1.
        -11    1    5    5    0    0 -0.39030630398E+03  0.29541917878E+03 -0.11806714265E+03  0.50353882898E+03  0.00000000000E+00 0. -1.
          2    1    6    6  503    0  0.66700780478E+02 -0.28398858723E+03  0.10283519921E+03  0.30931147730E+03  0.00000000000E+00 0. -1.
         -2    1    6    6    0  503 -0.22113270823E+00 -0.40324153336E+02 -0.15604128824E+02  0.43238583213E+02  0.00000000000E+00 0.  1.
<mgrwt>
<rscale>  0 0.17327840E+04</rscale>
<asrwt>0</asrwt>
<pdfrwt beam="1">  1        2 0.20949326E+00 0.17327840E+04</pdfrwt>
<pdfrwt beam="2">  1       -1 0.84807081E-01 0.17327840E+04</pdfrwt>
<totfact> 0.22659445E+01</totfact>
</mgrwt>
</event>
<event>
12    6  0.1553355E-007  0.1581685E+04  0.7818608E-02  0.8831879E-01
          2   -1    0    0  501    0  0.00000000000E+00  0.00000000000E+00  0.18118439312E+04  0.18118439312E+04  0.00000000000E+00 0. -1.
         -1   -1    0    0    0  501 -0.00000000000E+00 -0.00000000000E+00 -0.34519079652E+03  0.34519079652E+03  0.00000000000E+00 0.  1.
         24    2    1    2    0    0 -0.44488773549E+03  0.13685080111E+02  0.99964436382E+02  0.46306274672E+03  0.79510000983E+02 0.  0.
        254    2    1    2    0    0  0.44488773549E+03 -0.13685080111E+02  0.13666886983E+04  0.16939719810E+04  0.89643220366E+03 0.  0.
         23    2    4    4    0    0  0.54263141317E+03 -0.14158515108E+03  0.36645465308E+03  0.67607410150E+03  0.91060267857E+02 0.  0.
         23    2    4    4    0    0 -0.97743677684E+02  0.12790007097E+03  0.10002340452E+04  0.10178978795E+04  0.98669616425E+02 0.  0.
          4    1    3    3  502    0 -0.90159520858E+02 -0.10247452378E+02 -0.90505952674E+01  0.91190255819E+02  0.00000000000E+00 0. -1.
         -3    1    3    3    0  502 -0.35472821463E+03  0.23932532489E+02  0.10901503165E+03  0.37187249090E+03  0.00000000000E+00 0.  1.
         11    1    5    5    0    0  0.43991997434E+03 -0.12458920956E+03  0.33663062002E+03  0.56777832760E+03  0.00000000000E+00 0.  1.
        -11    1    5    5    0    0  0.10271143883E+03 -0.16995941526E+02  0.29824033063E+02  0.10829577390E+03  0.00000000000E+00 0. -1.
          2    1    6    6  503    0 -0.50708708976E+02  0.23668274762E+02  0.56950335201E+03  0.57224612568E+03  0.00000000000E+00 0.  1.
         -2    1    6    6    0  503 -0.47034968708E+02  0.10423179621E+03  0.43073069319E+03  0.44565175382E+03  0.00000000000E+00 0. -1.
<mgrwt>
<rscale>  0 0.15816850E+04</rscale>
<asrwt>0</asrwt>
<pdfrwt beam="1">  1        2 0.27874521E+00 0.15816850E+04</pdfrwt>
<pdfrwt beam="2">  1       -1 0.53106278E-01 0.15816850E+04</pdfrwt>
<totfact> 0.33243248E+01</totfact>
</mgrwt>
</event>
<event>
12    6  0.1553355E-007  0.1221824E+04  0.7818608E-02  0.9093966E-01
         -1   -1    0    0    0  501 -0.00000000000E+00  0.00000000000E+00  0.63688571188E+03  0.63688571188E+03  0.00000000000E+00 0.  1.
          2   -1    0    0  501    0  0.00000000000E+00 -0.00000000000E+00 -0.58599710436E+03  0.58599710436E+03  0.00000000000E+00 0. -1.
         24    2    1    2    0    0  0.24151606354E+03 -0.13665779356E+03  0.20178387696E+02  0.28960015312E+03  0.80347494453E+02 0.  0.
        254    2    1    2    0    0 -0.24151606354E+03  0.13665779356E+03  0.30710219821E+02  0.93328266312E+03  0.89054368236E+03 0.  0.
         23    2    4    4    0    0 -0.91754033116E+02 -0.19111873553E+03  0.36572815554E+03  0.43275271479E+03  0.92588631808E+02 0.  0.
         23    2    4    4    0    0 -0.14976203043E+03  0.32777652909E+03 -0.33501793571E+03  0.50052994834E+03  0.91799200184E+02 0.  0.
          4    1    3    3  502    0  0.16111414352E+03 -0.10025918379E+03 -0.23348672996E+02  0.19119317903E+03  0.00000000000E+00 0. -1.
         -3    1    3    3    0  502  0.80401920022E+02 -0.36398609770E+02  0.43527060692E+02  0.98406974087E+02  0.00000000000E+00 0.  1.
         11    1    5    5    0    0 -0.19331931964E+02 -0.10352867925E+03  0.10687112031E+03  0.15004448466E+03  0.00000000000E+00 0.  1.
        -11    1    5    5    0    0 -0.72422101152E+02 -0.87590056277E+02  0.25885703523E+03  0.28270823013E+03  0.00000000000E+00 0. -1.
          2    1    6    6  503    0 -0.14991959471E+03  0.33370398018E+03 -0.33113950837E+03  0.49344463242E+03  0.00000000000E+00 0. -1.
         -2    1    6    6    0  503  0.15756428158E+00 -0.59274510907E+01 -0.38784273452E+01  0.70853159145E+01  0.00000000000E+00 0.  1.
<mgrwt>
<rscale>  0 0.12218235E+04</rscale>
<asrwt>0</asrwt>
<pdfrwt beam="1">  1        2 0.90153400E-01 0.12218235E+04</pdfrwt>
<pdfrwt beam="2">  1       -1 0.97982418E-01 0.12218235E+04</pdfrwt>
<totfact> 0.57415812E+01</totfact>
</mgrwt>
</event>
<event>
12    6  0.1553355E-007  0.1383603E+04  0.7818608E-02  0.8965774E-01
         -1   -1    0    0    0  501 -0.00000000000E+00  0.00000000000E+00  0.42380131927E+03  0.42380131927E+03  0.00000000000E+00 0.  1.
          2   -1    0    0  501    0  0.00000000000E+00 -0.00000000000E+00 -0.11292780122E+04  0.11292780122E+04  0.00000000000E+00 0. -1.
         24    2    1    2    0    0  0.23344104433E+03  0.35186878637E+03 -0.46798316347E+03  0.63609670470E+03  0.85465855419E+02 0.  0.
        254    2    1    2    0    0 -0.23344104433E+03 -0.35186878637E+03 -0.23749352947E+03  0.91698262679E+03  0.77855481329E+03 0.  0.
         23    2    4    4    0    0 -0.20409165190E+03 -0.32687355821E+02  0.24370117802E+03  0.33227170769E+03  0.91062384978E+02 0.  0.
         23    2    4    4    0    0 -0.29349392432E+02 -0.31918143055E+03 -0.48119470749E+03  0.58471091910E+03  0.87179928598E+02 0.  0.
          2    1    3    3  502    0  0.11216907826E+03  0.11498324127E+03 -0.21952002791E+03  0.27201487191E+03  0.00000000000E+00 0. -1.
         -1    1    3    3    0  502  0.12127196608E+03  0.23688554510E+03 -0.24846313556E+03  0.36408183279E+03  0.00000000000E+00 0.  1.
         11    1    5    5    0    0 -0.17131787921E+03 -0.68525091477E+01  0.23282811020E+03  0.28914650528E+03  0.00000000000E+00 0. -1.
        -11    1    5    5    0    0 -0.32773772689E+02 -0.25834846673E+02  0.10873067822E+02  0.43125202408E+02  0.00000000000E+00 0.  1.
          2    1    6    6  503    0  0.11253019783E+01  0.38932184963E+01  0.30774681296E+00  0.40642542862E+01  0.00000000000E+00 0.  1.
         -2    1    6    6    0  503 -0.30474694410E+02 -0.32307464904E+03 -0.48150245431E+03  0.58064666481E+03  0.00000000000E+00 0. -1.
<mgrwt>
<rscale>  0 0.13836033E+04</rscale>
<asrwt>0</asrwt>
<pdfrwt beam="1">  1        2 0.17373508E+00 0.13836033E+04</pdfrwt>
<pdfrwt beam="2">  1       -1 0.65200204E-01 0.13836033E+04</pdfrwt>
<totfact> 0.55397033E+01</totfact>
</mgrwt>
</event>
<event>
12    6  0.1553355E-007  0.1441082E+04  0.7818608E-02  0.8924607E-01
          2   -1    0    0  501    0  0.00000000000E+00  0.00000000000E+00  0.45240956863E+03  0.45240956863E+03  0.00000000000E+00 0. -1.
         -1   -1    0    0    0  501 -0.00000000000E+00 -0.00000000000E+00 -0.11475869973E+04  0.11475869973E+04  0.00000000000E+00 0.  1.
         24    2    1    2    0    0 -0.43460239447E+03  0.71815720744E+01 -0.23963461137E+03  0.50241766792E+03  0.77897046261E+02 0.  0.
        254    2    1    2    0    0  0.43460239447E+03 -0.71815720744E+01 -0.45554281728E+03  0.10975788980E+04  0.89901577443E+03 0.  0.
         23    2    4    4    0    0 -0.25181520041E+03  0.43600693549E+02 -0.26081322457E+03  0.37643261207E+03  0.91466155951E+02 0.  0.
         23    2    4    4    0    0  0.68641759488E+03 -0.50782265623E+02 -0.19472959271E+03  0.72114628592E+03  0.91566360377E+02 0.  0.
          2    1    3    3  502    0 -0.12723872021E+03  0.16917661510E+02 -0.35028738729E+02  0.13305228945E+03  0.00000000000E+00 0. -1.
         -1    1    3    3    0  502 -0.30736367426E+03 -0.97360894355E+01 -0.20460587264E+03  0.36936537847E+03  0.00000000000E+00 0.  1.
         11    1    5    5    0    0 -0.25663309321E+03  0.33251836818E+02 -0.24129502343E+03  0.35382130732E+03  0.00000000000E+00 0.  1.
        -11    1    5    5    0    0  0.48178928011E+01  0.10348856731E+02 -0.19518201145E+02  0.22611304752E+02  0.00000000000E+00 0. -1.
          1    1    6    6  503    0  0.34869823099E+03  0.52819439520E+01 -0.63263987074E+02  0.35443008801E+03  0.00000000000E+00 0. -1.
         -1    1    6    6    0  503  0.33771936389E+03 -0.56064209575E+02 -0.13146560563E+03  0.36671619791E+03  0.00000000000E+00 0.  1.
<mgrwt>
<rscale>  0 0.14410820E+04</rscale>
<asrwt>0</asrwt>
<pdfrwt beam="1">  1        2 0.69601472E-01 0.14410820E+04</pdfrwt>
<pdfrwt beam="2">  1       -1 0.17655184E+00 0.14410820E+04</pdfrwt>
<totfact> 0.16906227E+01</totfact>
</mgrwt>
</event>
<event>
12    6  0.1553355E-007  0.1137620E+04  0.7818608E-02  0.9169281E-01
          2   -1    0    0  501    0  0.00000000000E+00  0.00000000000E+00  0.13163554898E+04  0.13163554898E+04  0.00000000000E+00 0. -1.
         -1   -1    0    0    0  501 -0.00000000000E+00 -0.00000000000E+00 -0.24578829476E+03  0.24578829476E+03  0.00000000000E+00 0.  1.
         24    2    1    2    0    0  0.12532748842E+03 -0.15294472218E+02  0.49076367298E+03  0.51275730851E+03  0.78295430782E+02 0.  0.
        254    2    1    2    0    0 -0.12532748842E+03  0.15294472218E+02  0.57980352209E+03  0.10493864761E+04  0.86550502698E+03 0.  0.
         23    2    4    4    0    0 -0.45224433123E+03  0.72786987552E+02  0.52184540223E+03  0.70034932685E+03  0.91343719593E+02 0.  0.
         23    2    4    4    0    0  0.32691684281E+03 -0.57492515334E+02  0.57958119862E+02  0.34903714924E+03  0.91037225659E+02 0.  0.
          4    1    3    3  502    0  0.83557129012E+02 -0.20956516385E+02  0.43160087131E+03  0.44011394150E+03  0.00000000000E+00 0. -1.
         -3    1    3    3    0  502  0.41770359406E+02  0.56620441669E+01  0.59162801665E+02  0.72643367006E+02  0.00000000000E+00 0.  1.
         11    1    5    5    0    0 -0.28485787806E+03  0.38149959267E+02  0.39009483423E+03  0.48453421941E+03  0.00000000000E+00 0. -1.
        -11    1    5    5    0    0 -0.16738645317E+03  0.34637028285E+02  0.13175056800E+03  0.21581510744E+03  0.00000000000E+00 0.  1.
          1    1    6    6  503    0  0.28084525946E+03 -0.28536674532E+02  0.20619943934E+02  0.28304343067E+03  0.00000000000E+00 0. -1.
         -1    1    6    6    0  503  0.46071583346E+02 -0.28955840802E+02  0.37338175929E+02  0.65993718566E+02  0.00000000000E+00 0.  1.
<mgrwt>
<rscale>  0 0.11376199E+04</rscale>
<asrwt>0</asrwt>
<pdfrwt beam="1">  1        2 0.20251622E+00 0.11376199E+04</pdfrwt>
<pdfrwt beam="2">  1       -1 0.37813585E-01 0.11376199E+04</pdfrwt>
<totfact> 0.12312674E+02</totfact>
</mgrwt>
</event>
<event>
12    6  0.1553355E-007  0.1313056E+04  0.7818608E-02  0.9019276E-01
          2   -1    0    0  501    0  0.00000000000E+00  0.00000000000E+00  0.19545727869E+04  0.19545727869E+04  0.00000000000E+00 0. -1.
         -1   -1    0    0    0  501 -0.00000000000E+00 -0.00000000000E+00 -0.22052322142E+03  0.22052322142E+03  0.00000000000E+00 0.  1.
         24    2    1    2    0    0 -0.16002971016E+03  0.70019963261E+02  0.93854062357E+03  0.95804440759E+03  0.80487772041E+02 0.  0.
        254    2    1    2    0    0  0.16002971016E+03 -0.70019963261E+02  0.79550894194E+03  0.12170516008E+04  0.90436044738E+03 0.  0.
         23    2    4    4    0    0 -0.74445934260E+02 -0.33257526452E+03  0.77610858714E+03  0.85275188485E+03  0.93234834579E+02 0.  0.
         23    2    4    4    0    0  0.23447564442E+03  0.26255530126E+03  0.19400354799E+02  0.36429971590E+03  0.91781235502E+02 0.  0.
          2    1    3    3  502    0 -0.77371525265E+02  0.75969893941E+02  0.48237821330E+03  0.49441532983E+03  0.00000000000E+00 0. -1.
         -1    1    3    3    0  502 -0.82658184895E+02 -0.59499306801E+01  0.45616241027E+03  0.46362907776E+03  0.00000000000E+00 0.  1.
         11    1    5    5    0    0 -0.94230246585E+02 -0.30086265042E+03  0.70896928933E+03  0.77590922600E+03  0.00000000000E+00 0. -1.
        -11    1    5    5    0    0  0.19784312325E+02 -0.31712614107E+02  0.67139297816E+02  0.76842658849E+02  0.00000000000E+00 0.  1.
          4    1    6    6  503    0  0.36943340516E+02  0.23651989479E+02 -0.26015754246E+02  0.51000455722E+02  0.00000000000E+00 0.  1.
         -4    1    6    6    0  503  0.19753230390E+03  0.23890331178E+03  0.45416109045E+02  0.31329926018E+03  0.00000000000E+00 0. -1.
<mgrwt>
<rscale>  0 0.13130555E+04</rscale>
<asrwt>0</asrwt>
<pdfrwt beam="1">  1        2 0.30070349E+00 0.13130555E+04</pdfrwt>
<pdfrwt beam="2">  1       -1 0.33926651E-01 0.13130555E+04</pdfrwt>
<totfact> 0.64860494E+01</totfact>
</mgrwt>
</event>
<event>
12    6  0.1553355E-007  0.1402506E+04  0.7818608E-02  0.8952007E-01
         -1   -1    0    0    0  501 -0.00000000000E+00  0.00000000000E+00  0.34683220998E+03  0.34683220998E+03  0.00000000000E+00 0.  1.
          2   -1    0    0  501    0  0.00000000000E+00 -0.00000000000E+00 -0.14178487099E+04  0.14178487099E+04  0.00000000000E+00 0. -1.
         24    2    1    2    0    0 -0.33676716136E+03  0.23618834846E+03 -0.31416023143E+03  0.52363820201E+03  0.79393064381E+02 0.  0.
        254    2    1    2    0    0  0.33676716136E+03 -0.23618834846E+03 -0.75685626844E+03  0.12410427178E+04  0.89339720141E+03 0.  0.
         23    2    4    4    0    0 -0.23205783629E+03 -0.29125905960E+03 -0.17840561214E+03  0.42285118313E+03  0.91059768552E+02 0.  0.
         23    2    4    4    0    0  0.56882499765E+03  0.55070711138E+02 -0.57845065630E+03  0.81819153470E+03  0.90761029664E+02 0.  0.
          4    1    3    3  502    0 -0.20191931258E+03  0.12283786560E+03 -0.22448755381E+03  0.32596811475E+03  0.00000000000E+00 0. -1.
         -3    1    3    3    0  502 -0.13484784878E+03  0.11335048287E+03 -0.89672677621E+02  0.19767008726E+03  0.00000000000E+00 0.  1.
         11    1    5    5    0    0 -0.80035660473E+02 -0.14746663753E+03 -0.41666725643E+02  0.17288213372E+03  0.00000000000E+00 0.  1.
        -11    1    5    5    0    0 -0.15202217582E+03 -0.14379242207E+03 -0.13673888650E+03  0.24996904942E+03  0.00000000000E+00 0. -1.
          2    1    6    6  503    0  0.20344726249E+03 -0.49337093789E+01 -0.15586716940E+03  0.25633904229E+03  0.00000000000E+00 0. -1.
         -2    1    6    6    0  503  0.36537773515E+03  0.60004420517E+02 -0.42258348690E+03  0.56185249241E+03  0.00000000000E+00 0.  1.
<mgrwt>
<rscale>  0 0.14025058E+04</rscale>
<asrwt>0</asrwt>
<pdfrwt beam="1">  1        2 0.21813057E+00 0.14025058E+04</pdfrwt>
<pdfrwt beam="2">  1       -1 0.53358803E-01 0.14025058E+04</pdfrwt>
<totfact> 0.55531647E+01</totfact>
</mgrwt>
</event>
<event>
12    6  0.1553355E-007  0.2166897E+04  0.7818608E-02  0.8532334E-01
          2   -1    0    0  501    0  0.00000000000E+00  0.00000000000E+00  0.17082483566E+04  0.17082483566E+04  0.00000000000E+00 0. -1.
         -1   -1    0    0    0  501 -0.00000000000E+00 -0.00000000000E+00 -0.68717210562E+03  0.68717210562E+03  0.00000000000E+00 0.  1.
         24    2    1    2    0    0  0.41111063822E+03  0.15852148556E+03 -0.43786084381E+03  0.62634772354E+03  0.80301519325E+02 0.  0.
        254    2    1    2    0    0 -0.41111063822E+03 -0.15852148556E+03  0.14589370948E+04  0.17690727387E+04  0.89832059419E+03 0.  0.
         23    2    4    4    0    0 -0.86130317309E+02 -0.48498071703E+03  0.53099749669E+03  0.72915006149E+03  0.84123380978E+02 0.  0.
         23    2    4    4    0    0 -0.32498032091E+03  0.32645923147E+03  0.92793959808E+03  0.10399226772E+04  0.90440245591E+02 0.  0.
          2    1    3    3  502    0  0.87039825506E+02  0.11077395325E+02 -0.55151883079E+02  0.10363575695E+03  0.00000000000E+00 0. -1.
         -1    1    3    3    0  502  0.32407081271E+03  0.14744409024E+03 -0.38270896073E+03  0.52271196659E+03  0.00000000000E+00 0.  1.
         11    1    5    5    0    0 -0.27308479401E+02 -0.25529301810E+03  0.22022833808E+03  0.33826143592E+03  0.00000000000E+00 0.  1.
        -11    1    5    5    0    0 -0.58821837908E+02 -0.22968769893E+03  0.31076915861E+03  0.39088862557E+03  0.00000000000E+00 0. -1.
          1    1    6    6  503    0 -0.28714230427E+01 -0.27880174367E+01  0.53577099159E-01  0.40026218936E+01  0.00000000000E+00 0. -1.
         -1    1    6    6    0  503 -0.32210889787E+03  0.32924724891E+03  0.92788602098E+03  0.10359200553E+04  0.00000000000E+00 0.  1.
<mgrwt>
<rscale>  0 0.21668970E+04</rscale>
<asrwt>0</asrwt>
<pdfrwt beam="1">  1        2 0.26280744E+00 0.21668970E+04</pdfrwt>
<pdfrwt beam="2">  1       -1 0.10571879E+00 0.21668970E+04</pdfrwt>
<totfact> 0.84860856E+00</totfact>
</mgrwt>
</event>
<event>
12    6  0.1553355E-007  0.1948819E+04  0.7818608E-02  0.8630930E-01
          2   -1    0    0  501    0  0.00000000000E+00  0.00000000000E+00  0.14700777357E+04  0.14700777357E+04  0.00000000000E+00 0. -1.
         -1   -1    0    0    0  501 -0.00000000000E+00 -0.00000000000E+00 -0.64586646940E+03  0.64586646940E+03  0.00000000000E+00 0.  1.
         24    2    1    2    0    0 -0.18372154246E+03  0.72098687478E+03  0.14208636719E+03  0.76168447981E+03  0.79993951493E+02 0.  0.
        254    2    1    2    0    0  0.18372154246E+03 -0.72098687478E+03  0.68212489911E+03  0.13542597253E+04  0.90285621600E+03 0.  0.
         23    2    4    4    0    0  0.10723071188E+03  0.15708738462E+03 -0.34739807387E+02  0.21463295155E+03  0.93196446808E+02 0.  0.
         23    2    4    4    0    0  0.76490830582E+02 -0.87807425940E+03  0.71686470649E+03  0.11396267737E+04  0.89380779762E+02 0.  0.
          4    1    3    3  502    0 -0.17804933433E+03  0.71159847757E+03  0.14927491088E+03  0.74856994179E+03  0.00000000000E+00 0. -1.
         -3    1    3    3    0  502 -0.56722081254E+01  0.93883972158E+01 -0.71885436855E+01  0.13114538025E+02  0.00000000000E+00 0.  1.
         11    1    5    5    0    0  0.62596953192E+02  0.18923303613E+02 -0.21488915580E+02  0.68834900025E+02  0.00000000000E+00 0. -1.
        -11    1    5    5    0    0  0.44633758685E+02  0.13816408101E+03 -0.13250891807E+02  0.14579805153E+03  0.00000000000E+00 0.  1.
          3    1    6    6  503    0  0.10736626847E+02 -0.81826349589E+02  0.10351725020E+03  0.13238824620E+03  0.00000000000E+00 0. -1.
         -3    1    6    6    0  503  0.65754203734E+02 -0.79624790982E+03  0.61334745629E+03  0.10072385275E+04  0.00000000000E+00 0.  1.
<mgrwt>
<rscale>  0 0.19488190E+04</rscale>
<asrwt>0</asrwt>
<pdfrwt beam="1">  1        2 0.22616580E+00 0.19488190E+04</pdfrwt>
<pdfrwt beam="2">  1       -1 0.99364072E-01 0.19488190E+04</pdfrwt>
<totfact> 0.13569808E+01</totfact>
</mgrwt>
</event>
<event>
12    6  0.1553355E-007  0.2270624E+04  0.7818608E-02  0.8489595E-01
         -1   -1    0    0    0  501 -0.00000000000E+00  0.00000000000E+00  0.14022302003E+04  0.14022302003E+04  0.00000000000E+00 0.  1.
          2   -1    0    0  501    0  0.00000000000E+00 -0.00000000000E+00 -0.91920208060E+03  0.91920208060E+03  0.00000000000E+00 0. -1.
         24    2    1    2    0    0  0.83827271394E+03  0.33407888283E+03  0.53558025099E+03  0.10518044828E+04  0.71670229883E+02 0.  0.
        254    2    1    2    0    0 -0.83827271394E+03 -0.33407888283E+03 -0.52552131311E+02  0.12696277981E+04  0.89156221114E+03 0.  0.
         23    2    4    4    0    0 -0.62102910876E+03 -0.14816669941E+03  0.37617063385E+03  0.74654858195E+03  0.90553380385E+02 0.  0.
         23    2    4    4    0    0 -0.21724360518E+03 -0.18591218342E+03 -0.42872276516E+03  0.52307921616E+03  0.89724762850E+02 0.  0.
          2    1    3    3  502    0  0.15910617146E+03  0.40798588405E+02  0.11860931554E+03  0.20260174813E+03  0.00000000000E+00 0. -1.
         -1    1    3    3    0  502  0.67916654248E+03  0.29328029442E+03  0.41697093545E+03  0.84920273465E+03  0.00000000000E+00 0.  1.
         11    1    5    5    0    0 -0.39850400779E+03 -0.68008975472E+02  0.27709209792E+03  0.49011294178E+03  0.00000000000E+00 0.  1.
        -11    1    5    5    0    0 -0.22252510096E+03 -0.80157723938E+02  0.99078535937E+02  0.25643564017E+03  0.00000000000E+00 0. -1.
          4    1    6    6  503    0 -0.11282982791E+03 -0.14223772854E+03 -0.21638911341E+03  0.28246484717E+03  0.00000000000E+00 0.  1.
         -4    1    6    6    0  503 -0.10441377727E+03 -0.43674454876E+02 -0.21233365176E+03  0.24061436898E+03  0.00000000000E+00 0. -1.
<mgrwt>
<rscale>  0 0.22706236E+04</rscale>
<asrwt>0</asrwt>
<pdfrwt beam="1">  1        2 0.14141570E+00 0.22706236E+04</pdfrwt>
<pdfrwt beam="2">  1       -1 0.21572772E+00 0.22706236E+04</pdfrwt>
<totfact> 0.34683136E+00</totfact>
</mgrwt>
</event>
<event>
12    6  0.1553355E-007  0.1477865E+04  0.7818608E-02  0.8899307E-01
          2   -1    0    0  501    0  0.00000000000E+00  0.00000000000E+00  0.14166830305E+04  0.14166830305E+04  0.00000000000E+00 0. -1.
         -1   -1    0    0    0  501 -0.00000000000E+00 -0.00000000000E+00 -0.38542254494E+03  0.38542254494E+03  0.00000000000E+00 0.  1.
         24    2    1    2    0    0  0.34588904749E+02 -0.40279930591E+03  0.55943418816E+03  0.69481878948E+03  0.79767575923E+02 0.  0.
        254    2    1    2    0    0 -0.34588904749E+02  0.40279930591E+03  0.47182629740E+03  0.11072867860E+04  0.91652621254E+03 0.  0.
         23    2    4    4    0    0  0.21861377241E+02  0.29034836235E+03 -0.23424442341E+03  0.38490594787E+03  0.92206547863E+02 0.  0.
         23    2    4    4    0    0 -0.56450281990E+02  0.11245094355E+03  0.70607072081E+03  0.72238083809E+03  0.86408121251E+02 0.  0.
          4    1    3    3  502    0  0.21277568213E+01 -0.30237366962E+03  0.45520830297E+03  0.54648784297E+03  0.00000000000E+00 0. -1.
         -3    1    3    3    0  502  0.32461147928E+02 -0.10042563629E+03  0.10422588519E+03  0.14833094651E+03  0.00000000000E+00 0.  1.
         11    1    5    5    0    0  0.13839949325E+02  0.38363634649E+02 -0.78788129012E+02  0.88717991039E+02  0.00000000000E+00 0. -1.
        -11    1    5    5    0    0  0.80214279161E+01  0.25198472771E+03 -0.15545629440E+03  0.29618795683E+03  0.00000000000E+00 0.  1.
          2    1    6    6  503    0  0.96583873428E+00  0.22356572592E+02  0.27512360484E+02  0.35463772528E+02  0.00000000000E+00 0. -1.
         -2    1    6    6    0  503 -0.57416120724E+02  0.90094370960E+02  0.67855836032E+03  0.68691706556E+03  0.00000000000E+00 0.  1.
<mgrwt>
<rscale>  0 0.14778655E+04</rscale>
<asrwt>0</asrwt>
<pdfrwt beam="1">  1        2 0.21795123E+00 0.14778655E+04</pdfrwt>
<pdfrwt beam="2">  1       -1 0.59295777E-01 0.14778655E+04</pdfrwt>
<totfact> 0.45013267E+01</totfact>
</mgrwt>
</event>
<event>
12    6  0.1553355E-007  0.1108951E+04  0.7818608E-02  0.9196512E-01
          2   -1    0    0  501    0  0.00000000000E+00  0.00000000000E+00  0.15307868611E+04  0.15307868611E+04  0.00000000000E+00 0. -1.
         -1   -1    0    0    0  501 -0.00000000000E+00 -0.00000000000E+00 -0.20083976152E+03  0.20083976152E+03  0.00000000000E+00 0.  1.
         24    2    1    2    0    0  0.10069894510E+03 -0.13481725580E+03  0.27103172335E+03  0.32899317092E+03  0.80388689771E+02 0.  0.
        254    2    1    2    0    0 -0.10069894510E+03  0.13481725580E+03  0.10589153762E+04  0.14026334517E+04  0.90430241391E+03 0.  0.
         23    2    4    4    0    0  0.28398795307E+03  0.24338467074E+03  0.86969591272E+03  0.95121406361E+03  0.92476801204E+02 0.  0.
         23    2    4    4    0    0 -0.38468689817E+03 -0.10856741494E+03  0.18921946351E+03  0.45141938809E+03  0.90579055887E+02 0.  0.
          2    1    3    3  502    0  0.10830584349E+03 -0.12626068513E+03  0.21519166304E+03  0.27199148550E+03  0.00000000000E+00 0. -1.
         -1    1    3    3    0  502 -0.76068983934E+01 -0.85565706703E+01  0.55840060309E+02  0.57001685415E+02  0.00000000000E+00 0.  1.
         11    1    5    5    0    0  0.21268243510E+03  0.13978824547E+03  0.50626779560E+03  0.56664067330E+03  0.00000000000E+00 0.  1.
        -11    1    5    5    0    0  0.71305517972E+02  0.10359642527E+03  0.36342811712E+03  0.38457339031E+03  0.00000000000E+00 0. -1.
          1    1    6    6  503    0 -0.26904618556E+02 -0.32153193736E+02  0.34098704247E+02  0.54040799387E+02  0.00000000000E+00 0. -1.
         -1    1    6    6    0  503 -0.35778227961E+03 -0.76414221204E+02  0.15512075926E+03  0.39737858871E+03  0.00000000000E+00 0.  1.
<mgrwt>
<rscale>  0 0.11089506E+04</rscale>
<asrwt>0</asrwt>
<pdfrwt beam="1">  1        2 0.23550566E+00 0.11089506E+04</pdfrwt>
<pdfrwt beam="2">  1       -1 0.30898426E-01 0.11089506E+04</pdfrwt>
<totfact> 0.13349457E+02</totfact>
</mgrwt>
</event>
<event>
12    6  0.1553355E-007  0.1489637E+04  0.7818608E-02  0.8891374E-01
          2   -1    0    0  501    0  0.00000000000E+00  0.00000000000E+00  0.21484146600E+04  0.21484146600E+04  0.00000000000E+00 0. -1.
         -1   -1    0    0    0  501 -0.00000000000E+00 -0.00000000000E+00 -0.25821576567E+03  0.25821576567E+03  0.00000000000E+00 0.  1.
         24    2    1    2    0    0  0.67618812440E+02 -0.44742504189E+03  0.37748428771E+03  0.59450512714E+03  0.78616072286E+02 0.  0.
        254    2    1    2    0    0 -0.67618812440E+02  0.44742504189E+03  0.15127146066E+04  0.18121252985E+04  0.88923064755E+03 0.  0.
         23    2    4    4    0    0 -0.24144518714E+03  0.63344493127E+03  0.81848217256E+03  0.10666889587E+04  0.91454953163E+02 0.  0.
         23    2    4    4    0    0  0.17382637470E+03 -0.18601988938E+03  0.69423243406E+03  0.74543633982E+03  0.94327389669E+02 0.  0.
          4    1    3    3  502    0  0.91916373173E+01 -0.88970944996E+02  0.11836447811E+03  0.14835924282E+03  0.00000000000E+00 0. -1.
         -3    1    3    3    0  502  0.58427175122E+02 -0.35845409690E+03  0.25911980959E+03  0.44614588432E+03  0.00000000000E+00 0.  1.
         11    1    5    5    0    0 -0.30572445641E+02  0.27782360649E+02  0.34584132112E+02  0.53875747695E+02  0.00000000000E+00 0. -1.
        -11    1    5    5    0    0 -0.21087274150E+03  0.60566257062E+03  0.78389804045E+03  0.10128132110E+04  0.00000000000E+00 0.  1.
          3    1    6    6  503    0  0.55640512656E+01 -0.60632688917E+02  0.18079144838E+03  0.19076904738E+03  0.00000000000E+00 0. -1.
         -3    1    6    6    0  503  0.16826232344E+03 -0.12538720046E+03  0.51344098568E+03  0.55466729244E+03  0.00000000000E+00 0.  1.
<mgrwt>
<rscale>  0 0.14896369E+04</rscale>
<asrwt>0</asrwt>
<pdfrwt beam="1">  1        2 0.33052532E+00 0.14896369E+04</pdfrwt>
<pdfrwt beam="2">  1       -1 0.39725504E-01 0.14896369E+04</pdfrwt>
<totfact> 0.37535509E+01</totfact>
</mgrwt>
</event>
<event>
12    6  0.1553355E-007  0.1771170E+04  0.7818608E-02  0.8721783E-01
          2   -1    0    0  501    0  0.00000000000E+00  0.00000000000E+00  0.19652497119E+04  0.19652497119E+04  0.00000000000E+00 0. -1.
         -1   -1    0    0    0  501 -0.00000000000E+00 -0.00000000000E+00 -0.39906407603E+03  0.39906407603E+03  0.00000000000E+00 0.  1.
         24    2    1    2    0    0  0.63852522065E+03  0.18186807848E+02  0.40190451595E+03  0.75858679582E+03  0.76690739087E+02 0.  0.
        254    2    1    2    0    0 -0.63852522065E+03 -0.18186807848E+02  0.11642811200E+04  0.16057269922E+04  0.90264247056E+03 0.  0.
         23    2    4    4    0    0 -0.70623306451E+03 -0.98338365347E+02  0.38685523566E+03  0.81621332040E+03  0.90064618700E+02 0.  0.
         23    2    4    4    0    0  0.67707843857E+02  0.80151557499E+02  0.77742588430E+03  0.78951367175E+03  0.89062944103E+02 0.  0.
          2    1    3    3  502    0  0.51495559607E+03 -0.46735022223E+01  0.34981418429E+03  0.62255206295E+03  0.00000000000E+00 0. -1.
         -1    1    3    3    0  502  0.12356962458E+03  0.22860310070E+02  0.52090331663E+02  0.13603473287E+03  0.00000000000E+00 0.  1.
         11    1    5    5    0    0 -0.90736231309E+02 -0.40385317509E+02  0.70144760912E+02  0.12159080979E+03  0.00000000000E+00 0. -1.
        -11    1    5    5    0    0 -0.61549683320E+03 -0.57953047838E+02  0.31671047474E+03  0.69462251061E+03  0.00000000000E+00 0.  1.
          3    1    6    6  503    0  0.70000720362E+01  0.16934188592E+02  0.20361320919E+02  0.27392538060E+02  0.00000000000E+00 0. -1.
         -3    1    6    6    0  503  0.60707771821E+02  0.63217368906E+02  0.75706456338E+03  0.76212113369E+03  0.00000000000E+00 0.  1.
<mgrwt>
<rscale>  0 0.17711697E+04</rscale>
<asrwt>0</asrwt>
<pdfrwt beam="1">  1        2 0.30234610E+00 0.17711697E+04</pdfrwt>
<pdfrwt beam="2">  1       -1 0.61394474E-01 0.17711697E+04</pdfrwt>
<totfact> 0.20255982E+01</totfact>
</mgrwt>
</event>
<event>
12    6  0.1553355E-007  0.3079360E+04  0.7818608E-02  0.8221425E-01
         -1   -1    0    0    0  501 -0.00000000000E+00  0.00000000000E+00  0.15900982656E+04  0.15900982656E+04  0.00000000000E+00 0.  1.
          2   -1    0    0  501    0  0.00000000000E+00 -0.00000000000E+00 -0.14908601513E+04  0.14908601513E+04  0.00000000000E+00 0. -1.
         24    2    1    2    0    0 -0.92624694417E+03  0.81920973489E+03  0.70131443130E+03  0.14238670973E+04  0.80731579592E+02 0.  0.
        254    2    1    2    0    0  0.92624694417E+03 -0.81920973489E+03 -0.60207631703E+03  0.16570913195E+04  0.92434720664E+03 0.  0.
         23    2    4    4    0    0  0.27932182122E+03 -0.79481184861E+03 -0.14548922426E+03  0.85929844940E+03  0.86487896589E+02 0.  0.
         23    2    4    4    0    0  0.64692512295E+03 -0.24397886279E+02 -0.45658709277E+03  0.79779287014E+03  0.94309696230E+02 0.  0.
          2    1    3    3  502    0 -0.30798386854E+03  0.24564684525E+03  0.18710406527E+03  0.43612425650E+03  0.00000000000E+00 0. -1.
         -1    1    3    3    0  502 -0.61826307563E+03  0.57356288963E+03  0.51421036602E+03  0.98774284081E+03  0.00000000000E+00 0.  1.
         11    1    5    5    0    0  0.11516823161E+03 -0.23397291917E+03 -0.19552534041E+02  0.26151357530E+03  0.00000000000E+00 0. -1.
        -11    1    5    5    0    0  0.16415358961E+03 -0.56083892944E+03 -0.12593669022E+03  0.59778487410E+03  0.00000000000E+00 0.  1.
          3    1    6    6  503    0  0.84370088485E+02  0.28662440571E+02 -0.65953850289E+02  0.11085917959E+03  0.00000000000E+00 0.  1.
         -3    1    6    6    0  503  0.56255503446E+03 -0.53060326850E+02 -0.39063324248E+03  0.68693369055E+03  0.00000000000E+00 0. -1.
<mgrwt>
<rscale>  0 0.30793598E+04</rscale>
<asrwt>0</asrwt>
<pdfrwt beam="1">  1        2 0.22936310E+00 0.30793598E+04</pdfrwt>
<pdfrwt beam="2">  1       -1 0.24463050E+00 0.30793598E+04</pdfrwt>
<totfact> 0.94033396E-01</totfact>
</mgrwt>
</event>
<event>
12    6  0.1553355E-007  0.1949810E+04  0.7818608E-02  0.8630452E-01
          2   -1    0    0  501    0  0.00000000000E+00  0.00000000000E+00  0.77901663341E+03  0.77901663341E+03  0.00000000000E+00 0. -1.
         -1   -1    0    0    0  501 -0.00000000000E+00 -0.00000000000E+00 -0.12200509216E+04  0.12200509216E+04  0.00000000000E+00 0.  1.
         24    2    1    2    0    0 -0.48179016695E+03 -0.14138462748E+03 -0.78199139167E+03  0.93266684194E+03  0.79028624899E+02 0.  0.
        254    2    1    2    0    0  0.48179016695E+03  0.14138462748E+03  0.34095710349E+03  0.10664007131E+04  0.87683941318E+03 0.  0.
         23    2    4    4    0    0 -0.84880202418E+02 -0.25233304361E+03 -0.21210930761E+02  0.28193363850E+03  0.90333046412E+02 0.  0.
         23    2    4    4    0    0  0.56667036937E+03  0.39371767109E+03  0.36216803426E+03  0.78446707455E+03  0.89966626997E+02 0.  0.
          2    1    3    3  502    0 -0.25622622963E+02 -0.19404274810E+02 -0.84168174266E+02  0.90096205512E+02  0.00000000000E+00 0. -1.
         -1    1    3    3    0  502 -0.45616754399E+03 -0.12198035267E+03 -0.69782321741E+03  0.84257063643E+03  0.00000000000E+00 0.  1.
         11    1    5    5    0    0 -0.84984928098E+02 -0.25996399369E+03 -0.20571816750E+02  0.27427525529E+03  0.00000000000E+00 0. -1.
        -11    1    5    5    0    0  0.10472567929E+00  0.76309500837E+01 -0.63911401160E+00  0.76583832085E+01  0.00000000000E+00 0.  1.
          2    1    6    6  503    0  0.55120196271E+03  0.39513866898E+03  0.34365516461E+03  0.76030062710E+03  0.00000000000E+00 0. -1.
         -2    1    6    6    0  503  0.15468406662E+02 -0.14209978909E+01  0.18512869648E+02  0.24166447448E+02  0.00000000000E+00 0.  1.
<mgrwt>
<rscale>  0 0.19498102E+04</rscale>
<asrwt>0</asrwt>
<pdfrwt beam="1">  1        2 0.11984871E+00 0.19498102E+04</pdfrwt>
<pdfrwt beam="2">  1       -1 0.18770014E+00 0.19498102E+04</pdfrwt>
<totfact> 0.69675311E+00</totfact>
</mgrwt>
</event>
<event>
12    6  0.1553355E-007  0.1298901E+04  0.7818608E-02  0.9030437E-01
          2   -1    0    0  501    0  0.00000000000E+00  0.00000000000E+00  0.26203677086E+04  0.26203677086E+04  0.00000000000E+00 0. -1.
         -1   -1    0    0    0  501 -0.00000000000E+00 -0.00000000000E+00 -0.16096444592E+03  0.16096444592E+03  0.00000000000E+00 0.  1.
         24    2    1    2    0    0  0.13469898033E+03 -0.19419571097E+03  0.10994834959E+04  0.11274267488E+04  0.79820590027E+02 0.  0.
        254    2    1    2    0    0 -0.13469898033E+03  0.19419571097E+03  0.13599197667E+04  0.16539054057E+04  0.91113419959E+03 0.  0.
         23    2    4    4    0    0 -0.38311867164E+03  0.12394464661E+03  0.13122140084E+04  0.13759785306E+04  0.96276273535E+02 0.  0.
         23    2    4    4    0    0  0.24841969130E+03  0.70251064363E+02  0.47705758354E+02  0.27792687515E+03  0.91213778982E+02 0.  0.
          4    1    3    3  502    0  0.96876986448E+02 -0.18748977647E+03  0.92835026801E+03  0.95203560169E+03  0.00000000000E+00 0. -1.
         -3    1    3    3    0  502  0.37821993884E+02 -0.67059345043E+01  0.17113322793E+03  0.17539114710E+03  0.00000000000E+00 0.  1.
         11    1    5    5    0    0 -0.84148126268E+02 -0.10669728650E+02  0.31655876942E+03  0.32772580729E+03  0.00000000000E+00 0. -1.
        -11    1    5    5    0    0 -0.29897054537E+03  0.13461437526E+03  0.99565523894E+03  0.10482527233E+04  0.00000000000E+00 0.  1.
          3    1    6    6  503    0  0.38108968060E+02 -0.19641443644E+02 -0.51537865971E+01  0.43181492231E+02  0.00000000000E+00 0. -1.
         -3    1    6    6    0  503  0.21031072324E+03  0.89892508007E+02  0.52859544951E+02  0.23474538291E+03  0.00000000000E+00 0.  1.
<mgrwt>
<rscale>  0 0.12989011E+04</rscale>
<asrwt>0</asrwt>
<pdfrwt beam="1">  1        2 0.40313346E+00 0.12989011E+04</pdfrwt>
<pdfrwt beam="2">  1       -1 0.24763763E-01 0.12989011E+04</pdfrwt>
<totfact> 0.47346585E+01</totfact>
</mgrwt>
</event>
<event>
12    6  0.1553355E-007  0.1613781E+04  0.7818608E-02  0.8812126E-01
          2   -1    0    0  501    0  0.00000000000E+00  0.00000000000E+00  0.87188915227E+03  0.87188915227E+03  0.00000000000E+00 0. -1.
         -1   -1    0    0    0  501 -0.00000000000E+00 -0.00000000000E+00 -0.74673784666E+03  0.74673784666E+03  0.00000000000E+00 0.  1.
         24    2    1    2    0    0 -0.17706412949E+03 -0.35889726660E+03 -0.34453595853E+03  0.53392939166E+03  0.78845511197E+02 0.  0.
        254    2    1    2    0    0  0.17706412949E+03  0.35889726660E+03  0.46968726413E+03  0.10846976073E+04  0.89207837054E+03 0.  0.
         23    2    4    4    0    0  0.42228598122E+03  0.18979144432E+03  0.58581918560E+03  0.75227502973E+03  0.91582530313E+02 0.  0.
         23    2    4    4    0    0 -0.24522185173E+03  0.16910582228E+03 -0.11613192147E+03  0.33242257754E+03  0.91036317913E+02 0.  0.
          4    1    3    3  502    0 -0.69909713193E+02 -0.10985631560E+03 -0.15847545077E+03  0.20511032781E+03  0.00000000000E+00 0. -1.
         -1    1    3    3    0  502 -0.10715441630E+03 -0.24904095100E+03 -0.18606050776E+03  0.32881906386E+03  0.00000000000E+00 0.  1.
         11    1    5    5    0    0  0.33320673673E+03  0.15615322995E+03  0.51788030094E+03  0.63530352331E+03  0.00000000000E+00 0. -1.
        -11    1    5    5    0    0  0.89079244486E+02  0.33638214372E+02  0.67938884663E+02  0.11697150642E+03  0.00000000000E+00 0.  1.
          1    1    6    6  503    0 -0.20878956794E+03  0.17755481216E+03 -0.10228494019E+03  0.29254231146E+03  0.00000000000E+00 0. -1.
         -1    1    6    6    0  503 -0.36432283786E+02 -0.84489898858E+01 -0.13846981273E+02  0.39880266077E+02  0.00000000000E+00 0.  1.
<mgrwt>
<rscale>  0 0.16137814E+04</rscale>
<asrwt>0</asrwt>
<pdfrwt beam="1">  1        2 0.13413679E+00 0.16137814E+04</pdfrwt>
<pdfrwt beam="2">  1       -1 0.11488275E+00 0.16137814E+04</pdfrwt>
<totfact> 0.23062686E+01</totfact>
</mgrwt>
</event>
<event>
12    6  0.1553355E-007  0.1611497E+04  0.7818608E-02  0.8813516E-01
         -1   -1    0    0    0  501 -0.00000000000E+00  0.00000000000E+00  0.11933215792E+04  0.11933215792E+04  0.00000000000E+00 0.  1.
          2   -1    0    0  501    0  0.00000000000E+00 -0.00000000000E+00 -0.54405330267E+03  0.54405330267E+03  0.00000000000E+00 0. -1.
         24    2    1    2    0    0  0.12077728199E+03 -0.18669401595E+03 -0.31910530160E+03  0.39576195829E+03  0.73195127452E+02 0.  0.
        254    2    1    2    0    0 -0.12077728199E+03  0.18669401595E+03  0.96837357817E+03  0.13416129236E+04  0.90151874218E+03 0.  0.
         23    2    4    4    0    0  0.29139017310E+02 -0.27096247514E+03  0.36503669880E+02  0.28956841714E+03  0.90816325774E+02 0.  0.
         23    2    4    4    0    0 -0.14991629930E+03  0.45765649109E+03  0.93186990828E+03  0.10520445065E+04  0.80571440428E+02 0.  0.
          2    1    3    3  502    0  0.61774805354E+02 -0.86649562215E+02 -0.91962709905E+02  0.14064641205E+03  0.00000000000E+00 0. -1.
         -1    1    3    3    0  502  0.59002476635E+02 -0.10004445374E+03 -0.22714259169E+03  0.25511554624E+03  0.00000000000E+00 0.  1.
         11    1    5    5    0    0  0.52661100757E+02 -0.18648012088E+03 -0.20211348434E+01  0.19378367321E+03  0.00000000000E+00 0.  1.
        -11    1    5    5    0    0 -0.23522083448E+02 -0.84482354255E+02  0.38524804724E+02  0.95784743927E+02  0.00000000000E+00 0. -1.
          4    1    6    6  503    0 -0.83831359283E+02  0.20744579208E+03  0.35264658767E+03  0.41763748544E+03  0.00000000000E+00 0. -1.
         -4    1    6    6    0  503 -0.66084940015E+02  0.25021069901E+03  0.57922332062E+03  0.63440702104E+03  0.00000000000E+00 0.  1.
<mgrwt>
<rscale>  0 0.16114969E+04</rscale>
<asrwt>0</asrwt>
<pdfrwt beam="1">  1        2 0.83700508E-01 0.16114969E+04</pdfrwt>
<pdfrwt beam="2">  1       -1 0.18358794E+00 0.16114969E+04</pdfrwt>
<totfact> 0.11975790E+01</totfact>
</mgrwt>
</event>
<event>
12    6  0.1553355E-007  0.2342072E+04  0.7818608E-02  0.8461515E-01
         -1   -1    0    0    0  501 -0.00000000000E+00  0.00000000000E+00  0.12583428037E+04  0.12583428037E+04  0.00000000000E+00 0.  1.
          2   -1    0    0  501    0  0.00000000000E+00 -0.00000000000E+00 -0.10897871610E+04  0.10897871610E+04  0.00000000000E+00 0. -1.
         24    2    1    2    0    0 -0.16938884130E+03 -0.68345050921E+03 -0.68466525776E+03  0.98521684446E+03  0.78029079964E+02 0.  0.
        254    2    1    2    0    0  0.16938884130E+03  0.68345050921E+03  0.85322090045E+03  0.13629131203E+04  0.79608359508E+03 0.  0.
         23    2    4    4    0    0 -0.26726038089E+03  0.47156462817E+03  0.32227163335E+03  0.63751547845E+03  0.93625156159E+02 0.  0.
         23    2    4    4    0    0  0.43664922220E+03  0.21188588104E+03  0.53094926711E+03  0.72539764183E+03  0.93468950443E+02 0.  0.
          2    1    3    3  502    0 -0.97856645040E+01 -0.50564743767E+01 -0.64601888001E+01  0.12769541975E+02  0.00000000000E+00 0. -1.
         -1    1    3    3    0  502 -0.15960317680E+03 -0.67839403483E+03 -0.67820506896E+03  0.97244730248E+03  0.00000000000E+00 0.  1.
         11    1    5    5    0    0 -0.43580574451E+02  0.28856974778E+02  0.46734187553E+02  0.70114732754E+02  0.00000000000E+00 0.  1.
        -11    1    5    5    0    0 -0.22367980644E+03  0.44270765339E+03  0.27553744579E+03  0.56740074569E+03  0.00000000000E+00 0. -1.
          3    1    6    6  503    0  0.43829441963E+03  0.21033808407E+03  0.51096717808E+03  0.70528828500E+03  0.00000000000E+00 0. -1.
         -3    1    6    6    0  503 -0.16451974307E+01  0.15477969738E+01  0.19982089025E+02  0.20109356824E+02  0.00000000000E+00 0.  1.
<mgrwt>
<rscale>  0 0.23420724E+04</rscale>
<asrwt>0</asrwt>
<pdfrwt beam="1">  1        2 0.16765956E+00 0.23420724E+04</pdfrwt>
<pdfrwt beam="2">  1       -1 0.19359120E+00 0.23420724E+04</pdfrwt>
<totfact> 0.37970047E+00</totfact>
</mgrwt>
</event>
<event>
12    6  0.1553355E-007  0.1992988E+04  0.7818608E-02  0.8609906E-01
          2   -1    0    0  501    0  0.00000000000E+00  0.00000000000E+00  0.29313812247E+04  0.29313812247E+04  0.00000000000E+00 0. -1.
         -1   -1    0    0    0  501 -0.00000000000E+00 -0.00000000000E+00 -0.33874815875E+03  0.33874815875E+03  0.00000000000E+00 0.  1.
         24    2    1    2    0    0  0.44005344968E+03 -0.14772637492E+03  0.19321131025E+04  0.19887386651E+04  0.80934028011E+02 0.  0.
        254    2    1    2    0    0 -0.44005344968E+03  0.14772637492E+03  0.66051996350E+03  0.12813907184E+04  0.99509066447E+03 0.  0.
         23    2    4    4    0    0 -0.53291905173E+03  0.41106848437E+02  0.86237267647E+03  0.10187329568E+04  0.91857038591E+02 0.  0.
         23    2    4    4    0    0  0.92865602042E+02  0.10661952648E+03 -0.20185271297E+03  0.26265776153E+03  0.90845134652E+02 0.  0.
          4    1    3    3  502    0  0.38748139546E+03 -0.12831247152E+03  0.17905867582E+04  0.18365203132E+04  0.00000000000E+00 0. -1.
         -3    1    3    3    0  502  0.52572054224E+02 -0.19413903402E+02  0.14152634430E+03  0.15221835192E+03  0.00000000000E+00 0.  1.
         11    1    5    5    0    0 -0.32400148814E+03  0.50002901990E+02  0.45472411783E+03  0.56058119649E+03  0.00000000000E+00 0. -1.
        -11    1    5    5    0    0 -0.20891756358E+03 -0.88960535534E+01  0.40764855864E+03  0.45815176034E+03  0.00000000000E+00 0.  1.
          3    1    6    6  503    0  0.65013930431E+02  0.11907315127E+03 -0.17867308850E+03  0.22434192443E+03  0.00000000000E+00 0. -1.
         -3    1    6    6    0  503  0.27851671611E+02 -0.12453624793E+02 -0.23179624473E+02  0.38315837101E+02  0.00000000000E+00 0.  1.
<mgrwt>
<rscale>  0 0.19929877E+04</rscale>
<asrwt>0</asrwt>
<pdfrwt beam="1">  1        2 0.45098171E+00 0.19929877E+04</pdfrwt>
<pdfrwt beam="2">  1       -1 0.52115103E-01 0.19929877E+04</pdfrwt>
<totfact> 0.75537409E+00</totfact>
</mgrwt>
</event>
<event>
12    6  0.1553355E-007  0.2543654E+04  0.7818608E-02  0.8387597E-01
          2   -1    0    0  501    0  0.00000000000E+00  0.00000000000E+00  0.84652701217E+03  0.84652701217E+03  0.00000000000E+00 0. -1.
         -1   -1    0    0    0  501 -0.00000000000E+00 -0.00000000000E+00 -0.19108000925E+04  0.19108000925E+04  0.00000000000E+00 0.  1.
         24    2    1    2    0    0  0.38339234582E+03  0.10247125599E+04 -0.57010072603E+03  0.12362317521E+04  0.78921390137E+02 0.  0.
        254    2    1    2    0    0 -0.38339234582E+03 -0.10247125599E+04 -0.49417235426E+03  0.15210953525E+04  0.93407667479E+03 0.  0.
         23    2    4    4    0    0 -0.95199533209E+02  0.10357098232E+03  0.11597253480E+03  0.20339501342E+03  0.90166530117E+02 0.  0.
         23    2    4    4    0    0 -0.28819281261E+03 -0.11282835423E+04 -0.61014488906E+03  0.13177003391E+04  0.89322723995E+02 0.  0.
          2    1    3    3  502    0  0.13611500781E+03  0.33094600344E+03 -0.22654624185E+03  0.42352774672E+03  0.00000000000E+00 0. -1.
         -1    1    3    3    0  502  0.24727733801E+03  0.69376655650E+03 -0.34355448418E+03  0.81270400541E+03  0.00000000000E+00 0.  1.
         11    1    5    5    0    0 -0.10163391828E+03  0.72589406345E+02  0.11782050122E+03  0.17169841516E+03  0.00000000000E+00 0. -1.
        -11    1    5    5    0    0  0.64343850721E+01  0.30981575979E+02 -0.18479664281E+01  0.31696598261E+02  0.00000000000E+00 0.  1.
          1    1    6    6  503    0 -0.22872241083E+03 -0.99496542951E+03 -0.55174817870E+03  0.11604724037E+04  0.00000000000E+00 0. -1.
         -1    1    6    6    0  503 -0.59470401783E+02 -0.13331811276E+03 -0.58396710362E+02  0.15722793536E+03  0.00000000000E+00 0.  1.
<mgrwt>
<rscale>  0 0.25436540E+04</rscale>
<asrwt>0</asrwt>
<pdfrwt beam="1">  1        2 0.13023493E+00 0.25436540E+04</pdfrwt>
<pdfrwt beam="2">  1       -1 0.29396924E+00 0.25436540E+04</pdfrwt>
<totfact> 0.11688970E+00</totfact>
</mgrwt>
</event>
<event>
12    6  0.1553355E-007  0.1763034E+04  0.7818608E-02  0.8726208E-01
         -1   -1    0    0    0  501 -0.00000000000E+00  0.00000000000E+00  0.79935346984E+03  0.79935346984E+03  0.00000000000E+00 0.  1.
          2   -1    0    0  501    0  0.00000000000E+00 -0.00000000000E+00 -0.97212565867E+03  0.97212565867E+03  0.00000000000E+00 0. -1.
         24    2    1    2    0    0  0.57567662377E+03  0.29191502967E+03 -0.14207749838E+03  0.66568595930E+03  0.79585307428E+02 0.  0.
        254    2    1    2    0    0 -0.57567662377E+03 -0.29191502967E+03 -0.30694690445E+02  0.11057931692E+04  0.89733962877E+03 0.  0.
         23    2    4    4    0    0 -0.10246070014E+03 -0.26182939066E+03  0.37316970827E+03  0.47625093631E+03  0.92230679755E+02 0.  0.
         23    2    4    4    0    0 -0.47321592363E+03 -0.30085639008E+02 -0.40386439871E+03  0.62954223290E+03  0.91534225291E+02 0.  0.
          4    1    3    3  502    0  0.35215513660E+03  0.19976762022E+03 -0.54403912836E+02  0.40850964255E+03  0.00000000000E+00 0. -1.
         -3    1    3    3    0  502  0.22352148717E+03  0.92147409444E+02 -0.87673585547E+02  0.25717631675E+03  0.00000000000E+00 0.  1.
         11    1    5    5    0    0 -0.65912870920E+01  0.31210123826E+00 -0.34722313235E+01  0.74564645158E+01  0.00000000000E+00 0. -1.
        -11    1    5    5    0    0 -0.95869413044E+02 -0.26214149190E+03  0.37664193959E+03  0.46879447180E+03  0.00000000000E+00 0.  1.
          3    1    6    6  503    0 -0.43036408044E+03 -0.26818786673E+02 -0.32584615291E+03  0.54047035480E+03  0.00000000000E+00 0. -1.
         -3    1    6    6    0  503 -0.42851843188E+02 -0.32668523355E+01 -0.78018245806E+02  0.89071878096E+02  0.00000000000E+00 0.  1.
<mgrwt>
<rscale>  0 0.17630338E+04</rscale>
<asrwt>0</asrwt>
<pdfrwt beam="1">  1        2 0.14955779E+00 0.17630338E+04</pdfrwt>
<pdfrwt beam="2">  1       -1 0.12297746E+00 0.17630338E+04</pdfrwt>
<totfact> 0.16534063E+01</totfact>
</mgrwt>
</event>
<event>
12    6  0.1553355E-007  0.2053086E+04  0.7818608E-02  0.8582196E-01
         -1   -1    0    0    0  501 -0.00000000000E+00  0.00000000000E+00  0.10086048752E+04  0.10086048752E+04  0.00000000000E+00 0.  1.
          2   -1    0    0  501    0  0.00000000000E+00 -0.00000000000E+00 -0.10447997947E+04  0.10447997947E+04  0.00000000000E+00 0. -1.
         24    2    1    2    0    0 -0.23278748165E+03 -0.72973273318E+03 -0.32585494265E+03  0.83643871577E+03  0.82148695072E+02 0.  0.
        254    2    1    2    0    0  0.23278748165E+03  0.72973273318E+03  0.28966002312E+03  0.12169659541E+04  0.90022404491E+03 0.  0.
         23    2    4    4    0    0  0.54766956241E+03  0.55267774854E+03  0.76623155809E+02  0.78716125035E+03  0.91417081132E+02 0.  0.
         23    2    4    4    0    0 -0.31488208076E+03  0.17705498463E+03  0.21303686731E+03  0.42980470378E+03  0.94064787168E+02 0.  0.
          2    1    3    3  502    0  0.15716610257E+01 -0.29841345970E+02 -0.66499365289E+00  0.29890103115E+02  0.00000000000E+00 0. -1.
         -1    1    3    3    0  502 -0.23435914268E+03 -0.69989138721E+03 -0.32518994899E+03  0.80654861265E+03  0.00000000000E+00 0.  1.
         11    1    5    5    0    0  0.40832628876E+03  0.40552313514E+03  0.96546905817E+02  0.58352435789E+03  0.00000000000E+00 0. -1.
        -11    1    5    5    0    0  0.13934327365E+03  0.14715461341E+03 -0.19923750008E+02  0.20363689247E+03  0.00000000000E+00 0.  1.
          2    1    6    6  503    0 -0.21423953388E+02  0.29113322083E+02  0.53299116715E+02  0.64400055466E+02  0.00000000000E+00 0.  1.
         -2    1    6    6    0  503 -0.29345812738E+03  0.14794166255E+03  0.15973775060E+03  0.36540464831E+03  0.00000000000E+00 0. -1.
<mgrwt>
<rscale>  0 0.20530856E+04</rscale>
<asrwt>0</asrwt>
<pdfrwt beam="1">  1        2 0.16073843E+00 0.20530856E+04</pdfrwt>
<pdfrwt beam="2">  1       -1 0.15516998E+00 0.20530856E+04</pdfrwt>
<totfact> 0.79178862E+00</totfact>
</mgrwt>
</event>
<event>
12    6  0.1553355E-007  0.2068161E+04  0.7818608E-02  0.8575400E-01
          2   -1    0    0  501    0  0.00000000000E+00  0.00000000000E+00  0.33924164491E+04  0.33924164491E+04  0.00000000000E+00 0. -1.
         -1   -1    0    0    0  501 -0.00000000000E+00 -0.00000000000E+00 -0.31520965501E+03  0.31520965501E+03  0.00000000000E+00 0.  1.
         24    2    1    2    0    0  0.61665820324E+03 -0.15699337472E+03  0.28246857148E+03  0.70093185752E+03  0.81257096191E+02 0.  0.
        254    2    1    2    0    0 -0.61665820324E+03  0.15699337472E+03  0.27947382226E+04  0.30066942466E+04  0.90814883152E+03 0.  0.
         23    2    4    4    0    0  0.32812966554E+02  0.73779575489E+02  0.18469221423E+04  0.18510568627E+04  0.93648239851E+02 0.  0.
         23    2    4    4    0    0 -0.64947116980E+03  0.83213799231E+02  0.94781608037E+03  0.11556373839E+04  0.91679354807E+02 0.  0.
          2    1    3    3  502    0  0.50146891600E+03 -0.12728200016E+03  0.19345263274E+03  0.55235468894E+03  0.00000000000E+00 0. -1.
         -1    1    3    3    0  502  0.11518928724E+03 -0.29711374557E+02  0.89015938743E+02  0.14857716858E+03  0.00000000000E+00 0.  1.
         11    1    5    5    0    0  0.65005249979E+02  0.38534257396E+02  0.11985827037E+04  0.12009625594E+04  0.00000000000E+00 0. -1.
        -11    1    5    5    0    0 -0.32192283425E+02  0.35245318093E+02  0.64833943861E+03  0.65009430332E+03  0.00000000000E+00 0.  1.
          2    1    6    6  503    0 -0.52135271627E+03  0.99668369310E+02  0.78892866079E+03  0.95086848219E+03  0.00000000000E+00 0. -1.
         -2    1    6    6    0  503 -0.12811845353E+03 -0.16454570079E+02  0.15888741958E+03  0.20476890172E+03  0.00000000000E+00 0.  1.
<mgrwt>
<rscale>  0 0.20681609E+04</rscale>
<asrwt>0</asrwt>
<pdfrwt beam="1">  1        2 0.52191019E+00 0.20681609E+04</pdfrwt>
<pdfrwt beam="2">  1       -1 0.48493796E-01 0.20681609E+04</pdfrwt>
<totfact> 0.43340027E+00</totfact>
</mgrwt>
</event>
<event>
12    6  0.1553355E-007  0.3853823E+04  0.7818608E-02  0.8034702E-01
         -1   -1    0    0    0  501 -0.00000000000E+00  0.00000000000E+00  0.34204721962E+04  0.34204721962E+04  0.00000000000E+00 0.  1.
          2   -1    0    0  501    0  0.00000000000E+00 -0.00000000000E+00 -0.10855191066E+04  0.10855191066E+04  0.00000000000E+00 0. -1.
         24    2    1    2    0    0 -0.12003394449E+04 -0.12282279500E+04  0.38108460603E+03  0.17610199127E+04  0.81283306777E+02 0.  0.
        254    2    1    2    0    0  0.12003394449E+04  0.12282279500E+04  0.19538684836E+04  0.27449713901E+04  0.87630314467E+03 0.  0.
         23    2    4    4    0    0  0.35417320936E+03  0.11973326372E+02  0.74648842441E+03  0.83148042721E+03  0.92372670719E+02 0.  0.
         23    2    4    4    0    0  0.84616623550E+03  0.12162546236E+04  0.12073800592E+04  0.19134909629E+04  0.91697602062E+02 0.  0.
          4    1    3    3  502    0 -0.96044321805E+03 -0.98989281816E+03  0.33852801352E+03  0.14201901924E+04  0.00000000000E+00 0. -1.
         -3    1    3    3    0  502 -0.23989622680E+03 -0.23833513182E+03  0.42556592511E+02  0.34082972033E+03  0.00000000000E+00 0.  1.
         11    1    5    5    0    0  0.16628527345E+03  0.42013485822E+02  0.41874978641E+03  0.45251221948E+03  0.00000000000E+00 0.  1.
        -11    1    5    5    0    0  0.18788793591E+03 -0.30040159450E+02  0.32773863799E+03  0.37896820773E+03  0.00000000000E+00 0. -1.
          3    1    6    6  503    0  0.13861014229E+03  0.15715037114E+03  0.14418972094E+03  0.25436133024E+03  0.00000000000E+00 0. -1.
         -3    1    6    6    0  503  0.70755609320E+03  0.10591042525E+04  0.10631903382E+04  0.16591296327E+04  0.00000000000E+00 0.  1.
<mgrwt>
<rscale>  0 0.38538230E+04</rscale>
<asrwt>0</asrwt>
<pdfrwt beam="1">  1        2 0.16700294E+00 0.38538230E+04</pdfrwt>
<pdfrwt beam="2">  1       -1 0.52622649E+00 0.38538230E+04</pdfrwt>
<totfact> 0.20713878E-02</totfact>
</mgrwt>
</event>
<event>
12    6  0.1553355E-007  0.1616423E+04  0.7818608E-02  0.8810522E-01
          2   -1    0    0  501    0  0.00000000000E+00  0.00000000000E+00  0.10818356770E+04  0.10818356770E+04  0.00000000000E+00 0. -1.
         -1   -1    0    0    0  501 -0.00000000000E+00 -0.00000000000E+00 -0.60379359827E+03  0.60379359827E+03  0.00000000000E+00 0.  1.
         24    2    1    2    0    0  0.12165955338E+03 -0.23861621124E+03 -0.38052845236E+03  0.47328541096E+03  0.86362225393E+02 0.  0.
        254    2    1    2    0    0 -0.12165955338E+03  0.23861621124E+03  0.85857053106E+03  0.12123438643E+04  0.81295482364E+03 0.  0.
         23    2    4    4    0    0  0.54664495647E+01  0.73751416657E+02 -0.14493213528E+03  0.18342236751E+03  0.84671645417E+02 0.  0.
         23    2    4    4    0    0 -0.12712600294E+03  0.16486479458E+03  0.10035026663E+04  0.10289214968E+04  0.91216358477E+02 0.  0.
          4    1    3    3  502    0  0.21680707883E+02 -0.45359028770E+02 -0.24246330205E+02  0.55815581280E+02  0.00000000000E+00 0. -1.
         -3    1    3    3    0  502  0.99978845495E+02 -0.19325718247E+03 -0.35628212216E+03  0.41746982968E+03  0.00000000000E+00 0.  1.
         11    1    5    5    0    0  0.39211600667E+01  0.91756296396E+02 -0.13349708146E+03  0.16203723086E+03  0.00000000000E+00 0. -1.
        -11    1    5    5    0    0  0.15452894980E+01 -0.18004879739E+02 -0.11435053819E+02  0.21385136658E+02  0.00000000000E+00 0.  1.
          2    1    6    6  503    0 -0.44207517834E+02  0.66873165296E+02  0.20411036747E+03  0.21928831929E+03  0.00000000000E+00 0.  1.
         -2    1    6    6    0  503 -0.82918485109E+02  0.97991629283E+02  0.79939229888E+03  0.80963317749E+03  0.00000000000E+00 0. -1.
<mgrwt>
<rscale>  0 0.16164225E+04</rscale>
<asrwt>0</asrwt>
<pdfrwt beam="1">  1        2 0.16643626E+00 0.16164225E+04</pdfrwt>
<pdfrwt beam="2">  1       -1 0.92891323E-01 0.16164225E+04</pdfrwt>
<totfact> 0.27507786E+01</totfact>
</mgrwt>
</event>
<event>
12    6  0.1553355E-007  0.2508770E+04  0.7818608E-02  0.8399868E-01
          2   -1    0    0  501    0  0.00000000000E+00  0.00000000000E+00  0.16611262318E+04  0.16611262318E+04  0.00000000000E+00 0. -1.
         -1   -1    0    0    0  501 -0.00000000000E+00 -0.00000000000E+00 -0.94723758175E+03  0.94723758175E+03  0.00000000000E+00 0.  1.
         24    2    1    2    0    0  0.74790457999E+03  0.41614901344E+03  0.10098798480E+04  0.13263385477E+04  0.82312657032E+02 0.  0.
        254    2    1    2    0    0 -0.74790457999E+03 -0.41614901344E+03 -0.29599119789E+03  0.12820252659E+04  0.90743414696E+03 0.  0.
         23    2    4    4    0    0 -0.28614563103E+03 -0.99789076779E+02  0.31631787486E+03  0.44740430862E+03  0.90974916408E+02 0.  0.
         23    2    4    4    0    0 -0.46175894896E+03 -0.31635993666E+03 -0.61230907275E+03  0.83462095730E+03  0.91459309661E+02 0.  0.
          4    1    3    3  502    0  0.30100573802E+03  0.21017516661E+03  0.45677986309E+03  0.58602550995E+03  0.00000000000E+00 0. -1.
         -3    1    3    3    0  502  0.44689884198E+03  0.20597384683E+03  0.55309998487E+03  0.74031303771E+03  0.00000000000E+00 0.  1.
         11    1    5    5    0    0 -0.12140517084E+03 -0.77331196171E+02  0.19118136353E+03  0.23931076693E+03  0.00000000000E+00 0.  1.
        -11    1    5    5    0    0 -0.16474046019E+03 -0.22457880608E+02  0.12513651132E+03  0.20809354169E+03  0.00000000000E+00 0. -1.
          1    1    6    6  503    0 -0.37800093620E+03 -0.29780263173E+03 -0.51262938271E+03  0.70310738813E+03  0.00000000000E+00 0. -1.
         -1    1    6    6    0  503 -0.83758012769E+02 -0.18557304933E+02 -0.99679690040E+02  0.13151356917E+03  0.00000000000E+00 0.  1.
<mgrwt>
<rscale>  0 0.25087696E+04</rscale>
<asrwt>0</asrwt>
<pdfrwt beam="1">  1        2 0.25555788E+00 0.25087696E+04</pdfrwt>
<pdfrwt beam="2">  1       -1 0.14572886E+00 0.25087696E+04</pdfrwt>
<totfact> 0.39438957E+00</totfact>
</mgrwt>
</event>
<event>
12    6  0.1553355E-007  0.3465586E+04  0.7818608E-02  0.8121994E-01
         -1   -1    0    0    0  501 -0.00000000000E+00  0.00000000000E+00  0.17281101838E+04  0.17281101838E+04  0.00000000000E+00 0.  1.
          2   -1    0    0  501    0  0.00000000000E+00 -0.00000000000E+00 -0.17374886371E+04  0.17374886371E+04  0.00000000000E+00 0. -1.
         24    2    1    2    0    0  0.12098166633E+04  0.93296259532E+03 -0.53208018840E+03  0.16197351930E+04  0.79732086183E+02 0.  0.
        254    2    1    2    0    0 -0.12098166633E+04 -0.93296259532E+03  0.52270173517E+03  0.18458636279E+04  0.89438239338E+03 0.  0.
         23    2    4    4    0    0 -0.34407173354E+03 -0.68632038769E+03 -0.49899263750E+02  0.77470427925E+03  0.90861165442E+02 0.  0.
         23    2    4    4    0    0 -0.86574492979E+03 -0.24664220764E+03  0.57260099892E+03  0.10711593486E+04  0.95727656036E+02 0.  0.
          4    1    3    3  502    0  0.94062579425E+03  0.68926857104E+03 -0.42495478449E+03  0.12411505214E+04  0.00000000000E+00 0. -1.
         -3    1    3    3    0  502  0.26919086907E+03  0.24369402428E+03 -0.10712540391E+03  0.37858467167E+03  0.00000000000E+00 0.  1.
         11    1    5    5    0    0 -0.28535212954E+02 -0.17623164167E+02  0.96235717310E+00  0.33552353493E+02  0.00000000000E+00 0. -1.
        -11    1    5    5    0    0 -0.31553652059E+03 -0.66869722352E+03 -0.50861620923E+02  0.74115192575E+03  0.00000000000E+00 0.  1.
          2    1    6    6  503    0 -0.10684428587E+03 -0.63722026962E+02  0.87137521527E+02  0.15188530476E+03  0.00000000000E+00 0. -1.
         -2    1    6    6    0  503 -0.75890064392E+03 -0.18292018067E+03  0.48546347739E+03  0.91927404386E+03  0.00000000000E+00 0.  1.
<mgrwt>
<rscale>  0 0.34655861E+04</rscale>
<asrwt>0</asrwt>
<pdfrwt beam="1">  1        2 0.26730594E+00 0.34655861E+04</pdfrwt>
<pdfrwt beam="2">  1       -1 0.26586311E+00 0.34655861E+04</pdfrwt>
<totfact> 0.48177775E-01</totfact>
</mgrwt>
</event>
<event>
12    6  0.1553355E-007  0.1154972E+04  0.7818608E-02  0.9153209E-01
         -1   -1    0    0    0  501 -0.00000000000E+00  0.00000000000E+00  0.27389104318E+03  0.27389104318E+03  0.00000000000E+00 0.  1.
          2   -1    0    0  501    0  0.00000000000E+00 -0.00000000000E+00 -0.12176019986E+04  0.12176019986E+04  0.00000000000E+00 0. -1.
         24    2    1    2    0    0 -0.15696975820E+03  0.68965530430E+02 -0.20079208088E+02  0.19013806480E+03  0.79709219744E+02 0.  0.
        254    2    1    2    0    0  0.15696975820E+03 -0.68965530430E+02 -0.92363174738E+03  0.13013549770E+04  0.90057394038E+03 0.  0.
         23    2    4    4    0    0 -0.33429957000E+03 -0.88426857049E+02 -0.16644832819E+03  0.39432959793E+03  0.90638150306E+02 0.  0.
         23    2    4    4    0    0  0.49126932821E+03  0.19461326618E+02 -0.75718341919E+03  0.90702537910E+03  0.87430040408E+02 0.  0.
          2    1    3    3  502    0 -0.96008928378E+02  0.79092810635E+02 -0.28927906199E+02  0.12771143559E+03  0.00000000000E+00 0. -1.
         -3    1    3    3    0  502 -0.60960829826E+02 -0.10127280204E+02  0.88486981107E+01  0.62426629219E+02  0.00000000000E+00 0.  1.
         11    1    5    5    0    0 -0.30472399416E+03 -0.63217285355E+02 -0.11945846353E+03  0.33335185959E+03  0.00000000000E+00 0. -1.
        -11    1    5    5    0    0 -0.29575575843E+02 -0.25209571694E+02 -0.46989864660E+02  0.60977738333E+02  0.00000000000E+00 0.  1.
          3    1    6    6  503    0  0.47827722798E+03  0.53787447788E+01 -0.74090711832E+03  0.88188513746E+03  0.00000000000E+00 0. -1.
         -3    1    6    6    0  503  0.12992100228E+02  0.14082581840E+02 -0.16276300864E+02  0.25140241634E+02  0.00000000000E+00 0.  1.
<mgrwt>
<rscale>  0 0.11549723E+04</rscale>
<asrwt>0</asrwt>
<pdfrwt beam="1">  1        2 0.18732338E+00 0.11549723E+04</pdfrwt>
<pdfrwt beam="2">  1       -1 0.42137084E-01 0.11549723E+04</pdfrwt>
<totfact> 0.11534234E+02</totfact>
</mgrwt>
</event>
<event>
12    6  0.1553355E-007  0.2533874E+04  0.7818608E-02  0.8391016E-01
          2   -1    0    0  501    0  0.00000000000E+00  0.00000000000E+00  0.32851566194E+04  0.32851566194E+04  0.00000000000E+00 0. -1.
         -1   -1    0    0    0  501 -0.00000000000E+00 -0.00000000000E+00 -0.48860072987E+03  0.48860072987E+03  0.00000000000E+00 0.  1.
         24    2    1    2    0    0 -0.52049829761E+03  0.87897294203E+03  0.18059349735E+04  0.20764694279E+04  0.82536330327E+02 0.  0.
        254    2    1    2    0    0  0.52049829761E+03 -0.87897294203E+03  0.99062091603E+03  0.16972879214E+04  0.92517272881E+03 0.  0.
         23    2    4    4    0    0  0.45865329361E+03 -0.22231932916E+03  0.18056686002E+02  0.51864238158E+03  0.94208005010E+02 0.  0.
         23    2    4    4    0    0  0.61845003994E+02 -0.65665361287E+03  0.97256423003E+03  0.11786455398E+04  0.91133721060E+02 0.  0.
          4    1    3    3  502    0 -0.50520934423E+03  0.81852029626E+03  0.16777602896E+04  0.19339316291E+04  0.00000000000E+00 0. -1.
         -3    1    3    3    0  502 -0.15288953376E+02  0.60452645769E+02  0.12817468387E+03  0.14253779871E+03  0.00000000000E+00 0.  1.
         11    1    5    5    0    0  0.37370235144E+03 -0.17488275820E+03 -0.22542659120E+02  0.41321374381E+03  0.00000000000E+00 0. -1.
        -11    1    5    5    0    0  0.84950942170E+02 -0.47436570955E+02  0.40599345122E+02  0.10542863778E+03  0.00000000000E+00 0.  1.
          3    1    6    6  503    0  0.62896873386E+02 -0.45760688463E+03  0.74220616028E+03  0.87420252910E+03  0.00000000000E+00 0. -1.
         -3    1    6    6    0  503 -0.10518693924E+01 -0.19904672825E+03  0.23035806975E+03  0.30444301068E+03  0.00000000000E+00 0.  1.
<mgrwt>
<rscale>  0 0.25338744E+04</rscale>
<asrwt>0</asrwt>
<pdfrwt beam="1">  1        2 0.50540870E+00 0.25338744E+04</pdfrwt>
<pdfrwt beam="2">  1       -1 0.75169345E-01 0.25338744E+04</pdfrwt>
<totfact> 0.20519391E+00</totfact>
</mgrwt>
</event>
<event>
12    6  0.1553355E-007  0.1770787E+04  0.7818608E-02  0.8721991E-01
          2   -1    0    0  501    0  0.00000000000E+00  0.00000000000E+00  0.18123949148E+04  0.18123949148E+04  0.00000000000E+00 0. -1.
         -1   -1    0    0    0  501 -0.00000000000E+00 -0.00000000000E+00 -0.43253357167E+03  0.43253357167E+03  0.00000000000E+00 0.  1.
         24    2    1    2    0    0 -0.22239674973E+03 -0.18915583757E+03 -0.22691727590E+03  0.37826058731E+03  0.79682975816E+02 0.  0.
        254    2    1    2    0    0  0.22239674973E+03  0.18915583757E+03  0.16067786191E+04  0.18666678992E+04  0.90414117815E+03 0.  0.
         23    2    4    4    0    0  0.16167514409E+03  0.31195006437E+03  0.13758062911E+03  0.38824721096E+03  0.91409914333E+02 0.  0.
         23    2    4    4    0    0  0.60721605645E+02 -0.12279422680E+03  0.14691979899E+04  0.14784206882E+04  0.91757627384E+02 0.  0.
          2    1    3    3  502    0 -0.70442592223E+02 -0.27836580555E+02 -0.28911924145E+02  0.81073629337E+02  0.00000000000E+00 0. -1.
         -1    1    3    3    0  502 -0.15195415751E+03 -0.16131925701E+03 -0.19800535175E+03  0.29718695797E+03  0.00000000000E+00 0.  1.
         11    1    5    5    0    0  0.39143784503E+02  0.49866463228E+02 -0.88143832402E+01  0.64004635551E+02  0.00000000000E+00 0.  1.
        -11    1    5    5    0    0  0.12253135958E+03  0.26208360114E+03  0.14639501235E+03  0.32424257541E+03  0.00000000000E+00 0. -1.
          1    1    6    6  503    0  0.81536864669E+02 -0.11764016359E+03  0.12456941702E+04  0.12538905192E+04  0.00000000000E+00 0. -1.
         -1    1    6    6    0  503 -0.20815259024E+02 -0.51540632121E+01  0.22350381972E+03  0.22453016903E+03  0.00000000000E+00 0.  1.
<mgrwt>
<rscale>  0 0.17707870E+04</rscale>
<asrwt>0</asrwt>
<pdfrwt beam="1">  1        2 0.27882998E+00 0.17707870E+04</pdfrwt>
<pdfrwt beam="2">  1       -1 0.66543628E-01 0.17707870E+04</pdfrwt>
<totfact> 0.20945447E+01</totfact>
</mgrwt>
</event>
<event>
12    6  0.1553355E-007  0.1576794E+04  0.7818608E-02  0.8834932E-01
          2   -1    0    0  501    0  0.00000000000E+00  0.00000000000E+00  0.26012364022E+04  0.26012364022E+04  0.00000000000E+00 0. -1.
         -1   -1    0    0    0  501 -0.00000000000E+00 -0.00000000000E+00 -0.23895177262E+03  0.23895177262E+03  0.00000000000E+00 0.  1.
         24    2    1    2    0    0  0.40270210843E+03  0.30828506360E+02  0.18934532034E+03  0.45311232194E+03  0.79622490642E+02 0.  0.
        254    2    1    2    0    0 -0.40270210843E+03 -0.30828506360E+02  0.21729393093E+04  0.23870758529E+04  0.90185725080E+03 0.  0.
         23    2    4    4    0    0  0.20690523137E+03 -0.60095101040E+01  0.12873400256E+04  0.13073134363E+04  0.94753312507E+02 0.  0.
         23    2    4    4    0    0 -0.60960733980E+03 -0.24818996256E+02  0.88559928371E+03  0.10797624166E+04  0.96766181031E+02 0.  0.
          2    1    3    3  502    0  0.12172221862E+03  0.31026190447E+02  0.92174489882E+02  0.15580455572E+03  0.00000000000E+00 0. -1.
         -1    1    3    3    0  502  0.28097988982E+03 -0.19768408743E+00  0.97170830456E+02  0.29730776621E+03  0.00000000000E+00 0.  1.
         11    1    5    5    0    0  0.96203374872E+02 -0.72029453101E+01  0.33668498992E+03  0.35023385643E+03  0.00000000000E+00 0. -1.
        -11    1    5    5    0    0  0.11070185649E+03  0.11934352061E+01  0.95065503565E+03  0.95707957982E+03  0.00000000000E+00 0.  1.
          3    1    6    6  503    0 -0.26534386294E+03  0.23723090964E+02  0.44312293234E+03  0.51703779727E+03  0.00000000000E+00 0. -1.
         -3    1    6    6    0  503 -0.34426347686E+03 -0.48542087220E+02  0.44247635137E+03  0.56272461937E+03  0.00000000000E+00 0.  1.
<mgrwt>
<rscale>  0 0.15767943E+04</rscale>
<asrwt>0</asrwt>
<pdfrwt beam="1">  1        2 0.40019019E+00 0.15767943E+04</pdfrwt>
<pdfrwt beam="2">  1       -1 0.36761813E-01 0.15767943E+04</pdfrwt>
<totfact> 0.23675333E+01</totfact>
</mgrwt>
</event>
<event>
12    6  0.1553355E-007  0.2633786E+04  0.7818608E-02  0.8356815E-01
         -1   -1    0    0    0  501 -0.00000000000E+00  0.00000000000E+00  0.75031436051E+03  0.75031436051E+03  0.00000000000E+00 0.  1.
          2   -1    0    0  501    0  0.00000000000E+00 -0.00000000000E+00 -0.23113077672E+04  0.23113077672E+04  0.00000000000E+00 0. -1.
         24    2    1    2    0    0  0.86823097166E+03  0.44269339322E+03 -0.14204013558E+04  0.17245362479E+04  0.81748382219E+02 0.  0.
        254    2    1    2    0    0 -0.86823097166E+03 -0.44269339322E+03 -0.14059205086E+03  0.13370858798E+04  0.90456070264E+03 0.  0.
         23    2    4    4    0    0 -0.10161767477E+04 -0.38102992711E+03 -0.25658127951E+03  0.11190404989E+04  0.92836939707E+02 0.  0.
         23    2    4    4    0    0  0.14794577600E+03 -0.61663466111E+02  0.11598922865E+03  0.21804538093E+03  0.91651248185E+02 0.  0.
          4    1    3    3  502    0  0.30501164813E+03  0.12644805224E+03 -0.43069887673E+03  0.54269949127E+03  0.00000000000E+00 0. -1.
         -3    1    3    3    0  502  0.56321932353E+03  0.31624534098E+03 -0.98970247911E+03  0.11818367566E+04  0.00000000000E+00 0.  1.
         11    1    5    5    0    0 -0.49179858686E+03 -0.14963214549E+03 -0.15523087923E+03  0.53698440840E+03  0.00000000000E+00 0. -1.
        -11    1    5    5    0    0 -0.52437816080E+03 -0.23139778162E+03 -0.10135040028E+03  0.58205609051E+03  0.00000000000E+00 0.  1.
          2    1    6    6  503    0  0.21280867456E+02  0.23195778758E+02  0.13005568728E+02  0.34059716526E+02  0.00000000000E+00 0. -1.
         -2    1    6    6    0  503  0.12666490854E+03 -0.84859244869E+02  0.10298365993E+03  0.18398566441E+03  0.00000000000E+00 0.  1.
<mgrwt>
<rscale>  0 0.26337862E+04</rscale>
<asrwt>0</asrwt>
<pdfrwt beam="1">  1        2 0.35558580E+00 0.26337862E+04</pdfrwt>
<pdfrwt beam="2">  1       -1 0.11543298E+00 0.26337862E+04</pdfrwt>
<totfact> 0.30477981E+00</totfact>
</mgrwt>
</event>
<event>
12    6  0.1553355E-007  0.1511920E+04  0.7818608E-02  0.8876565E-01
          2   -1    0    0  501    0  0.00000000000E+00  0.00000000000E+00  0.76238563996E+03  0.76238563996E+03  0.00000000000E+00 0. -1.
         -1   -1    0    0    0  501 -0.00000000000E+00 -0.00000000000E+00 -0.74958851074E+03  0.74958851074E+03  0.00000000000E+00 0.  1.
         24    2    1    2    0    0 -0.31927345311E+03  0.11892058445E+03  0.34650100983E+03  0.49270412348E+03  0.81343470640E+02 0.  0.
        254    2    1    2    0    0  0.31927345311E+03 -0.11892058445E+03 -0.33370388061E+03  0.10192700272E+04  0.90081932993E+03 0.  0.
         23    2    4    4    0    0  0.31142261834E+03  0.30943078662E+03  0.30588428576E+02  0.44912763959E+03  0.89713576229E+02 0.  0.
         23    2    4    4    0    0  0.78508347758E+01 -0.42835137107E+03 -0.36429230918E+03  0.57014238763E+03  0.93845207310E+02 0.  0.
          2    1    3    3  502    0 -0.28998773111E+03  0.92863401725E+02  0.33304301255E+03  0.45125840023E+03  0.00000000000E+00 0. -1.
         -1    1    3    3    0  502 -0.29285722005E+02  0.26057182723E+02  0.13457997278E+02  0.41445723248E+02  0.00000000000E+00 0.  1.
         11    1    5    5    0    0  0.19147193516E+03  0.14106245961E+03  0.44427788796E+02  0.24193790089E+03  0.00000000000E+00 0.  1.
        -11    1    5    5    0    0  0.11995068317E+03  0.16836832701E+03 -0.13839360219E+02  0.20718973870E+03  0.00000000000E+00 0. -1.
          4    1    6    6  503    0  0.43937383335E+02 -0.11582726679E+03 -0.97481510152E+02  0.15763595468E+03  0.00000000000E+00 0. -1.
         -4    1    6    6    0  503 -0.36086548560E+02 -0.31252410428E+03 -0.26681079903E+03  0.41250643295E+03  0.00000000000E+00 0.  1.
<mgrwt>
<rscale>  0 0.15119200E+04</rscale>
<asrwt>0</asrwt>
<pdfrwt beam="1">  1        2 0.11729010E+00 0.15119200E+04</pdfrwt>
<pdfrwt beam="2">  1       -1 0.11532131E+00 0.15119200E+04</pdfrwt>
<totfact> 0.27596491E+01</totfact>
</mgrwt>
</event>
<event>
12    6  0.1553355E-007  0.2331903E+04  0.7818608E-02  0.8465447E-01
         -1   -1    0    0    0  501 -0.00000000000E+00  0.00000000000E+00  0.81972158655E+03  0.81972158655E+03  0.00000000000E+00 0.  1.
          2   -1    0    0  501    0  0.00000000000E+00 -0.00000000000E+00 -0.16584206002E+04  0.16584206002E+04  0.00000000000E+00 0. -1.
         24    2    1    2    0    0  0.78767749001E+03 -0.48525538327E+03 -0.72880471370E+03  0.11803632940E+04  0.78692946671E+02 0.  0.
        254    2    1    2    0    0 -0.78767749001E+03  0.48525538327E+03 -0.10989429993E+03  0.12977788927E+04  0.90346260684E+03 0.  0.
         23    2    4    4    0    0 -0.49500522906E+03  0.71693933222E+03  0.58473013783E+02  0.87784307908E+03  0.90317192526E+02 0.  0.
         23    2    4    4    0    0 -0.29267226095E+03 -0.23168394895E+03 -0.16836731371E+03  0.41993581363E+03  0.93080775235E+02 0.  0.
          4    1    3    3  502    0  0.48774247254E+03 -0.31084863195E+03 -0.40779558608E+03  0.70768413259E+03  0.00000000000E+00 0. -1.
         -3    1    3    3    0  502  0.29993501747E+03 -0.17440675132E+03 -0.32100912762E+03  0.47267916141E+03  0.00000000000E+00 0.  1.
         11    1    5    5    0    0 -0.21597552065E+03  0.26735549812E+03  0.58934050227E+02  0.34870848881E+03  0.00000000000E+00 0.  1.
        -11    1    5    5    0    0 -0.27902970841E+03  0.44958383411E+03 -0.46103644437E+00  0.52913459027E+03  0.00000000000E+00 0. -1.
          4    1    6    6  503    0 -0.24094146620E+03 -0.18264469956E+03 -0.93287814343E+02  0.31640874311E+03  0.00000000000E+00 0. -1.
         -4    1    6    6    0  503 -0.51730794745E+02 -0.49039249388E+02 -0.75079499368E+02  0.10352707052E+03  0.00000000000E+00 0.  1.
<mgrwt>
<rscale>  0 0.23319032E+04</rscale>
<asrwt>0</asrwt>
<pdfrwt beam="1">  1        2 0.25514163E+00 0.23319032E+04</pdfrwt>
<pdfrwt beam="2">  1       -1 0.12611101E+00 0.23319032E+04</pdfrwt>
<totfact> 0.58308103E+00</totfact>
</mgrwt>
</event>
<event>
12    6  0.1553355E-007  0.1974157E+04  0.7818608E-02  0.8618799E-01
         -1   -1    0    0    0  501 -0.00000000000E+00  0.00000000000E+00  0.71037708465E+03  0.71037708465E+03  0.00000000000E+00 0.  1.
          2   -1    0    0  501    0  0.00000000000E+00 -0.00000000000E+00 -0.13715588914E+04  0.13715588914E+04  0.00000000000E+00 0. -1.
         24    2    1    2    0    0 -0.32158612647E+03  0.18112822700E+03 -0.89475402986E+03  0.97110889053E+03  0.79010328208E+02 0.  0.
        254    2    1    2    0    0  0.32158612647E+03 -0.18112822700E+03  0.23357222307E+03  0.11108270856E+04  0.10213499691E+04 0.  0.
         23    2    4    4    0    0  0.67280173762E+03 -0.13059892733E+03  0.30394344036E+02  0.69229310892E+03  0.92885276221E+02 0.  0.
         23    2    4    4    0    0 -0.35121561115E+03 -0.50529299673E+02  0.20317787903E+03  0.41853397665E+03  0.89352243609E+02 0.  0.
          2    1    3    3  502    0 -0.18241712439E+03  0.11826576858E+03 -0.61644978517E+03  0.65366133198E+03  0.00000000000E+00 0. -1.
         -1    1    3    3    0  502 -0.13916900208E+03  0.62862458416E+02 -0.27830424469E+03  0.31744755855E+03  0.00000000000E+00 0.  1.
         11    1    5    5    0    0  0.19478524322E+03 -0.29292455302E+02  0.50153439366E+02  0.20326019383E+03  0.00000000000E+00 0.  1.
        -11    1    5    5    0    0  0.47801649440E+03 -0.10130647203E+03 -0.19759095330E+02  0.48903291509E+03  0.00000000000E+00 0. -1.
          2    1    6    6  503    0 -0.23227925661E+03 -0.21102328117E+02  0.17812834160E+03  0.29347686005E+03  0.00000000000E+00 0. -1.
         -2    1    6    6    0  503 -0.11893635454E+03 -0.29426971555E+02  0.25049537435E+02  0.12505711660E+03  0.00000000000E+00 0.  1.
<mgrwt>
<rscale>  0 0.19741570E+04</rscale>
<asrwt>0</asrwt>
<pdfrwt beam="1">  1        2 0.21100906E+00 0.19741570E+04</pdfrwt>
<pdfrwt beam="2">  1       -1 0.10928878E+00 0.19741570E+04</pdfrwt>
<totfact> 0.12356154E+01</totfact>
</mgrwt>
</event>
<event>
12    6  0.1553355E-007  0.1377728E+04  0.7818608E-02  0.8970100E-01
         -1   -1    0    0    0  501 -0.00000000000E+00  0.00000000000E+00  0.50432903975E+03  0.50432903975E+03  0.00000000000E+00 0.  1.
          2   -1    0    0  501    0  0.00000000000E+00 -0.00000000000E+00 -0.94092006707E+03  0.94092006707E+03  0.00000000000E+00 0. -1.
         24    2    1    2    0    0 -0.27296475993E+03 -0.45952362141E+02 -0.41691432240E+03  0.50680801308E+03  0.80096380383E+02 0.  0.
        254    2    1    2    0    0  0.27296475993E+03  0.45952362141E+02 -0.19676704915E+02  0.93844109374E+03  0.89647260636E+03 0.  0.
         23    2    4    4    0    0 -0.14982043087E+03  0.19694506272E+03  0.28670523226E+03  0.38721009763E+03  0.80611725384E+02 0.  0.
         23    2    4    4    0    0  0.42278519080E+03 -0.15099270057E+03 -0.30638193717E+03  0.55123099611E+03  0.91867330764E+02 0.  0.
          2    1    3    3  502    0 -0.25236973865E+03 -0.59849747892E+02 -0.35150487659E+03  0.43683882105E+03  0.00000000000E+00 0. -1.
         -3    1    3    3    0  502 -0.20595021275E+02  0.13897385751E+02 -0.65409445807E+02  0.69969192026E+02  0.00000000000E+00 0.  1.
         11    1    5    5    0    0  0.93555087938E+01  0.11318557122E+02  0.25367962931E+02  0.29311581728E+02  0.00000000000E+00 0.  1.
        -11    1    5    5    0    0 -0.15917593966E+03  0.18562650559E+03  0.26133726933E+03  0.35789851590E+03  0.00000000000E+00 0. -1.
          1    1    6    6  503    0  0.22364249051E+03 -0.87460042237E+02 -0.21783599871E+03  0.32421866831E+03  0.00000000000E+00 0. -1.
         -1    1    6    6    0  503  0.19914270029E+03 -0.63532658337E+02 -0.88545938467E+02  0.22701232780E+03  0.00000000000E+00 0.  1.
<mgrwt>
<rscale>  0 0.13777276E+04</rscale>
<asrwt>0</asrwt>
<pdfrwt beam="1">  1        2 0.14475693E+00 0.13777276E+04</pdfrwt>
<pdfrwt beam="2">  1       -1 0.77589083E-01 0.13777276E+04</pdfrwt>
<totfact> 0.50989475E+01</totfact>
</mgrwt>
</event>
<event>
12    6  0.1553355E-007  0.2411385E+04  0.7818608E-02  0.8435254E-01
         -1   -1    0    0    0  501 -0.00000000000E+00  0.00000000000E+00  0.16108625048E+04  0.16108625048E+04  0.00000000000E+00 0.  1.
          2   -1    0    0  501    0  0.00000000000E+00 -0.00000000000E+00 -0.90243198701E+03  0.90243198701E+03  0.00000000000E+00 0. -1.
         24    2    1    2    0    0  0.87992675997E+03 -0.26220577026E+03  0.83668660429E+03  0.12446790614E+04  0.78476259218E+02 0.  0.
        254    2    1    2    0    0 -0.87992675997E+03  0.26220577026E+03 -0.12825608652E+03  0.12686154304E+04  0.86597489431E+03 0.  0.
         23    2    4    4    0    0 -0.37616294248E+03  0.47527624641E+03 -0.30750062716E+03  0.68583342581E+03  0.91786614278E+02 0.  0.
         23    2    4    4    0    0 -0.50376381749E+03 -0.21307047615E+03  0.17924454063E+03  0.58278200456E+03  0.91264713201E+02 0.  0.
          2    1    3    3  502    0  0.55774172049E+02 -0.95084089500E+01  0.77849946829E+02  0.96238154231E+02  0.00000000000E+00 0. -1.
         -1    1    3    3    0  502  0.82415258792E+03 -0.25269736131E+03  0.75883665746E+03  0.11484409072E+04  0.00000000000E+00 0.  1.
         11    1    5    5    0    0 -0.37923358487E+03  0.46813282698E+03 -0.29428446763E+03  0.67049966702E+03  0.00000000000E+00 0.  1.
        -11    1    5    5    0    0  0.30706423902E+01  0.71434194212E+01 -0.13216159528E+02  0.15333758782E+02  0.00000000000E+00 0. -1.
          4    1    6    6  503    0  0.26496685052E+01  0.11770663458E+01  0.53249941439E+01  0.60631502540E+01  0.00000000000E+00 0. -1.
         -4    1    6    6    0  503 -0.50641348600E+03 -0.21424754249E+03  0.17391954649E+03  0.57671885431E+03  0.00000000000E+00 0.  1.
<mgrwt>
<rscale>  0 0.24113845E+04</rscale>
<asrwt>0</asrwt>
<pdfrwt beam="1">  1        2 0.13883569E+00 0.24113845E+04</pdfrwt>
<pdfrwt beam="2">  1       -1 0.24782500E+00 0.24113845E+04</pdfrwt>
<totfact> 0.21559235E+00</totfact>
</mgrwt>
</event>
<event>
12    6  0.1553355E-007  0.1727720E+04  0.7818608E-02  0.8745711E-01
         -1   -1    0    0    0  501 -0.00000000000E+00  0.00000000000E+00  0.45928328711E+03  0.45928328711E+03  0.00000000000E+00 0.  1.
          2   -1    0    0  501    0  0.00000000000E+00 -0.00000000000E+00 -0.16248227827E+04  0.16248227827E+04  0.00000000000E+00 0. -1.
         24    2    1    2    0    0  0.23702389518E+03 -0.42777583260E+03 -0.83965228162E+03  0.97499426372E+03  0.80158408237E+02 0.  0.
        254    2    1    2    0    0 -0.23702389518E+03  0.42777583260E+03 -0.32588721393E+03  0.11091118060E+04  0.94061364665E+03 0.  0.
         23    2    4    4    0    0 -0.43892838445E+03 -0.12407740466E+03 -0.11877905609E+03  0.47929669658E+03  0.86968558493E+02 0.  0.
         23    2    4    4    0    0  0.20190448927E+03  0.55185323726E+03 -0.20710815784E+03  0.62981510946E+03  0.92010134203E+02 0.  0.
          4    1    3    3  502    0  0.19907784478E+03 -0.34656998156E+03 -0.73944201909E+03  0.84054579887E+03  0.00000000000E+00 0. -1.
         -3    1    3    3    0  502  0.37946050403E+02 -0.81205851042E+02 -0.10021026254E+03  0.13444846486E+03  0.00000000000E+00 0.  1.
         11    1    5    5    0    0 -0.37708427453E+03 -0.13342960901E+03 -0.87886690920E+02  0.40953642219E+03  0.00000000000E+00 0. -1.
        -11    1    5    5    0    0 -0.61844109917E+02  0.93522043458E+01 -0.30892365167E+02  0.69760274391E+02  0.00000000000E+00 0.  1.
          3    1    6    6  503    0  0.14884971025E+03  0.42178091604E+03 -0.19771157751E+03  0.48902479002E+03  0.00000000000E+00 0. -1.
         -3    1    6    6    0  503  0.53054779021E+02  0.13007232123E+03 -0.93965803332E+01  0.14079031944E+03  0.00000000000E+00 0.  1.
<mgrwt>
<rscale>  0 0.17277198E+04</rscale>
<asrwt>0</asrwt>
<pdfrwt beam="1">  1        2 0.24997273E+00 0.17277198E+04</pdfrwt>
<pdfrwt beam="2">  1       -1 0.70658968E-01 0.17277198E+04</pdfrwt>
<totfact> 0.23644139E+01</totfact>
</mgrwt>
</event>
<event>
12    6  0.1553355E-007  0.1086497E+04  0.7818608E-02  0.9218454E-01
          2   -1    0    0  501    0  0.00000000000E+00  0.00000000000E+00  0.13069837600E+04  0.13069837600E+04  0.00000000000E+00 0. -1.
         -1   -1    0    0    0  501 -0.00000000000E+00 -0.00000000000E+00 -0.22580156123E+03  0.22580156123E+03  0.00000000000E+00 0.  1.
         24    2    1    2    0    0 -0.30868873270E+02 -0.15811628346E+03  0.16876838731E+03  0.24195774740E+03  0.64086945143E+02 0.  0.
        254    2    1    2    0    0  0.30868873270E+02  0.15811628346E+03  0.91241381144E+03  0.12908275738E+04  0.89876760932E+03 0.  0.
         23    2    4    4    0    0  0.20975769058E+02  0.52347234060E+03  0.46887240906E+03  0.70874800659E+03  0.89549576204E+02 0.  0.
         23    2    4    4    0    0  0.98931042119E+01 -0.36535605714E+03  0.44354140238E+03  0.58207956722E+03  0.92221065677E+02 0.  0.
          4    1    3    3  502    0 -0.24967707392E+02 -0.47142946401E+02  0.93787814298E+02  0.10789809043E+03  0.00000000000E+00 0. -1.
         -3    1    3    3    0  502 -0.59011658780E+01 -0.11097333706E+03  0.74980573016E+02  0.13405965697E+03  0.00000000000E+00 0.  1.
         11    1    5    5    0    0 -0.89262594589E+01  0.88318926320E+02  0.12503238696E+03  0.15333952081E+03  0.00000000000E+00 0.  1.
        -11    1    5    5    0    0  0.29902028517E+02  0.43515341428E+03  0.34384002210E+03  0.55540848578E+03  0.00000000000E+00 0. -1.
          3    1    6    6  503    0 -0.31204471554E+02 -0.24081611189E+03  0.32178609047E+03  0.40312827587E+03  0.00000000000E+00 0. -1.
         -3    1    6    6    0  503  0.41097575766E+02 -0.12453994525E+03  0.12175531191E+03  0.17895129135E+03  0.00000000000E+00 0.  1.
<mgrwt>
<rscale>  0 0.10864971E+04</rscale>
<asrwt>0</asrwt>
<pdfrwt beam="1">  1        2 0.20107442E+00 0.10864971E+04</pdfrwt>
<pdfrwt beam="2">  1       -1 0.34738703E-01 0.10864971E+04</pdfrwt>
<totfact> 0.14571280E+02</totfact>
</mgrwt>
</event>
<event>
12    6  0.1553355E-007  0.1360031E+04  0.7818608E-02  0.8983270E-01
         -1   -1    0    0    0  501 -0.00000000000E+00  0.00000000000E+00  0.17686404319E+03  0.17686404319E+03  0.00000000000E+00 0.  1.
          2   -1    0    0  501    0  0.00000000000E+00 -0.00000000000E+00 -0.26145549547E+04  0.26145549547E+04  0.00000000000E+00 0. -1.
         24    2    1    2    0    0  0.34431599820E+03  0.87072473081E+02 -0.46824269282E+03  0.59321933918E+03  0.80764118351E+02 0.  0.
        254    2    1    2    0    0 -0.34431599820E+03 -0.87072473081E+02 -0.19694482187E+04  0.21981996588E+04  0.90951653714E+03 0.  0.
         23    2    4    4    0    0 -0.22841838683E+03 -0.11048665411E+03 -0.51540582910E+02  0.27449461471E+03  0.91151531201E+02 0.  0.
         23    2    4    4    0    0 -0.11589761137E+03  0.23414181030E+02 -0.19179076358E+04  0.19237050440E+04  0.91054471464E+02 0.  0.
          2    1    3    3  502    0  0.21590370199E+02 -0.13992351520E+02 -0.39779577346E+02  0.47374515937E+02  0.00000000000E+00 0. -1.
         -1    1    3    3    0  502  0.32272562800E+03  0.10106482460E+03 -0.42846311548E+03  0.54584482324E+03  0.00000000000E+00 0.  1.
         11    1    5    5    0    0 -0.11292353202E+03 -0.80134392118E+02 -0.67451767974E+02  0.15402267978E+03  0.00000000000E+00 0.  1.
        -11    1    5    5    0    0 -0.11549485481E+03 -0.30352261993E+02  0.15911185064E+02  0.12047193493E+03  0.00000000000E+00 0. -1.
          4    1    6    6  503    0 -0.45088010951E+02 -0.16387388058E+02 -0.12432109790E+04  0.12441362520E+04  0.00000000000E+00 0. -1.
         -4    1    6    6    0  503 -0.70809600415E+02  0.39801569088E+02 -0.67469665681E+03  0.67956879205E+03  0.00000000000E+00 0.  1.
<mgrwt>
<rscale>  0 0.13600305E+04</rscale>
<asrwt>0</asrwt>
<pdfrwt beam="1">  1        2 0.40223921E+00 0.13600305E+04</pdfrwt>
<pdfrwt beam="2">  1       -1 0.27209854E-01 0.13600305E+04</pdfrwt>
<totfact> 0.40350184E+01</totfact>
</mgrwt>
</event>
<event>
12    6  0.1703340E-007  0.3259041E+04  0.7818608E-02  0.8173396E-01
         -1   -1    0    0    0  501 -0.00000000000E+00  0.00000000000E+00  0.11877614304E+04  0.11877614304E+04  0.00000000000E+00 0.  1.
          2   -1    0    0  501    0  0.00000000000E+00 -0.00000000000E+00 -0.22355814390E+04  0.22355814390E+04  0.00000000000E+00 0. -1.
         24    2    1    2    0    0 -0.80010701109E+03 -0.12275240488E+03  0.84998541472E+03  0.11760744285E+04  0.73732449227E+02 0.  0.
        254    2    1    2    0    0  0.80010701109E+03  0.12275240488E+03 -0.18978054233E+04  0.22472684408E+04  0.89067987420E+03 0.  0.
         23    2    4    4    0    0  0.42632099321E+03  0.48989496487E+03 -0.12326696874E+04  0.13956781870E+04  0.81831397953E+02 0.  0.
         23    2    4    4    0    0  0.37378601788E+03 -0.36714255999E+03 -0.66513573595E+03  0.85159025383E+03  0.91053647095E+02 0.  0.
          4    1    3    3  502    0 -0.21973609808E+02  0.36258443684E+01  0.11025932153E+02  0.24850703314E+02  0.00000000000E+00 0. -1.
         -3    1    3    3    0  502 -0.77813340128E+03 -0.12637824925E+03  0.83895948256E+03  0.11512237252E+04  0.00000000000E+00 0.  1.
         11    1    5    5    0    0  0.36826285074E+03  0.42739590344E+03 -0.11229125325E+04  0.12566691455E+04  0.00000000000E+00 0. -1.
        -11    1    5    5    0    0  0.58058142474E+02  0.62499061436E+02 -0.10975715483E+03  0.13900904152E+03  0.00000000000E+00 0.  1.
          1    1    6    6  503    0 -0.27174935215E+01 -0.61420555447E+01 -0.53036945968E+00  0.67372775746E+01  0.00000000000E+00 0.  1.
         -1    1    6    6    0  503  0.37650351140E+03 -0.36100050445E+03 -0.66460536650E+03  0.84485297625E+03  0.00000000000E+00 0. -1.
<mgrwt>
<rscale>  0 0.32590412E+04</rscale>
<asrwt>0</asrwt>
<pdfrwt beam="1">  1        2 0.34393560E+00 0.32590412E+04</pdfrwt>
<pdfrwt beam="2">  1       -1 0.18273253E+00 0.32590412E+04</pdfrwt>
<totfact> 0.93450478E-01</totfact>
</mgrwt>
</event>
<event>
12    6  0.1553355E-007  0.1339703E+04  0.7818608E-02  0.8998659E-01
          2   -1    0    0  501    0  0.00000000000E+00  0.00000000000E+00  0.59769526979E+03  0.59769526979E+03  0.00000000000E+00 0. -1.
         -1   -1    0    0    0  501 -0.00000000000E+00 -0.00000000000E+00 -0.75071925777E+03  0.75071925777E+03  0.00000000000E+00 0.  1.
         24    2    1    2    0    0 -0.22328672907E+03  0.78798226636E+02 -0.30469621767E+03  0.39424188444E+03  0.80751188789E+02 0.  0.
        254    2    1    2    0    0  0.22328672907E+03 -0.78798226636E+02  0.15167222969E+03  0.95417264312E+03  0.91179758923E+03 0.  0.
         23    2    4    4    0    0  0.34646446423E+02  0.31414458260E+03  0.33819624803E+03  0.47147521023E+03  0.89582234015E+02 0.  0.
         23    2    4    4    0    0  0.18864028265E+03 -0.39294280924E+03 -0.18652401834E+03  0.48269743289E+03  0.90644330962E+02 0.  0.
          2    1    3    3  502    0 -0.22392683165E+02  0.31917110941E+02 -0.81302931628E+02  0.90168181314E+02  0.00000000000E+00 0. -1.
         -1    1    3    3    0  502 -0.20089404590E+03  0.46881115695E+02 -0.22339328604E+03  0.30407370313E+03  0.00000000000E+00 0.  1.
         11    1    5    5    0    0  0.31593749022E+02  0.32015353280E+03  0.33238928779E+03  0.46257873727E+03  0.00000000000E+00 0.  1.
        -11    1    5    5    0    0  0.30526974011E+01 -0.60089501931E+01  0.58069602372E+01  0.88964729552E+01  0.00000000000E+00 0. -1.
          4    1    6    6  503    0  0.28189632687E+02 -0.78815843914E+02 -0.44856708676E-01  0.83705403978E+02  0.00000000000E+00 0. -1.
         -4    1    6    6    0  503  0.16045064996E+03 -0.31412696533E+03 -0.18647916163E+03  0.39899202892E+03  0.00000000000E+00 0.  1.
<mgrwt>
<rscale>  0 0.13397035E+04</rscale>
<asrwt>0</asrwt>
<pdfrwt beam="1">  1        2 0.91953119E-01 0.13397035E+04</pdfrwt>
<pdfrwt beam="2">  1       -1 0.11549527E+00 0.13397035E+04</pdfrwt>
<totfact> 0.37829797E+01</totfact>
</mgrwt>
</event>
<event>
12    6  0.1553355E-007  0.3829456E+04  0.7818608E-02  0.8039863E-01
          2   -1    0    0  501    0  0.00000000000E+00  0.00000000000E+00  0.22034439984E+04  0.22034439984E+04  0.00000000000E+00 0. -1.
         -1   -1    0    0    0  501 -0.00000000000E+00 -0.00000000000E+00 -0.16638424375E+04  0.16638424375E+04  0.00000000000E+00 0.  1.
         24    2    1    2    0    0 -0.10930032214E+04 -0.14375404751E+04  0.10830735797E+03  0.18109240767E+04  0.80850902652E+02 0.  0.
        254    2    1    2    0    0  0.10930032214E+04  0.14375404751E+04  0.43129420293E+03  0.20563623592E+04  0.88398687973E+03 0.  0.
         23    2    4    4    0    0 -0.96440696897E+02  0.39181347724E+03  0.61557744960E+01  0.41344814871E+03  0.89904778223E+02 0.  0.
         23    2    4    4    0    0  0.11894439182E+04  0.10457269979E+04  0.42513842844E+03  0.16429142105E+04  0.10051184552E+03 0.  0.
          4    1    3    3  502    0 -0.10259367844E+04 -0.13466875507E+04  0.81832325767E+02  0.16949366284E+04  0.00000000000E+00 0. -1.
         -3    1    3    3    0  502 -0.67066436954E+02 -0.90852924393E+02  0.26475032200E+02  0.11598744831E+03  0.00000000000E+00 0.  1.
         11    1    5    5    0    0  0.12479388720E+02  0.10532356774E+02  0.43937022319E+01  0.16910656443E+02  0.00000000000E+00 0.  1.
        -11    1    5    5    0    0 -0.10892008562E+03  0.38128112047E+03  0.17620722641E+01  0.39653749227E+03  0.00000000000E+00 0. -1.
          3    1    6    6  503    0  0.53357925503E+03  0.42426597289E+03  0.22081227783E+03  0.71656576752E+03  0.00000000000E+00 0. -1.
         -3    1    6    6    0  503  0.65586466322E+03  0.62146102499E+03  0.20432615060E+03  0.92634844301E+03  0.00000000000E+00 0.  1.
<mgrwt>
<rscale>  0 0.38294562E+04</rscale>
<asrwt>0</asrwt>
<pdfrwt beam="1">  1        2 0.33899138E+00 0.38294562E+04</pdfrwt>
<pdfrwt beam="2">  1       -1 0.25597576E+00 0.38294562E+04</pdfrwt>
<totfact> 0.29802095E-01</totfact>
</mgrwt>
</event>
<event>
12    6  0.1553355E-007  0.3066799E+04  0.7818608E-02  0.8224909E-01
         -1   -1    0    0    0  501 -0.00000000000E+00  0.00000000000E+00  0.14153826228E+04  0.14153826228E+04  0.00000000000E+00 0.  1.
          2   -1    0    0  501    0  0.00000000000E+00 -0.00000000000E+00 -0.16612564574E+04  0.16612564574E+04  0.00000000000E+00 0. -1.
         24    2    1    2    0    0  0.40844190121E+03  0.63237084834E+03  0.10783726627E+04  0.13176136900E+04  0.80626049371E+02 0.  0.
        254    2    1    2    0    0 -0.40844190121E+03 -0.63237084834E+03 -0.13242464973E+04  0.17590253902E+04  0.87967258756E+03 0.  0.
         23    2    4    4    0    0 -0.42494450764E+03 -0.13974260381E+02 -0.91153736584E+03  0.10096812997E+04  0.88220422976E+02 0.  0.
         23    2    4    4    0    0  0.16502606436E+02 -0.61839658796E+03 -0.41270913149E+03  0.74934409057E+03  0.92201208486E+02 0.  0.
          4    1    3    3  502    0  0.31423673935E+03  0.52975575920E+03  0.84185406412E+03  0.10431223121E+04  0.00000000000E+00 0. -1.
         -1    1    3    3    0  502  0.94205161863E+02  0.10261508914E+03  0.23651859856E+03  0.27449137784E+03  0.00000000000E+00 0.  1.
         11    1    5    5    0    0 -0.76757453391E+02 -0.83784428927E+01 -0.98122137257E+02  0.12485935598E+03  0.00000000000E+00 0.  1.
        -11    1    5    5    0    0 -0.34818705425E+03 -0.55958174878E+01 -0.81341522859E+03  0.88482194368E+03  0.00000000000E+00 0. -1.
          3    1    6    6  503    0 -0.90311132793E+01 -0.54579105919E+03 -0.38308128686E+03  0.66687383638E+03  0.00000000000E+00 0. -1.
         -3    1    6    6    0  503  0.25533719715E+02 -0.72605528767E+02 -0.29627844625E+02  0.82470254196E+02  0.00000000000E+00 0.  1.
<mgrwt>
<rscale>  0 0.30667987E+04</rscale>
<asrwt>0</asrwt>
<pdfrwt beam="1">  1        2 0.25557791E+00 0.30667987E+04</pdfrwt>
<pdfrwt beam="2">  1       -1 0.21775117E+00 0.30667987E+04</pdfrwt>
<totfact> 0.11380689E+00</totfact>
</mgrwt>
</event>
<event>
12    6  0.1553355E-007  0.2058339E+04  0.7818608E-02  0.8579821E-01
         -1   -1    0    0    0  501 -0.00000000000E+00  0.00000000000E+00  0.48155126330E+03  0.48155126330E+03  0.00000000000E+00 0.  1.
          2   -1    0    0  501    0  0.00000000000E+00 -0.00000000000E+00 -0.21995375399E+04  0.21995375399E+04  0.00000000000E+00 0. -1.
         24    2    1    2    0    0  0.73427477658E+03 -0.41538785987E+02 -0.24433528161E+03  0.77901651438E+03  0.79259583523E+02 0.  0.
        254    2    1    2    0    0 -0.73427477658E+03  0.41538785987E+02 -0.14736509950E+04  0.19020722888E+04  0.95149714584E+03 0.  0.
         23    2    4    4    0    0 -0.68452188240E+03 -0.19379245011E+03 -0.45029139836E+03  0.84696344708E+03  0.91972909336E+02 0.  0.
         23    2    4    4    0    0 -0.49752894181E+02  0.23533123610E+03 -0.10233595966E+04  0.10551088417E+04  0.90186821205E+02 0.  0.
          4    1    3    3  502    0  0.62705033816E+02  0.18650972042E+02 -0.23461934388E+02  0.69499945246E+02  0.00000000000E+00 0. -1.
         -3    1    3    3    0  502  0.67156974276E+03 -0.60189758030E+02 -0.22087334722E+03  0.70951656914E+03  0.00000000000E+00 0.  1.
         11    1    5    5    0    0 -0.55844274603E+02  0.94132050498E+01 -0.34299844591E+02  0.66209295225E+02  0.00000000000E+00 0.  1.
        -11    1    5    5    0    0 -0.62867760780E+03 -0.20320565516E+03 -0.41599155377E+03  0.78075415186E+03  0.00000000000E+00 0. -1.
          3    1    6    6  503    0 -0.64344239227E+02  0.20918369305E+03 -0.96510950031E+03  0.98961323058E+03  0.00000000000E+00 0. -1.
         -3    1    6    6    0  503  0.14591345046E+02  0.26147543050E+02 -0.58250096297E+02  0.65495611123E+02  0.00000000000E+00 0.  1.
<mgrwt>
<rscale>  0 0.20583392E+04</rscale>
<asrwt>0</asrwt>
<pdfrwt beam="1">  1        2 0.33839040E+00 0.20583392E+04</pdfrwt>
<pdfrwt beam="2">  1       -1 0.74084808E-01 0.20583392E+04</pdfrwt>
<totfact> 0.99767767E+00</totfact>
</mgrwt>
</event>
<event>
12    6  0.1553355E-007  0.2312574E+04  0.7818608E-02  0.8472980E-01
          2   -1    0    0  501    0  0.00000000000E+00  0.00000000000E+00  0.83957149423E+03  0.83957149423E+03  0.00000000000E+00 0. -1.
         -1   -1    0    0    0  501 -0.00000000000E+00 -0.00000000000E+00 -0.15924792031E+04  0.15924792031E+04  0.00000000000E+00 0.  1.
         24    2    1    2    0    0 -0.58846817899E+03 -0.45209563375E+03 -0.95565451308E+03  0.12127363162E+04  0.82271285493E+02 0.  0.
        254    2    1    2    0    0  0.58846817899E+03  0.45209563375E+03  0.20274680423E+03  0.12193143811E+04  0.94601058858E+03 0.  0.
         23    2    4    4    0    0 -0.10502300443E+03 -0.19174251687E+03  0.11932245879E+03  0.26489383133E+03  0.90199049159E+02 0.  0.
         23    2    4    4    0    0  0.69349118343E+03  0.64383815062E+03  0.83424345438E+02  0.95442054982E+03  0.92202921987E+02 0.  0.
          4    1    3    3  502    0 -0.88275352217E+02 -0.10798746900E+03 -0.17474204148E+03  0.22358133270E+03  0.00000000000E+00 0. -1.
         -3    1    3    3    0  502 -0.50019282677E+03 -0.34410816475E+03 -0.78091247160E+03  0.98915498346E+03  0.00000000000E+00 0.  1.
         11    1    5    5    0    0 -0.24311090532E+01 -0.87372429769E+02  0.64436836422E+02  0.10859078075E+03  0.00000000000E+00 0. -1.
        -11    1    5    5    0    0 -0.10259189538E+03 -0.10437008710E+03  0.54885622369E+02  0.15630305058E+03  0.00000000000E+00 0.  1.
          3    1    6    6  503    0  0.37886939492E+03  0.40213169561E+03  0.21893678310E+02  0.55292969912E+03  0.00000000000E+00 0. -1.
         -3    1    6    6    0  503  0.31462178851E+03  0.24170645501E+03  0.61530667128E+02  0.40149085070E+03  0.00000000000E+00 0.  1.
<mgrwt>
<rscale>  0 0.23125744E+04</rscale>
<asrwt>0</asrwt>
<pdfrwt beam="1">  1        2 0.12916485E+00 0.23125744E+04</pdfrwt>
<pdfrwt beam="2">  1       -1 0.24499680E+00 0.23125744E+04</pdfrwt>
<totfact> 0.25068196E+00</totfact>
</mgrwt>
</event>
<event>
12    6  0.1553355E-007  0.1629574E+04  0.7818608E-02  0.8802583E-01
         -1   -1    0    0    0  501 -0.00000000000E+00  0.00000000000E+00  0.35987232276E+03  0.35987232276E+03  0.00000000000E+00 0.  1.
          2   -1    0    0  501    0  0.00000000000E+00 -0.00000000000E+00 -0.18447584442E+04  0.18447584442E+04  0.00000000000E+00 0. -1.
         24    2    1    2    0    0  0.22088911886E+03 -0.28676149075E+03 -0.10965953962E+04  0.11580984112E+04  0.87443191438E+02 0.  0.
        254    2    1    2    0    0 -0.22088911886E+03  0.28676149075E+03 -0.38829072527E+03  0.10465323558E+04  0.90190694026E+03 0.  0.
         23    2    4    4    0    0  0.27937768554E+03 -0.13251930856E+02 -0.34604026672E+03  0.45462666189E+03  0.93348972448E+02 0.  0.
         23    2    4    4    0    0 -0.50026680441E+03  0.30001342161E+03 -0.42250458553E+02  0.59190569386E+03  0.91062178988E+02 0.  0.
          4    1    3    3  502    0  0.13949396983E+03 -0.21550803381E+03 -0.65661510480E+03  0.70501466375E+03  0.00000000000E+00 0. -1.
         -3    1    3    3    0  502  0.81395149037E+02 -0.71253456942E+02 -0.43998029140E+03  0.45308374748E+03  0.00000000000E+00 0.  1.
         11    1    5    5    0    0  0.24822945823E+03 -0.39228175511E+02 -0.31801641005E+03  0.40532844799E+03  0.00000000000E+00 0. -1.
        -11    1    5    5    0    0  0.31148227316E+02  0.25976244655E+02 -0.28023856670E+02  0.49298213902E+02  0.00000000000E+00 0.  1.
          4    1    6    6  503    0 -0.15015865718E+03  0.52470025681E+02 -0.35969718018E+02  0.16307834477E+03  0.00000000000E+00 0.  1.
         -4    1    6    6    0  503 -0.35010814723E+03  0.24754339593E+03 -0.62807405344E+01  0.42882734909E+03  0.00000000000E+00 0. -1.
<mgrwt>
<rscale>  0 0.16295736E+04</rscale>
<asrwt>0</asrwt>
<pdfrwt beam="1">  1        2 0.28380899E+00 0.16295736E+04</pdfrwt>
<pdfrwt beam="2">  1       -1 0.55364973E-01 0.16295736E+04</pdfrwt>
<totfact> 0.29293551E+01</totfact>
</mgrwt>
</event>
<event>
12    6  0.1553355E-007  0.2383478E+04  0.7818608E-02  0.8445715E-01
         -1   -1    0    0    0  501 -0.00000000000E+00  0.00000000000E+00  0.55936839986E+03  0.55936839986E+03  0.00000000000E+00 0.  1.
          2   -1    0    0  501    0  0.00000000000E+00 -0.00000000000E+00 -0.25390088212E+04  0.25390088212E+04  0.00000000000E+00 0. -1.
         24    2    1    2    0    0 -0.39170629237E+03 -0.22296134742E+03 -0.20630805889E+04  0.21132180066E+04  0.79014206730E+02 0.  0.
        254    2    1    2    0    0  0.39170629237E+03  0.22296134742E+03  0.83440167638E+02  0.98515921447E+03  0.87202685415E+03 0.  0.
         23    2    4    4    0    0  0.29578128731E+03  0.48864637473E+03  0.26596685225E+03  0.63684058089E+03  0.92551118384E+02 0.  0.
         23    2    4    4    0    0  0.95925005058E+02 -0.26568502731E+03 -0.18252668461E+03  0.34831863358E+03  0.90662779424E+02 0.  0.
          2    1    3    3  502    0 -0.34438496574E+03 -0.19163720463E+03 -0.16589264322E+04  0.17050990382E+04  0.00000000000E+00 0. -1.
         -1    1    3    3    0  502 -0.47321326628E+02 -0.31324142789E+02 -0.40415415675E+03  0.40811896831E+03  0.00000000000E+00 0.  1.
         11    1    5    5    0    0  0.55480635733E+02  0.14424959977E+03  0.38612433404E+02  0.15930150027E+03  0.00000000000E+00 0.  1.
        -11    1    5    5    0    0  0.24030065158E+03  0.34439677496E+03  0.22735441884E+03  0.47753908062E+03  0.00000000000E+00 0. -1.
          3    1    6    6  503    0  0.93732374118E+02 -0.22079998494E+03 -0.18557583629E+03  0.30327674214E+03  0.00000000000E+00 0. -1.
         -3    1    6    6    0  503  0.21926309395E+01 -0.44885042367E+02  0.30491516769E+01  0.45041891442E+02  0.00000000000E+00 0.  1.
<mgrwt>
<rscale>  0 0.23834775E+04</rscale>
<asrwt>0</asrwt>
<pdfrwt beam="1">  1        2 0.39061674E+00 0.23834775E+04</pdfrwt>
<pdfrwt beam="2">  1       -1 0.86056678E-01 0.23834775E+04</pdfrwt>
<totfact> 0.45102549E+00</totfact>
</mgrwt>
</event>
<event>
12    6  0.1553355E-007  0.1786782E+04  0.7818608E-02  0.8713360E-01
         -1   -1    0    0    0  501 -0.00000000000E+00  0.00000000000E+00  0.50069843678E+03  0.50069843678E+03  0.00000000000E+00 0.  1.
          2   -1    0    0  501    0  0.00000000000E+00 -0.00000000000E+00 -0.15940680478E+04  0.15940680478E+04  0.00000000000E+00 0. -1.
         24    2    1    2    0    0  0.23525490354E+03  0.46425741036E+03  0.74125508457E+02  0.53378465202E+03  0.92475137289E+02 0.  0.
        254    2    1    2    0    0 -0.23525490354E+03 -0.46425741036E+03 -0.11674951195E+04  0.15609818325E+04  0.89595737334E+03 0.  0.
         23    2    4    4    0    0  0.73664091617E+02 -0.65177485766E+03 -0.78879926937E+03  0.10298457382E+04  0.90228009718E+02 0.  0.
         23    2    4    4    0    0 -0.30891899516E+03  0.18751744731E+03 -0.37869585009E+03  0.53113609430E+03  0.90007028487E+02 0.  0.
          2    1    3    3  502    0 -0.52620523695E+01  0.44667595780E+02  0.63728089332E+01  0.45425719604E+02  0.00000000000E+00 0. -1.
         -3    1    3    3    0  502  0.24051695591E+03  0.41958981458E+03  0.67752699524E+02  0.48835893241E+03  0.00000000000E+00 0.  1.
         11    1    5    5    0    0  0.87222486262E+02 -0.54435591509E+03 -0.62386983144E+03  0.83255311601E+03  0.00000000000E+00 0. -1.
        -11    1    5    5    0    0 -0.13558394644E+02 -0.10741894257E+03 -0.16492943794E+03  0.19729262223E+03  0.00000000000E+00 0.  1.
          3    1    6    6  503    0 -0.30344826743E+03  0.18428227959E+03 -0.38391883352E+03  0.52290962920E+03  0.00000000000E+00 0. -1.
         -3    1    6    6    0  503 -0.54707277274E+01  0.32351677118E+01  0.52229834345E+01  0.82264650943E+01  0.00000000000E+00 0.  1.
<mgrwt>
<rscale>  0 0.17867819E+04</rscale>
<asrwt>0</asrwt>
<pdfrwt beam="1">  1        2 0.24524124E+00 0.17867819E+04</pdfrwt>
<pdfrwt beam="2">  1       -1 0.77030528E-01 0.17867819E+04</pdfrwt>
<totfact> 0.20450338E+01</totfact>
</mgrwt>
</event>
<event>
12    6  0.1553355E-007  0.2326743E+04  0.7818608E-02  0.8467451E-01
          2   -1    0    0  501    0  0.00000000000E+00  0.00000000000E+00  0.17865493967E+04  0.17865493967E+04  0.00000000000E+00 0. -1.
         -1   -1    0    0    0  501 -0.00000000000E+00 -0.00000000000E+00 -0.75756840240E+03  0.75756840240E+03  0.00000000000E+00 0.  1.
         24    2    1    2    0    0  0.85790099301E+03 -0.12358165623E+03 -0.82639352360E+02  0.87420455819E+03  0.78344160217E+02 0.  0.
        254    2    1    2    0    0 -0.85790099301E+03  0.12358165623E+03  0.11116203466E+04  0.16699132409E+04  0.89534568600E+03 0.  0.
         23    2    4    4    0    0  0.15547814112E+03 -0.80240248150E+02  0.11024636191E+03  0.22785740903E+03  0.95670208267E+02 0.  0.
         23    2    4    4    0    0 -0.10133791341E+04  0.20382190438E+03  0.10013739847E+04  0.14420558318E+04  0.91074292102E+02 0.  0.
          2    1    3    3  502    0  0.35821985802E+02 -0.48466836722E+00  0.11550043467E+02  0.37641108835E+02  0.00000000000E+00 0. -1.
         -1    1    3    3    0  502  0.82207900721E+03 -0.12309698786E+03 -0.94189395828E+02  0.83656344936E+03  0.00000000000E+00 0.  1.
         11    1    5    5    0    0 -0.23918421488E+01  0.29780029917E+01  0.33294490907E+02  0.33512871191E+02  0.00000000000E+00 0. -1.
        -11    1    5    5    0    0  0.15786998326E+03 -0.83218251141E+02  0.76951871001E+02  0.19434453784E+03  0.00000000000E+00 0.  1.
          2    1    6    6  503    0 -0.61737652475E+03  0.89491165893E+02  0.56258828158E+03  0.84004048513E+03  0.00000000000E+00 0. -1.
         -2    1    6    6    0  503 -0.39600260938E+03  0.11433073848E+03  0.43878570313E+03  0.60201534671E+03  0.00000000000E+00 0.  1.
<mgrwt>
<rscale>  0 0.23267431E+04</rscale>
<asrwt>0</asrwt>
<pdfrwt beam="1">  1        2 0.27485375E+00 0.23267431E+04</pdfrwt>
<pdfrwt beam="2">  1       -1 0.11654899E+00 0.23267431E+04</pdfrwt>
<totfact> 0.60088282E+00</totfact>
</mgrwt>
</event>
<event>
12    6  0.1553355E-007  0.2725007E+04  0.7818608E-02  0.8326936E-01
         -1   -1    0    0    0  501 -0.00000000000E+00  0.00000000000E+00  0.19990338895E+04  0.19990338895E+04  0.00000000000E+00 0.  1.
          2   -1    0    0  501    0  0.00000000000E+00 -0.00000000000E+00 -0.92865659909E+03  0.92865659909E+03  0.00000000000E+00 0. -1.
         24    2    1    2    0    0  0.40419899620E+03 -0.10843480526E+04  0.80801420368E+02  0.11628436126E+04  0.80553522968E+02 0.  0.
        254    2    1    2    0    0 -0.40419899620E+03  0.10843480526E+04  0.98957586999E+03  0.17648468760E+04  0.89232088707E+03 0.  0.
         23    2    4    4    0    0 -0.26407062334E+03 -0.54608688597E+02  0.74442199254E+02  0.29440259476E+03  0.91737908124E+02 0.  0.
         23    2    4    4    0    0 -0.14012837286E+03  0.11389567412E+04  0.91513367074E+03  0.14704442812E+04  0.88759955383E+02 0.  0.
          2    1    3    3  502    0  0.29871567154E+03 -0.87002825059E+03  0.86203045509E+02  0.92391080430E+03  0.00000000000E+00 0. -1.
         -1    1    3    3    0  502  0.10548332466E+03 -0.21431980200E+03 -0.54016251402E+01  0.23893280827E+03  0.00000000000E+00 0.  1.
         11    1    5    5    0    0 -0.25146536685E+03 -0.68071127650E+02  0.52524635150E+02  0.26575805998E+03  0.00000000000E+00 0. -1.
        -11    1    5    5    0    0 -0.12605256491E+02  0.13462439054E+02  0.21917564104E+02  0.28644534779E+02  0.00000000000E+00 0.  1.
          3    1    6    6  503    0 -0.60056678483E+02  0.81612691974E+03  0.65520062438E+03  0.10483118868E+04  0.00000000000E+00 0. -1.
         -3    1    6    6    0  503 -0.80071694375E+02  0.32282982145E+03  0.25993304636E+03  0.42213239445E+03  0.00000000000E+00 0.  1.
<mgrwt>
<rscale>  0 0.27250072E+04</rscale>
<asrwt>0</asrwt>
<pdfrwt beam="1">  1        2 0.14287025E+00 0.27250072E+04</pdfrwt>
<pdfrwt beam="2">  1       -1 0.30754367E+00 0.27250072E+04</pdfrwt>
<totfact> 0.82590853E-01</totfact>
</mgrwt>
</event>
<event>
12    6  0.1553355E-007  0.1608987E+04  0.7818608E-02  0.8815046E-01
          2   -1    0    0  501    0  0.00000000000E+00  0.00000000000E+00  0.11930919315E+04  0.11930919315E+04  0.00000000000E+00 0. -1.
         -1   -1    0    0    0  501 -0.00000000000E+00 -0.00000000000E+00 -0.54246434365E+03  0.54246434365E+03  0.00000000000E+00 0.  1.
         24    2    1    2    0    0 -0.29231677939E+03 -0.14020897472E+02 -0.27631145964E+03  0.41064396015E+03  0.81454000528E+02 0.  0.
        254    2    1    2    0    0  0.29231677939E+03  0.14020897472E+02  0.92693904748E+03  0.13249123150E+04  0.90029492922E+03 0.  0.
         23    2    4    4    0    0 -0.20187624846E+03 -0.25025759448E+03  0.54916141390E+03  0.64288722305E+03  0.91339146932E+02 0.  0.
         23    2    4    4    0    0  0.49419302785E+03  0.26427849195E+03  0.37777763357E+03  0.68202509193E+03  0.91500904440E+02 0.  0.
          4    1    3    3  502    0 -0.82502836725E+02 -0.38262264710E+02 -0.64283213349E+02  0.11136898350E+03  0.00000000000E+00 0. -1.
         -3    1    3    3    0  502 -0.20981394267E+03  0.24241367237E+02 -0.21202824629E+03  0.29927497665E+03  0.00000000000E+00 0.  1.
         11    1    5    5    0    0 -0.15207375111E+03 -0.23773475318E+03  0.44892812449E+03  0.53026474483E+03  0.00000000000E+00 0. -1.
        -11    1    5    5    0    0 -0.49802497342E+02 -0.12522841296E+02  0.10023328941E+03  0.11262247822E+03  0.00000000000E+00 0.  1.
          2    1    6    6  503    0  0.20035432008E+03  0.76469173067E+02  0.10223769712E+03  0.23757511384E+03  0.00000000000E+00 0.  1.
         -2    1    6    6    0  503  0.29383870777E+03  0.18780931888E+03  0.27553993646E+03  0.44444997809E+03  0.00000000000E+00 0. -1.
<mgrwt>
<rscale>  0 0.16089870E+04</rscale>
<asrwt>0</asrwt>
<pdfrwt beam="1">  1        2 0.18355260E+00 0.16089870E+04</pdfrwt>
<pdfrwt beam="2">  1       -1 0.83456053E-01 0.16089870E+04</pdfrwt>
<totfact> 0.29769609E+01</totfact>
</mgrwt>
</event>
<event>
12    6  0.1553355E-007  0.2034317E+04  0.7818608E-02  0.8590743E-01
          2   -1    0    0  501    0  0.00000000000E+00  0.00000000000E+00  0.70793156825E+03  0.70793156825E+03  0.00000000000E+00 0. -1.
         -1   -1    0    0    0  501 -0.00000000000E+00 -0.00000000000E+00 -0.14614562767E+04  0.14614562767E+04  0.00000000000E+00 0.  1.
         24    2    1    2    0    0  0.51135830014E+02  0.22863320876E+03 -0.11309420316E+04  0.11577611247E+04  0.80578693548E+02 0.  0.
        254    2    1    2    0    0 -0.51135830014E+02 -0.22863320876E+03  0.37741732321E+03  0.10116267202E+04  0.90887665160E+03 0.  0.
         23    2    4    4    0    0  0.14531224834E+03 -0.22855442477E+03 -0.23036662317E+03  0.36657168686E+03  0.89180972951E+02 0.  0.
         23    2    4    4    0    0 -0.19644807835E+03 -0.78783985121E-01  0.60778394637E+03  0.64505503331E+03  0.90015647692E+02 0.  0.
          4    1    3    3  502    0  0.28423397902E+02  0.43907653048E+02 -0.13911722765E+03  0.14862494600E+03  0.00000000000E+00 0. -1.
         -1    1    3    3    0  502  0.22712432112E+02  0.18472555571E+03 -0.99182480396E+03  0.10091361787E+04  0.00000000000E+00 0.  1.
         11    1    5    5    0    0  0.62459057773E+02 -0.11236618708E+03 -0.16616578815E+03  0.21009132074E+03  0.00000000000E+00 0.  1.
        -11    1    5    5    0    0  0.82853190563E+02 -0.11618823769E+03 -0.64200835014E+02  0.15648036612E+03  0.00000000000E+00 0. -1.
          2    1    6    6  503    0 -0.42738194753E+02  0.35000573904E+02  0.21056956999E+03  0.21769505569E+03  0.00000000000E+00 0. -1.
         -2    1    6    6    0  503 -0.15370988360E+03 -0.35079357889E+02  0.39721437638E+03  0.42735997762E+03  0.00000000000E+00 0.  1.
<mgrwt>
<rscale>  0 0.20343166E+04</rscale>
<asrwt>0</asrwt>
<pdfrwt beam="1">  1        2 0.10891255E+00 0.20343166E+04</pdfrwt>
<pdfrwt beam="2">  1       -1 0.22483942E+00 0.20343166E+04</pdfrwt>
<totfact> 0.43629905E+00</totfact>
</mgrwt>
</event>
<event>
12    6  0.1553355E-007  0.1343533E+04  0.7818608E-02  0.8995738E-01
         -1   -1    0    0    0  501 -0.00000000000E+00  0.00000000000E+00  0.52973225127E+03  0.52973225127E+03  0.00000000000E+00 0.  1.
          2   -1    0    0  501    0  0.00000000000E+00 -0.00000000000E+00 -0.85188331909E+03  0.85188331909E+03  0.00000000000E+00 0. -1.
         24    2    1    2    0    0 -0.83102754395E+02  0.13778374532E+03  0.24598267912E+03  0.30427571936E+03  0.78649899605E+02 0.  0.
        254    2    1    2    0    0  0.83102754395E+02 -0.13778374532E+03 -0.56813374694E+03  0.10773398510E+04  0.90110752514E+03 0.  0.
         23    2    4    4    0    0 -0.17533492464E+03 -0.34798385385E+03 -0.60988940480E+03  0.72925751803E+03  0.89534033601E+02 0.  0.
         23    2    4    4    0    0  0.25843767903E+03  0.21020010854E+03  0.41755657867E+02  0.34808233296E+03  0.91889368167E+02 0.  0.
          2    1    3    3  502    0 -0.24293050428E+02  0.11067308618E+03  0.14043629119E+03  0.18044676829E+03  0.00000000000E+00 0. -1.
         -1    1    3    3    0  502 -0.58809703966E+02  0.27110659136E+02  0.10554638793E+03  0.12382895107E+03  0.00000000000E+00 0.  1.
         11    1    5    5    0    0 -0.15884701212E+03 -0.26990643007E+03 -0.53441343707E+03  0.61941874041E+03  0.00000000000E+00 0.  1.
        -11    1    5    5    0    0 -0.16487912517E+02 -0.78077423779E+02 -0.75475967735E+02  0.10983877762E+03  0.00000000000E+00 0. -1.
          1    1    6    6  503    0  0.12527525955E+03  0.52831702860E+02  0.40737316234E+02  0.14193170336E+03  0.00000000000E+00 0. -1.
         -1    1    6    6    0  503  0.13316241948E+03  0.15736840568E+03  0.10183416337E+01  0.20615062961E+03  0.00000000000E+00 0.  1.
<mgrwt>
<rscale>  0 0.13435328E+04</rscale>
<asrwt>0</asrwt>
<pdfrwt beam="1">  1        2 0.13105897E+00 0.13435328E+04</pdfrwt>
<pdfrwt beam="2">  1       -1 0.81497270E-01 0.13435328E+04</pdfrwt>
<totfact> 0.52937737E+01</totfact>
</mgrwt>
</event>
<event>
12    6  0.1553355E-007  0.1419152E+04  0.7818608E-02  0.8940071E-01
         -1   -1    0    0    0  501 -0.00000000000E+00  0.00000000000E+00  0.12506112703E+04  0.12506112703E+04  0.00000000000E+00 0.  1.
          2   -1    0    0  501    0  0.00000000000E+00 -0.00000000000E+00 -0.40260159462E+03  0.40260159462E+03  0.00000000000E+00 0. -1.
         24    2    1    2    0    0 -0.10961188248E+03 -0.11625315685E+03  0.69387550035E+03  0.71650767953E+03  0.79940500187E+02 0.  0.
        254    2    1    2    0    0  0.10961188248E+03  0.11625315685E+03  0.15413417536E+03  0.93670518543E+03  0.91001631806E+03 0.  0.
         23    2    4    4    0    0  0.19888001293E+03 -0.33680262704E+03  0.22610787864E+03  0.46057602149E+03  0.89533399701E+02 0.  0.
         23    2    4    4    0    0 -0.89268130450E+02  0.45305578389E+03 -0.71973703278E+02  0.47612916394E+03  0.91051767477E+02 0.  0.
          2    1    3    3  502    0 -0.53277641930E+02 -0.64297914847E+02  0.20015473600E+03  0.21687472726E+03  0.00000000000E+00 0. -1.
         -1    1    3    3    0  502 -0.56334240550E+02 -0.51955241999E+02  0.49372076436E+03  0.49963295226E+03  0.00000000000E+00 0.  1.
         11    1    5    5    0    0  0.17861970596E+03 -0.24416154709E+03  0.19841357232E+03  0.36178419827E+03  0.00000000000E+00 0. -1.
        -11    1    5    5    0    0  0.20260306972E+02 -0.92641079947E+02  0.27694306317E+02  0.98791823218E+02  0.00000000000E+00 0.  1.
          4    1    6    6  503    0 -0.77966635612E+02  0.44865700568E+03 -0.78896362649E+02  0.46216505824E+03  0.00000000000E+00 0. -1.
         -4    1    6    6    0  503 -0.11301494838E+02  0.43987782066E+01  0.69226593712E+01  0.13964105702E+02  0.00000000000E+00 0.  1.
<mgrwt>
<rscale>  0 0.14191520E+04</rscale>
<asrwt>0</asrwt>
<pdfrwt beam="1">  1        2 0.61938708E-01 0.14191520E+04</pdfrwt>
<pdfrwt beam="2">  1       -1 0.19240173E+00 0.14191520E+04</pdfrwt>
<totfact> 0.14920142E+01</totfact>
</mgrwt>
</event>
<event>
12    6  0.1553355E-007  0.1818401E+04  0.7818608E-02  0.8696575E-01
          2   -1    0    0  501    0  0.00000000000E+00  0.00000000000E+00  0.98897511377E+03  0.98897511377E+03  0.00000000000E+00 0. -1.
         -1   -1    0    0    0  501 -0.00000000000E+00 -0.00000000000E+00 -0.83586063631E+03  0.83586063631E+03  0.00000000000E+00 0.  1.
         24    2    1    2    0    0 -0.37266862457E+02 -0.36702520428E+03  0.63524508739E+03  0.73891025199E+03  0.79722768551E+02 0.  0.
        254    2    1    2    0    0  0.37266862457E+02  0.36702520428E+03 -0.48213060993E+03  0.10859254981E+04  0.90038210931E+03 0.  0.
         23    2    4    4    0    0 -0.29803248950E+03  0.36046598932E+03  0.18019335786E+02  0.47680525058E+03  0.90881550702E+02 0.  0.
         23    2    4    4    0    0  0.33529935196E+03  0.65592149574E+01 -0.50014994572E+03  0.60912024751E+03  0.91699667402E+02 0.  0.
          2    1    3    3  502    0 -0.15452594246E+02 -0.25321593559E+03  0.50100594460E+03  0.56157283520E+03  0.00000000000E+00 0. -1.
         -3    1    3    3    0  502 -0.21814268211E+02 -0.11380926869E+03  0.13423914279E+03  0.17733741679E+03  0.00000000000E+00 0.  1.
         11    1    5    5    0    0 -0.22599257547E+02  0.97320567545E+01  0.18604940272E+02  0.30847741780E+02  0.00000000000E+00 0. -1.
        -11    1    5    5    0    0 -0.27543323196E+03  0.35073393257E+03 -0.58560448605E+00  0.44595750880E+03  0.00000000000E+00 0.  1.
          3    1    6    6  503    0  0.34864155010E+02 -0.27855499771E+02 -0.52527610338E+02  0.68924509573E+02  0.00000000000E+00 0. -1.
         -3    1    6    6    0  503  0.30043519695E+03  0.34414714729E+02 -0.44762233538E+03  0.54019573794E+03  0.00000000000E+00 0.  1.
<mgrwt>
<rscale>  0 0.18184008E+04</rscale>
<asrwt>0</asrwt>
<pdfrwt beam="1">  1        2 0.15215002E+00 0.18184008E+04</pdfrwt>
<pdfrwt beam="2">  1       -1 0.12859394E+00 0.18184008E+04</pdfrwt>
<totfact> 0.14355840E+01</totfact>
</mgrwt>
</event>
<event>
12    6  0.1553355E-007  0.1313380E+04  0.7818608E-02  0.9019021E-01
          2   -1    0    0  501    0  0.00000000000E+00  0.00000000000E+00  0.13915143522E+04  0.13915143522E+04  0.00000000000E+00 0. -1.
         -1   -1    0    0    0  501 -0.00000000000E+00 -0.00000000000E+00 -0.30990837176E+03  0.30990837176E+03  0.00000000000E+00 0.  1.
         24    2    1    2    0    0 -0.16354496418E+03  0.17026049059E+03  0.60916580414E+03  0.65826329023E+03  0.80572900884E+02 0.  0.
        254    2    1    2    0    0  0.16354496418E+03 -0.17026049059E+03  0.47244017629E+03  0.10431594337E+04  0.89958117700E+03 0.  0.
         23    2    4    4    0    0 -0.21570551281E+03 -0.33365643014E+03  0.46721796238E+03  0.62006029842E+03  0.91250576332E+02 0.  0.
         23    2    4    4    0    0  0.37925047699E+03  0.16339593955E+03  0.52222139093E+01  0.42309913529E+03  0.91958955024E+02 0.  0.
          4    1    3    3  502    0 -0.14387966319E+03  0.12046024106E+03  0.39206243651E+03  0.43465501410E+03  0.00000000000E+00 0. -1.
         -1    1    3    3    0  502 -0.19665300988E+02  0.49800249527E+02  0.21710336763E+03  0.22360827613E+03  0.00000000000E+00 0.  1.
         11    1    5    5    0    0 -0.32891353762E+02 -0.14574943086E+02  0.70300886201E+02  0.78971417100E+02  0.00000000000E+00 0.  1.
        -11    1    5    5    0    0 -0.18281415905E+03 -0.31908148706E+03  0.39691707618E+03  0.54108888132E+03  0.00000000000E+00 0. -1.
          1    1    6    6  503    0  0.20956634585E+03  0.12564024405E+03  0.34664268301E+02  0.24678965889E+03  0.00000000000E+00 0. -1.
         -1    1    6    6    0  503  0.16968413114E+03  0.37755695506E+02 -0.29442054392E+02  0.17630947641E+03  0.00000000000E+00 0.  1.
<mgrwt>
<rscale>  0 0.13133803E+04</rscale>
<asrwt>0</asrwt>
<pdfrwt beam="1">  1        2 0.21407913E+00 0.13133803E+04</pdfrwt>
<pdfrwt beam="2">  1       -1 0.47678212E-01 0.13133803E+04</pdfrwt>
<totfact> 0.71727390E+01</totfact>
</mgrwt>
</event>
<event>
12    6  0.1553355E-007  0.1955210E+04  0.7818608E-02  0.8627852E-01
          2   -1    0    0  501    0  0.00000000000E+00  0.00000000000E+00  0.30472945545E+04  0.30472945545E+04  0.00000000000E+00 0. -1.
         -3   -1    0    0    0  501 -0.00000000000E+00 -0.00000000000E+00 -0.31362626831E+03  0.31362626831E+03  0.00000000000E+00 0.  1.
         24    2    1    2    0    0  0.22109823426E+03 -0.53422992996E+03  0.23630612506E+03  0.63016603453E+03  0.83561947547E+02 0.  0.
        254    2    1    2    0    0 -0.22109823426E+03  0.53422992996E+03  0.24973621612E+04  0.27307547883E+04  0.94123211941E+03 0.  0.
         23    2    4    4    0    0 -0.45538569417E+03  0.49020599878E+03  0.23272136902E+04  0.24231748109E+04  0.90413234348E+02 0.  0.
         23    2    4    4    0    0  0.23428745991E+03  0.44023931180E+02  0.17014847102E+03  0.30757997740E+03  0.93947963872E+02 0.  0.
          4    1    3    3  502    0  0.42083459801E+02 -0.20607193248E+03  0.88920982614E+02  0.22834973198E+03  0.00000000000E+00 0. -1.
         -3    1    3    3    0  502  0.17901477446E+03 -0.32815799748E+03  0.14738514245E+03  0.40181630256E+03  0.00000000000E+00 0.  1.
         11    1    5    5    0    0 -0.43613046771E+03  0.43205065875E+03  0.21186876664E+04  0.22058365725E+04  0.00000000000E+00 0. -1.
        -11    1    5    5    0    0 -0.19255226466E+02  0.58155340036E+02  0.20852602374E+03  0.21733823846E+03  0.00000000000E+00 0.  1.
          4    1    6    6  503    0  0.13599093043E+03  0.26403127939E+02  0.41286094362E+02  0.14455172054E+03  0.00000000000E+00 0. -1.
         -4    1    6    6    0  503  0.98296529489E+02  0.17620803241E+02  0.12886237666E+03  0.16302825686E+03  0.00000000000E+00 0.  1.
<mgrwt>
<rscale>  0 0.19552101E+04</rscale>
<asrwt>0</asrwt>
<pdfrwt beam="1">  1        2 0.46881453E+00 0.19552101E+04</pdfrwt>
<pdfrwt beam="2">  1       -3 0.48250197E-01 0.19552101E+04</pdfrwt>
<totfact> 0.41887900E+00</totfact>
</mgrwt>
</event>
<event>
12    6  0.1553355E-007  0.2097980E+04  0.7818608E-02  0.8562134E-01
         -1   -1    0    0    0  501 -0.00000000000E+00  0.00000000000E+00  0.10195274988E+04  0.10195274988E+04  0.00000000000E+00 0.  1.
          2   -1    0    0  501    0  0.00000000000E+00 -0.00000000000E+00 -0.10793036136E+04  0.10793036136E+04  0.00000000000E+00 0. -1.
         24    2    1    2    0    0 -0.66900616706E+03 -0.15832091089E+03 -0.38008329677E+03  0.78977897304E+03  0.81564400164E+02 0.  0.
        254    2    1    2    0    0  0.66900616706E+03  0.15832091089E+03  0.32030718193E+03  0.13090521394E+04  0.10669517563E+04 0.  0.
         23    2    4    4    0    0 -0.12922652412E+03 -0.26837633374E+03  0.24669464851E+03  0.39668729270E+03  0.88188477365E+02 0.  0.
         23    2    4    4    0    0  0.79823269118E+03  0.42669724463E+03  0.73612533422E+02  0.91236484665E+03  0.88004775365E+02 0.  0.
          4    1    3    3  502    0 -0.49762525257E+03 -0.10855122298E+03 -0.31983461548E+03  0.60142201594E+03  0.00000000000E+00 0. -1.
         -3    1    3    3    0  502 -0.17138091449E+03 -0.49769687910E+02 -0.60248681290E+02  0.18835695709E+03  0.00000000000E+00 0.  1.
         11    1    5    5    0    0 -0.97011818477E+01 -0.10398586088E+03  0.58584234884E+02  0.11974675265E+03  0.00000000000E+00 0. -1.
        -11    1    5    5    0    0 -0.11952534227E+03 -0.16439047286E+03  0.18811041363E+03  0.27694054005E+03  0.00000000000E+00 0.  1.
          3    1    6    6  503    0  0.16150963941E+03  0.93967645979E+02  0.50563108438E+02  0.19357662578E+03  0.00000000000E+00 0. -1.
         -3    1    6    6    0  503  0.63672305177E+03  0.33272959865E+03  0.23049424984E+02  0.71878822087E+03  0.00000000000E+00 0.  1.
<mgrwt>
<rscale>  0 0.20979797E+04</rscale>
<asrwt>0</asrwt>
<pdfrwt beam="1">  1        2 0.16604671E+00 0.20979797E+04</pdfrwt>
<pdfrwt beam="2">  1       -1 0.15685039E+00 0.20979797E+04</pdfrwt>
<totfact> 0.72850438E+00</totfact>
</mgrwt>
</event>
<event>
12    6  0.1553355E-007  0.2977531E+04  0.7818608E-02  0.8250176E-01
          2   -1    0    0  501    0  0.00000000000E+00  0.00000000000E+00  0.36401089708E+04  0.36401089708E+04  0.00000000000E+00 0. -1.
         -1   -1    0    0    0  501 -0.00000000000E+00 -0.00000000000E+00 -0.60888900895E+03  0.60888900895E+03  0.00000000000E+00 0.  1.
         24    2    1    2    0    0 -0.12747463785E+04 -0.45868689695E+03  0.10653999826E+04  0.17253339340E+04  0.79549116077E+02 0.  0.
        254    2    1    2    0    0  0.12747463785E+04  0.45868689695E+03  0.19658199792E+04  0.25236640458E+04  0.81796089519E+03 0.  0.
         23    2    4    4    0    0  0.10826046055E+04  0.67050603966E+03  0.16733881666E+04  0.21048213113E+04  0.91835260128E+02 0.  0.
         23    2    4    4    0    0  0.19214177298E+03 -0.21181914271E+03  0.29243181263E+03  0.41884273450E+03  0.90150213880E+02 0.  0.
          2    1    3    3  502    0 -0.36824592303E+03 -0.13545446641E+03  0.26357202890E+03  0.47267661960E+03  0.00000000000E+00 0. -1.
         -1    1    3    3    0  502 -0.90650045549E+03 -0.32323243054E+03  0.80182795372E+03  0.12526573144E+04  0.00000000000E+00 0.  1.
         11    1    5    5    0    0  0.34689960449E+03  0.16569226357E+03  0.51242444970E+03  0.64060290231E+03  0.00000000000E+00 0. -1.
        -11    1    5    5    0    0  0.73570500105E+03  0.50481377608E+03  0.11609637169E+04  0.14642184089E+04  0.00000000000E+00 0.  1.
          3    1    6    6  503    0 -0.28837311303E+01 -0.76999011024E+01  0.37730514091E+02  0.38616008025E+02  0.00000000000E+00 0. -1.
         -3    1    6    6    0  503  0.19502550411E+03 -0.20411924160E+03  0.25470129854E+03  0.38022672647E+03  0.00000000000E+00 0.  1.
<mgrwt>
<rscale>  0 0.29775308E+04</rscale>
<asrwt>0</asrwt>
<pdfrwt beam="1">  1        2 0.56001675E+00 0.29775308E+04</pdfrwt>
<pdfrwt beam="2">  1       -1 0.93675235E-01 0.29775308E+04</pdfrwt>
<totfact> 0.69480469E-01</totfact>
</mgrwt>
</event>
<event>
12    6  0.1553355E-007  0.1725459E+04  0.7818608E-02  0.8746976E-01
          4   -1    0    0  501    0  0.00000000000E+00  0.00000000000E+00  0.66255040843E+03  0.66255040843E+03  0.00000000000E+00 0. -1.
         -3   -1    0    0    0  501 -0.00000000000E+00 -0.00000000000E+00 -0.11233889757E+04  0.11233889757E+04  0.00000000000E+00 0.  1.
         24    2    1    2    0    0 -0.49788985625E+03 -0.33228567265E+03 -0.35198294324E+03  0.69908492660E+03  0.80744442876E+02 0.  0.
        254    2    1    2    0    0  0.49788985625E+03  0.33228567265E+03 -0.10885562402E+03  0.10868544575E+04  0.90060812107E+03 0.  0.
         23    2    4    4    0    0  0.10506249624E+03  0.89468241856E+02  0.37605761524E+03  0.41100284842E+03  0.91985417395E+02 0.  0.
         23    2    4    4    0    0  0.39282736001E+03  0.24281743080E+03 -0.48491323925E+03  0.67585160910E+03  0.91438003307E+02 0.  0.
          4    1    3    3  502    0 -0.10561512751E+02 -0.13165638575E+02 -0.27563663102E+02  0.32320815495E+02  0.00000000000E+00 0. -1.
         -3    1    3    3    0  502 -0.48732834350E+03 -0.31912003408E+03 -0.32441928014E+03  0.66676411110E+03  0.00000000000E+00 0.  1.
         11    1    5    5    0    0  0.44284454431E+02  0.93472652235E+02  0.20913813257E+03  0.23331739780E+03  0.00000000000E+00 0.  1.
        -11    1    5    5    0    0  0.60778041807E+02 -0.40044103794E+01  0.16691948267E+03  0.17768545062E+03  0.00000000000E+00 0. -1.
          1    1    6    6  503    0  0.69331309385E+02  0.38084739613E+02 -0.13876454318E+03  0.15972750638E+03  0.00000000000E+00 0. -1.
         -1    1    6    6    0  503  0.32349605063E+03  0.20473269118E+03 -0.34614869608E+03  0.51612410272E+03  0.00000000000E+00 0.  1.
<mgrwt>
<rscale>  0 0.17254586E+04</rscale>
<asrwt>0</asrwt>
<pdfrwt beam="1">  1        4 0.10193083E+00 0.17254586E+04</pdfrwt>
<pdfrwt beam="2">  1       -3 0.17282907E+00 0.17254586E+04</pdfrwt>
<totfact> 0.37903902E-01</totfact>
</mgrwt>
</event>
<event>
12    6  0.1553355E-007  0.1483912E+04  0.7818608E-02  0.8895223E-01
          2   -1    0    0  501    0  0.00000000000E+00  0.00000000000E+00  0.43683730266E+03  0.43683730266E+03  0.00000000000E+00 0. -1.
         -1   -1    0    0    0  501 -0.00000000000E+00 -0.00000000000E+00 -0.12601910122E+04  0.12601910122E+04  0.00000000000E+00 0.  1.
         24    2    1    2    0    0 -0.22093209718E+03  0.32520945081E+03 -0.55202243554E+03  0.68253661213E+03  0.80964678058E+02 0.  0.
        254    2    1    2    0    0  0.22093209718E+03 -0.32520945081E+03 -0.27133127398E+03  0.10144917027E+04  0.89498635529E+03 0.  0.
         23    2    4    4    0    0 -0.76777439332E+01 -0.30775211406E+03  0.26970591063E+03  0.41995907346E+03  0.94095875015E+02 0.  0.
         23    2    4    4    0    0  0.22860984112E+03 -0.17457336749E+02 -0.54103718461E+03  0.59453262925E+03  0.90446636430E+02 0.  0.
          4    1    3    3  502    0  0.23937362917E+01 -0.32032136887E+01 -0.33872549520E+01  0.52406151814E+01  0.00000000000E+00 0. -1.
         -3    1    3    3    0  502 -0.22332583348E+03  0.32841266450E+03 -0.54863518059E+03  0.67729599695E+03  0.00000000000E+00 0.  1.
         11    1    5    5    0    0  0.30823462432E+02 -0.14837146571E+03  0.17139228320E+03  0.22877826036E+03  0.00000000000E+00 0. -1.
        -11    1    5    5    0    0 -0.38501206365E+02 -0.15938064835E+03  0.98313627428E+02  0.19118081310E+03  0.00000000000E+00 0.  1.
          4    1    6    6  503    0  0.11220074016E+03  0.25786862376E+02 -0.33196501604E+03  0.35136126742E+03  0.00000000000E+00 0. -1.
         -4    1    6    6    0  503  0.11640910096E+03 -0.43244199125E+02 -0.20907216857E+03  0.24317136183E+03  0.00000000000E+00 0.  1.
<mgrwt>
<rscale>  0 0.14839116E+04</rscale>
<asrwt>0</asrwt>
<pdfrwt beam="1">  1        2 0.67205738E-01 0.14839116E+04</pdfrwt>
<pdfrwt beam="2">  1       -1 0.19387554E+00 0.14839116E+04</pdfrwt>
<totfact> 0.13211902E+01</totfact>
</mgrwt>
</event>
<event>
12    6  0.1553355E-007  0.2641769E+04  0.7818608E-02  0.8354150E-01
         -1   -1    0    0    0  501 -0.00000000000E+00  0.00000000000E+00  0.81014887575E+03  0.81014887575E+03  0.00000000000E+00 0.  1.
          2   -1    0    0  501    0  0.00000000000E+00 -0.00000000000E+00 -0.21535996983E+04  0.21535996983E+04  0.00000000000E+00 0. -1.
         24    2    1    2    0    0 -0.90452641166E+03  0.19115676596E+03  0.20138021797E+03  0.94946132817E+03  0.78828186199E+02 0.  0.
        254    2    1    2    0    0  0.90452641166E+03 -0.19115676596E+03 -0.15448310405E+04  0.20142872458E+04  0.90340535008E+03 0.  0.
         23    2    4    4    0    0  0.25722828489E+03 -0.79483026642E+02 -0.12612433343E+04  0.12930877317E+04  0.94112653482E+02 0.  0.
         23    2    4    4    0    0  0.64729812677E+03 -0.11167373932E+03 -0.28358770620E+03  0.72119951413E+03  0.90779199738E+02 0.  0.
          4    1    3    3  502    0 -0.25563021086E+03  0.67203837334E+02  0.23825630383E+02  0.26538805761E+03  0.00000000000E+00 0. -1.
         -3    1    3    3    0  502 -0.64889620080E+03  0.12395292863E+03  0.17755458759E+03  0.68407327057E+03  0.00000000000E+00 0.  1.
         11    1    5    5    0    0  0.23443747418E+02 -0.38737761719E+02 -0.14532164966E+03  0.15221236919E+03  0.00000000000E+00 0.  1.
        -11    1    5    5    0    0  0.23378453748E+03 -0.40745264923E+02 -0.11159216846E+04  0.11408753625E+04  0.00000000000E+00 0. -1.
          4    1    6    6  503    0  0.28770634916E+03 -0.42168482729E+01 -0.12797615126E+03  0.31491367142E+03  0.00000000000E+00 0.  1.
         -4    1    6    6    0  503  0.35959177761E+03 -0.10745689105E+03 -0.15561155494E+03  0.40628584271E+03  0.00000000000E+00 0. -1.
<mgrwt>
<rscale>  0 0.26417694E+04</rscale>
<asrwt>0</asrwt>
<pdfrwt beam="1">  1        2 0.33132303E+00 0.26417694E+04</pdfrwt>
<pdfrwt beam="2">  1       -1 0.12463829E+00 0.26417694E+04</pdfrwt>
<totfact> 0.30989379E+00</totfact>
</mgrwt>
</event>
<event>
12    6  0.1553355E-007  0.3868579E+04  0.7818608E-02  0.8031596E-01
          2   -1    0    0  501    0  0.00000000000E+00  0.00000000000E+00  0.19483249739E+04  0.19483249739E+04  0.00000000000E+00 0. -1.
         -1   -1    0    0    0  501 -0.00000000000E+00 -0.00000000000E+00 -0.19203550986E+04  0.19203550986E+04  0.00000000000E+00 0.  1.
         24    2    1    2    0    0  0.86244526598E+03 -0.12635851786E+04  0.10163549221E+04  0.18384697090E+04  0.80834417824E+02 0.  0.
        254    2    1    2    0    0 -0.86244526598E+03  0.12635851786E+04 -0.98838504673E+03  0.20302103635E+04  0.89687779494E+03 0.  0.
         23    2    4    4    0    0 -0.84582045329E+03  0.48417362156E+03 -0.64464689402E+03  0.11729254172E+04  0.10172551916E+03 0.  0.
         23    2    4    4    0    0 -0.16624812685E+02  0.77941155701E+03 -0.34373815271E+03  0.85728494631E+03  0.94988430574E+02 0.  0.
          2    1    3    3  502    0  0.74119185021E+03 -0.10795297701E+04  0.90277639624E+03  0.15905203881E+04  0.00000000000E+00 0. -1.
         -1    1    3    3    0  502  0.12125341577E+03 -0.18405540848E+03  0.11357852585E+03  0.24794932095E+03  0.00000000000E+00 0.  1.
         11    1    5    5    0    0 -0.86165281627E+02  0.31507518510E+02 -0.32116198246E+02  0.97204062005E+02  0.00000000000E+00 0. -1.
        -11    1    5    5    0    0 -0.75965517167E+03  0.45266610305E+03 -0.61253069577E+03  0.10757213552E+04  0.00000000000E+00 0.  1.
          1    1    6    6  503    0  0.81907092618E+01  0.24972832058E+02 -0.29865456581E+02  0.39782855051E+02  0.00000000000E+00 0. -1.
         -1    1    6    6    0  503 -0.24815521946E+02  0.75443872495E+03 -0.31387269612E+03  0.81750209126E+03  0.00000000000E+00 0.  1.
<mgrwt>
<rscale>  0 0.38685790E+04</rscale>
<asrwt>0</asrwt>
<pdfrwt beam="1">  1        2 0.29974230E+00 0.38685790E+04</pdfrwt>
<pdfrwt beam="2">  1       -1 0.29543925E+00 0.38685790E+04</pdfrwt>
<totfact> 0.22891517E-01</totfact>
</mgrwt>
</event>
<event>
12    6  0.1553355E-007  0.1355846E+04  0.7818608E-02  0.8986414E-01
          2   -1    0    0  501    0  0.00000000000E+00  0.00000000000E+00  0.44108611285E+03  0.44108611285E+03  0.00000000000E+00 0. -1.
         -1   -1    0    0    0  501 -0.00000000000E+00 -0.00000000000E+00 -0.10419278120E+04  0.10419278120E+04  0.00000000000E+00 0.  1.
         24    2    1    2    0    0  0.14580343328E+03 -0.33130205059E+03 -0.29297921517E+03  0.47305912811E+03  0.83237180888E+02 0.  0.
        254    2    1    2    0    0 -0.14580343328E+03  0.33130205059E+03 -0.30786248399E+03  0.10099547968E+04  0.89118443242E+03 0.  0.
         23    2    4    4    0    0 -0.39082768432E+03 -0.13697725061E+03 -0.12511599380E+03  0.44194459025E+03  0.90288221448E+02 0.  0.
         23    2    4    4    0    0  0.24502425104E+03  0.46827930120E+03 -0.18274649019E+03  0.56801020651E+03  0.99583771240E+02 0.  0.
          4    1    3    3  502    0  0.22406231431E+02 -0.13264480683E+03 -0.78588111182E+02  0.15579722464E+03  0.00000000000E+00 0. -1.
         -3    1    3    3    0  502  0.12339720185E+03 -0.19865724376E+03 -0.21439110399E+03  0.31726190347E+03  0.00000000000E+00 0.  1.
         11    1    5    5    0    0 -0.30736923115E+03 -0.12285588417E+03 -0.13342797022E+03  0.35689275107E+03  0.00000000000E+00 0. -1.
        -11    1    5    5    0    0 -0.83458453175E+02 -0.14121366440E+02  0.83119764132E+01  0.85051839183E+02  0.00000000000E+00 0.  1.
          1    1    6    6  503    0  0.23385373076E+03  0.42748330502E+03 -0.13799084268E+03  0.50642967540E+03  0.00000000000E+00 0. -1.
         -1    1    6    6    0  503  0.11170520280E+02  0.40795996176E+02 -0.44755647516E+02  0.61580531111E+02  0.00000000000E+00 0.  1.
<mgrwt>
<rscale>  0 0.13558464E+04</rscale>
<asrwt>0</asrwt>
<pdfrwt beam="1">  1        2 0.67859402E-01 0.13558464E+04</pdfrwt>
<pdfrwt beam="2">  1       -1 0.16029659E+00 0.13558464E+04</pdfrwt>
<totfact> 0.23106670E+01</totfact>
</mgrwt>
</event>
<event>
12    6  0.1553355E-007  0.1893629E+04  0.7818608E-02  0.8658034E-01
          2   -1    0    0  501    0  0.00000000000E+00  0.00000000000E+00  0.14821424481E+04  0.14821424481E+04  0.00000000000E+00 0. -1.
         -1   -1    0    0    0  501 -0.00000000000E+00 -0.00000000000E+00 -0.60483906769E+03  0.60483906769E+03  0.00000000000E+00 0.  1.
         24    2    1    2    0    0 -0.60643161887E+03 -0.38681682567E+03  0.18729250810E+03  0.74749363826E+03  0.79257117472E+02 0.  0.
        254    2    1    2    0    0  0.60643161887E+03  0.38681682567E+03  0.69001087233E+03  0.13394878775E+04  0.89483305994E+03 0.  0.
         23    2    4    4    0    0  0.78708451988E+03  0.45421861122E+03  0.65315757410E+03  0.11227518398E+04  0.90223549402E+02 0.  0.
         23    2    4    4    0    0 -0.18065290101E+03 -0.67401785553E+02  0.36853298237E+02  0.21673603778E+03  0.91857896461E+02 0.  0.
          2    1    3    3  502    0 -0.15976096566E+02 -0.28017014882E+02  0.28630598237E+01  0.32378787746E+02  0.00000000000E+00 0. -1.
         -1    1    3    3    0  502 -0.59045552230E+03 -0.35879981078E+03  0.18442944827E+03  0.71511485052E+03  0.00000000000E+00 0.  1.
         11    1    5    5    0    0  0.69638219032E+02  0.30083567140E+02  0.85814742751E+02  0.11453677416E+03  0.00000000000E+00 0.  1.
        -11    1    5    5    0    0  0.71744630085E+03  0.42413504408E+03  0.56734283134E+03  0.10082150656E+04  0.00000000000E+00 0. -1.
          1    1    6    6  503    0 -0.13260372468E+03 -0.58410850981E+02  0.66644790813E+02  0.15949013592E+03  0.00000000000E+00 0. -1.
         -1    1    6    6    0  503 -0.48049176331E+02 -0.89909345720E+01 -0.29791492576E+02  0.57245901866E+02  0.00000000000E+00 0.  1.
<mgrwt>
<rscale>  0 0.18936290E+04</rscale>
<asrwt>0</asrwt>
<pdfrwt beam="1">  1        2 0.22802191E+00 0.18936290E+04</pdfrwt>
<pdfrwt beam="2">  1       -1 0.93052165E-01 0.18936290E+04</pdfrwt>
<totfact> 0.15560556E+01</totfact>
</mgrwt>
</event>
<event>
12    6  0.1553355E-007  0.1769940E+04  0.7818608E-02  0.8722450E-01
          2   -1    0    0  501    0  0.00000000000E+00  0.00000000000E+00  0.80074574521E+03  0.80074574521E+03  0.00000000000E+00 0. -1.
         -1   -1    0    0    0  501 -0.00000000000E+00 -0.00000000000E+00 -0.97805308786E+03  0.97805308786E+03  0.00000000000E+00 0.  1.
         24    2    1    2    0    0  0.42702254327E+03 -0.23988837917E+03 -0.49858186005E+03  0.70345715382E+03  0.79833634310E+02 0.  0.
        254    2    1    2    0    0 -0.42702254327E+03  0.23988837917E+03  0.32127451740E+03  0.10753416792E+04  0.90180248650E+03 0.  0.
         23    2    4    4    0    0 -0.92437085966E+02 -0.31941644422E+03  0.24604069674E+01  0.34455198820E+03  0.90213852990E+02 0.  0.
         23    2    4    4    0    0 -0.33458545731E+03  0.55930482339E+03  0.31881411044E+03  0.73078969104E+03  0.87417514337E+02 0.  0.
          2    1    3    3  502    0  0.39756083608E+02  0.17229288802E+01 -0.40883004529E+02  0.57052035258E+02  0.00000000000E+00 0. -1.
         -1    1    3    3    0  502  0.38726645966E+03 -0.24161130805E+03 -0.45769885553E+03  0.64640511857E+03  0.00000000000E+00 0.  1.
         11    1    5    5    0    0 -0.70774831265E+01  0.45861911363E+01 -0.42132481477E+01  0.94273737859E+01  0.00000000000E+00 0. -1.
        -11    1    5    5    0    0 -0.85359602840E+02 -0.32400263535E+03  0.66736551151E+01  0.33512461441E+03  0.00000000000E+00 0.  1.
          2    1    6    6  503    0 -0.25293659596E+03  0.44807447482E+03  0.21288802103E+03  0.55683836619E+03  0.00000000000E+00 0.  1.
         -2    1    6    6    0  503 -0.81648861349E+02  0.11123034857E+03  0.10592608940E+03  0.17395132485E+03  0.00000000000E+00 0. -1.
<mgrwt>
<rscale>  0 0.17699399E+04</rscale>
<asrwt>0</asrwt>
<pdfrwt beam="1">  1        2 0.12319165E+00 0.17699399E+04</pdfrwt>
<pdfrwt beam="2">  1       -1 0.15046971E+00 0.17699399E+04</pdfrwt>
<totfact> 0.12858417E+01</totfact>
</mgrwt>
</event>
<event>
12    6  0.1553355E-007  0.1195984E+04  0.7818608E-02  0.9116379E-01
          2   -1    0    0  501    0  0.00000000000E+00  0.00000000000E+00  0.43596226469E+03  0.43596226469E+03  0.00000000000E+00 0. -1.
         -1   -1    0    0    0  501 -0.00000000000E+00 -0.00000000000E+00 -0.82024168169E+03  0.82024168169E+03  0.00000000000E+00 0.  1.
         24    2    1    2    0    0 -0.23796714609E+03 -0.10786753458E+03 -0.23436378790E+02  0.27353486256E+03  0.77513157262E+02 0.  0.
        254    2    1    2    0    0  0.23796714609E+03  0.10786753458E+03 -0.36084303821E+03  0.98266908381E+03  0.87588073527E+03 0.  0.
         23    2    4    4    0    0  0.47068406284E+03  0.29251623108E+03 -0.86097361561E+02  0.56878406737E+03  0.94833154353E+02 0.  0.
         23    2    4    4    0    0 -0.23271691675E+03 -0.18464869650E+03 -0.27474567665E+03  0.41388501645E+03  0.86967324575E+02 0.  0.
          2    1    3    3  502    0 -0.16396664966E+03 -0.10983109146E+03 -0.58053259477E+01  0.19743766779E+03  0.00000000000E+00 0. -1.
         -1    1    3    3    0  502 -0.74000496433E+02  0.19635568800E+01 -0.17631052842E+02  0.76097194772E+02  0.00000000000E+00 0.  1.
         11    1    5    5    0    0  0.43854850094E+03  0.27679608471E+03 -0.10378119153E+03  0.52887748667E+03  0.00000000000E+00 0.  1.
        -11    1    5    5    0    0  0.32135561900E+02  0.15720146367E+02  0.17683829972E+02  0.39906580696E+02  0.00000000000E+00 0. -1.
          2    1    6    6  503    0 -0.16077481227E+03 -0.15680313920E+03 -0.24179076102E+03  0.32999778308E+03  0.00000000000E+00 0. -1.
         -2    1    6    6    0  503 -0.71942104479E+02 -0.27845557301E+02 -0.32954915629E+02  0.83887233370E+02  0.00000000000E+00 0.  1.
<mgrwt>
<rscale>  0 0.11959840E+04</rscale>
<asrwt>0</asrwt>
<pdfrwt beam="1">  1        2 0.67071118E-01 0.11959840E+04</pdfrwt>
<pdfrwt beam="2">  1       -1 0.12619103E+00 0.11959840E+04</pdfrwt>
<totfact> 0.44523969E+01</totfact>
</mgrwt>
</event>
<event>
12    6  0.1553355E-007  0.2564957E+04  0.7818608E-02  0.8380203E-01
          2   -1    0    0  501    0  0.00000000000E+00  0.00000000000E+00  0.16263522296E+04  0.16263522296E+04  0.00000000000E+00 0. -1.
         -1   -1    0    0    0  501 -0.00000000000E+00 -0.00000000000E+00 -0.10113128565E+04  0.10113128565E+04  0.00000000000E+00 0.  1.
         24    2    1    2    0    0  0.94501151454E+03  0.58468531970E+03  0.43128450118E+03  0.11946893706E+04  0.79829101977E+02 0.  0.
        254    2    1    2    0    0 -0.94501151454E+03 -0.58468531970E+03  0.18375487195E+03  0.14429757155E+04  0.90194754661E+03 0.  0.
         23    2    4    4    0    0 -0.33695857331E+03  0.13394557695E+03 -0.19792497360E+03  0.42313437756E+03  0.91574606698E+02 0.  0.
         23    2    4    4    0    0 -0.60805294124E+03 -0.71863089666E+03  0.38167984555E+03  0.10198413379E+04  0.90764007565E+02 0.  0.
          4    1    3    3  502    0  0.51624612198E+03  0.29880493019E+03  0.26964852897E+03  0.65460276042E+03  0.00000000000E+00 0. -1.
         -3    1    3    3    0  502  0.42876539256E+03  0.28588038952E+03  0.16163597221E+03  0.54008661017E+03  0.00000000000E+00 0.  1.
         11    1    5    5    0    0 -0.30232196036E+03  0.13962157760E+03 -0.19915399986E+03  0.38801426302E+03  0.00000000000E+00 0.  1.
        -11    1    5    5    0    0 -0.34636612951E+02 -0.56760006506E+01  0.12290262606E+01  0.35120114545E+02  0.00000000000E+00 0. -1.
          1    1    6    6  503    0 -0.14991319473E+02 -0.48065483155E+02  0.24835797318E+02  0.56141314189E+02  0.00000000000E+00 0. -1.
         -1    1    6    6    0  503 -0.59306162177E+03 -0.67056541350E+03  0.35684404824E+03  0.96370002374E+03  0.00000000000E+00 0.  1.
<mgrwt>
<rscale>  0 0.25649569E+04</rscale>
<asrwt>0</asrwt>
<pdfrwt beam="1">  1        2 0.25020803E+00 0.25649569E+04</pdfrwt>
<pdfrwt beam="2">  1       -1 0.15558659E+00 0.25649569E+04</pdfrwt>
<totfact> 0.34390802E+00</totfact>
</mgrwt>
</event>
<event>
12    6  0.1553355E-007  0.1733652E+04  0.7818608E-02  0.8742401E-01
         -1   -1    0    0    0  501 -0.00000000000E+00  0.00000000000E+00  0.60829729858E+03  0.60829729858E+03  0.00000000000E+00 0.  1.
          2   -1    0    0  501    0  0.00000000000E+00 -0.00000000000E+00 -0.12352308585E+04  0.12352308585E+04  0.00000000000E+00 0. -1.
         24    2    1    2    0    0  0.32444633702E+03 -0.42014966047E+03  0.14853313914E+03  0.55695142196E+03  0.79634353141E+02 0.  0.
        254    2    1    2    0    0 -0.32444633702E+03  0.42014966047E+03 -0.77546669910E+03  0.12865767352E+04  0.87871493171E+03 0.  0.
         23    2    4    4    0    0 -0.33119029785E+02  0.17771634400E+03 -0.86347844428E+03  0.88687902727E+03  0.90991297427E+02 0.  0.
         23    2    4    4    0    0 -0.29132730723E+03  0.24243331647E+03  0.88011745181E+02  0.39969770788E+03  0.91469544239E+02 0.  0.
          2    1    3    3  502    0  0.29208261524E+03 -0.38911674813E+03  0.15715037285E+03  0.51129280993E+03  0.00000000000E+00 0. -1.
         -1    1    3    3    0  502  0.32363721781E+02 -0.31032912340E+02 -0.86172337023E+01  0.45658612030E+02  0.00000000000E+00 0.  1.
         11    1    5    5    0    0 -0.25720807898E+02  0.32826759827E+02 -0.81430987721E+02  0.91488588801E+02  0.00000000000E+00 0. -1.
        -11    1    5    5    0    0 -0.73982218878E+01  0.14488958418E+03 -0.78204745656E+03  0.79539043847E+03  0.00000000000E+00 0.  1.
          3    1    6    6  503    0 -0.77279326996E+02  0.27936136027E+02  0.44836496471E+02  0.93610007440E+02  0.00000000000E+00 0. -1.
         -3    1    6    6    0  503 -0.21404798024E+03  0.21449718045E+03  0.43175248710E+02  0.30608770044E+03  0.00000000000E+00 0.  1.
<mgrwt>
<rscale>  0 0.17336523E+04</rscale>
<asrwt>0</asrwt>
<pdfrwt beam="1">  1        2 0.19003552E+00 0.17336523E+04</pdfrwt>
<pdfrwt beam="2">  1       -1 0.93584200E-01 0.17336523E+04</pdfrwt>
<totfact> 0.21628895E+01</totfact>
</mgrwt>
</event>
<event>
12    6  0.1553355E-007  0.1685682E+04  0.7818608E-02  0.8769573E-01
          2   -1    0    0  501    0  0.00000000000E+00  0.00000000000E+00  0.11853574945E+04  0.11853574945E+04  0.00000000000E+00 0. -1.
         -1   -1    0    0    0  501 -0.00000000000E+00 -0.00000000000E+00 -0.59929681781E+03  0.59929681781E+03  0.00000000000E+00 0.  1.
         24    2    1    2    0    0  0.37312187863E+03 -0.30600267037E+03  0.60258081057E+03  0.77651870725E+03  0.83786030171E+02 0.  0.
        254    2    1    2    0    0 -0.37312187863E+03  0.30600267037E+03 -0.16520133897E+02  0.10081356050E+04  0.88498978116E+03 0.  0.
         23    2    4    4    0    0  0.13140358355E+03  0.33956013617E+03 -0.24242647294E+03  0.44669220618E+03  0.90528141673E+02 0.  0.
         23    2    4    4    0    0 -0.50452546218E+03 -0.33557465799E+02  0.22590633905E+03  0.56144339887E+03  0.92265760802E+02 0.  0.
          4    1    3    3  502    0  0.37731820958E+03 -0.30264090665E+03  0.59064593962E+03  0.76342856617E+03  0.00000000000E+00 0. -1.
         -3    1    3    3    0  502 -0.41963309509E+01 -0.33617637221E+01  0.11934870950E+02  0.13090141075E+02  0.00000000000E+00 0.  1.
         11    1    5    5    0    0  0.80829359340E+02  0.94937715917E+02 -0.67985974828E+02  0.14201636528E+03  0.00000000000E+00 0. -1.
        -11    1    5    5    0    0  0.50574224206E+02  0.24462242025E+03 -0.17444049811E+03  0.30467584090E+03  0.00000000000E+00 0.  1.
          2    1    6    6  503    0 -0.17599865983E+03 -0.54805439998E+02  0.69978275045E+02  0.19717029059E+03  0.00000000000E+00 0.  1.
         -2    1    6    6    0  503 -0.32852680235E+03  0.21247974199E+02  0.15592806400E+03  0.36427310827E+03  0.00000000000E+00 0. -1.
<mgrwt>
<rscale>  0 0.16856820E+04</rscale>
<asrwt>0</asrwt>
<pdfrwt beam="1">  1        2 0.18236269E+00 0.16856820E+04</pdfrwt>
<pdfrwt beam="2">  1       -1 0.92199511E-01 0.16856820E+04</pdfrwt>
<totfact> 0.24041418E+01</totfact>
</mgrwt>
</event>
<event>
12    6  0.1553355E-007  0.1499723E+04  0.7818608E-02  0.8884637E-01
         -1   -1    0    0    0  501 -0.00000000000E+00  0.00000000000E+00  0.18900449600E+03  0.18900449600E+03  0.00000000000E+00 0.  1.
          2   -1    0    0  501    0  0.00000000000E+00 -0.00000000000E+00 -0.29750225508E+04  0.29750225508E+04  0.00000000000E+00 0. -1.
         24    2    1    2    0    0 -0.30920812664E+03  0.33146067430E+03 -0.58706855140E+03  0.74583696591E+03  0.78405685378E+02 0.  0.
        254    2    1    2    0    0  0.30920812664E+03 -0.33146067430E+03 -0.21989495034E+04  0.24181900809E+04  0.89821406391E+03 0.  0.
         23    2    4    4    0    0  0.31157416234E+01  0.29105083657E+03 -0.61558917268E+03  0.68710391119E+03  0.91877407140E+02 0.  0.
         23    2    4    4    0    0  0.30609238501E+03 -0.62251151087E+03 -0.15833603307E+04  0.17310861697E+04  0.91740180230E+02 0.  0.
          4    1    3    3  502    0 -0.15215690938E+02  0.37873689239E+02 -0.28912280235E+02  0.50018531923E+02  0.00000000000E+00 0. -1.
         -3    1    3    3    0  502 -0.29399243570E+03  0.29358698506E+03 -0.55815627116E+03  0.69581843399E+03  0.00000000000E+00 0.  1.
         11    1    5    5    0    0 -0.35288481761E+02  0.94814870438E+02 -0.26258879369E+03  0.28140364457E+03  0.00000000000E+00 0. -1.
        -11    1    5    5    0    0  0.38404223384E+02  0.19623596613E+03 -0.35300037898E+03  0.40570026662E+03  0.00000000000E+00 0.  1.
          4    1    6    6  503    0  0.19901971615E+03 -0.30558605112E+03 -0.79209145372E+03  0.87200949141E+03  0.00000000000E+00 0. -1.
         -4    1    6    6    0  503  0.10707266887E+03 -0.31692545975E+03 -0.79126887701E+03  0.85907667829E+03  0.00000000000E+00 0.  1.
<mgrwt>
<rscale>  0 0.14997235E+04</rscale>
<asrwt>0</asrwt>
<pdfrwt beam="1">  1        2 0.45769575E+00 0.14997235E+04</pdfrwt>
<pdfrwt beam="2">  1       -1 0.29077617E-01 0.14997235E+04</pdfrwt>
<totfact> 0.21557727E+01</totfact>
</mgrwt>
</event>
<event>
12    6  0.1553355E-007  0.1589254E+04  0.7818608E-02  0.8827177E-01
          2   -1    0    0  501    0  0.00000000000E+00  0.00000000000E+00  0.86686810786E+03  0.86686810786E+03  0.00000000000E+00 0. -1.
         -1   -1    0    0    0  501 -0.00000000000E+00 -0.00000000000E+00 -0.72840576353E+03  0.72840576353E+03  0.00000000000E+00 0.  1.
         24    2    1    2    0    0  0.43544723881E+03  0.24873120631E+03 -0.13658996053E+03  0.52570170202E+03  0.78892023735E+02 0.  0.
        254    2    1    2    0    0 -0.43544723881E+03 -0.24873120631E+03  0.27505230487E+03  0.10695721694E+04  0.90379718097E+03 0.  0.
         23    2    4    4    0    0 -0.13494996133E+03  0.54836962448E+02 -0.30121863344E+03  0.34650105730E+03  0.90065160089E+02 0.  0.
         23    2    4    4    0    0 -0.30049727747E+03 -0.30356816876E+03  0.57627093831E+03  0.72307111208E+03  0.91057080652E+02 0.  0.
          4    1    3    3  502    0  0.35884586004E+03  0.17219389123E+03 -0.91498532858E+02  0.40840307169E+03  0.00000000000E+00 0. -1.
         -3    1    3    3    0  502  0.76601378762E+02  0.76537315077E+02 -0.45091427673E+02  0.11729863033E+03  0.00000000000E+00 0.  1.
         11    1    5    5    0    0 -0.16725696164E+02  0.43563227966E+02 -0.13004441935E+03  0.13816314540E+03  0.00000000000E+00 0. -1.
        -11    1    5    5    0    0 -0.11822426517E+03  0.11273734482E+02 -0.17117421409E+03  0.20833791190E+03  0.00000000000E+00 0.  1.
          2    1    6    6  503    0 -0.22270410364E+03 -0.26883920399E+03  0.49172526243E+03  0.60304673873E+03  0.00000000000E+00 0. -1.
         -2    1    6    6    0  503 -0.77793173835E+02 -0.34728964771E+02  0.84545675874E+02  0.12002437335E+03  0.00000000000E+00 0.  1.
<mgrwt>
<rscale>  0 0.15892536E+04</rscale>
<asrwt>0</asrwt>
<pdfrwt beam="1">  1        2 0.13336432E+00 0.15892536E+04</pdfrwt>
<pdfrwt beam="2">  1       -1 0.11206242E+00 0.15892536E+04</pdfrwt>
<totfact> 0.24719036E+01</totfact>
</mgrwt>
</event>
<event>
12    6  0.1553355E-007  0.2161419E+04  0.7818608E-02  0.8534660E-01
          2   -1    0    0  501    0  0.00000000000E+00  0.00000000000E+00  0.26979405147E+04  0.26979405147E+04  0.00000000000E+00 0. -1.
         -1   -1    0    0    0  501 -0.00000000000E+00 -0.00000000000E+00 -0.43289813843E+03  0.43289813843E+03  0.00000000000E+00 0.  1.
         24    2    1    2    0    0  0.23406474276E+03  0.55962399936E+03  0.18722333168E+04  0.19698565455E+04  0.84332040451E+02 0.  0.
        254    2    1    2    0    0 -0.23406474276E+03 -0.55962399936E+03  0.39280905953E+03  0.11609821076E+04  0.90863368446E+03 0.  0.
         23    2    4    4    0    0 -0.24544399044E+03  0.16988887422E+03 -0.29078604145E+02  0.31357719288E+03  0.91542933351E+02 0.  0.
         23    2    4    4    0    0  0.11379247686E+02 -0.72951287358E+03  0.42188766367E+03  0.84740491476E+03  0.88246069548E+02 0.  0.
          4    1    3    3  502    0  0.22739045255E+03  0.53372071984E+03  0.18309744932E+04  0.19206852474E+04  0.00000000000E+00 0. -1.
         -3    1    3    3    0  502  0.66742902070E+01  0.25903279523E+02  0.41258823551E+02  0.49171298139E+02  0.00000000000E+00 0.  1.
         11    1    5    5    0    0 -0.12847831368E+03  0.12993723039E+03 -0.47015763462E+02  0.18868185642E+03  0.00000000000E+00 0. -1.
        -11    1    5    5    0    0 -0.11696567676E+03  0.39951643828E+02  0.17937159317E+02  0.12489533646E+03  0.00000000000E+00 0.  1.
          1    1    6    6  503    0 -0.14925320433E+02 -0.64372440423E+03  0.35323946757E+03  0.73442630348E+03  0.00000000000E+00 0. -1.
         -1    1    6    6    0  503  0.26304568118E+02 -0.85788469351E+02  0.68648196106E+02  0.11297861128E+03  0.00000000000E+00 0.  1.
<mgrwt>
<rscale>  0 0.21614194E+04</rscale>
<asrwt>0</asrwt>
<pdfrwt beam="1">  1        2 0.41506776E+00 0.21614194E+04</pdfrwt>
<pdfrwt beam="2">  1       -1 0.66599715E-01 0.21614194E+04</pdfrwt>
<totfact> 0.63511707E+00</totfact>
</mgrwt>
</event>
<event>
12    6  0.1553355E-007  0.1582720E+04  0.7818608E-02  0.8831234E-01
          2   -1    0    0  501    0  0.00000000000E+00  0.00000000000E+00  0.17596516525E+04  0.17596516525E+04  0.00000000000E+00 0. -1.
         -1   -1    0    0    0  501 -0.00000000000E+00 -0.00000000000E+00 -0.35589478995E+03  0.35589478995E+03  0.00000000000E+00 0.  1.
         24    2    1    2    0    0 -0.45017728453E+03  0.27505962073E+03  0.51860312580E+03  0.74398339232E+03  0.79023436353E+02 0.  0.
        254    2    1    2    0    0  0.45017728453E+03 -0.27505962073E+03  0.88515373674E+03  0.13715630501E+04  0.90519096347E+03 0.  0.
         23    2    4    4    0    0  0.67494783405E+03 -0.24073704975E+03  0.39665264382E+03  0.82481868887E+03  0.97384002056E+02 0.  0.
         23    2    4    4    0    0 -0.22477054952E+03 -0.34322570987E+02  0.48850109291E+03  0.54674436125E+03  0.92715910027E+02 0.  0.
          4    1    3    3  502    0 -0.14923538486E+03  0.11060442523E+03  0.23087567621E+03  0.29632434399E+03  0.00000000000E+00 0. -1.
         -1    1    3    3    0  502 -0.30094189967E+03  0.16445519551E+03  0.28772744959E+03  0.44765904833E+03  0.00000000000E+00 0.  1.
         11    1    5    5    0    0  0.27830741720E+03 -0.51585477609E+02  0.13775921464E+03  0.31479148843E+03  0.00000000000E+00 0.  1.
        -11    1    5    5    0    0  0.39664041685E+03 -0.18915157214E+03  0.25889342919E+03  0.51002720045E+03  0.00000000000E+00 0. -1.
          4    1    6    6  503    0 -0.10773547025E+03  0.23904622548E+02  0.27615094371E+03  0.29738477809E+03  0.00000000000E+00 0. -1.
         -4    1    6    6    0  503 -0.11703507927E+03 -0.58227193535E+02  0.21235014920E+03  0.24935958315E+03  0.00000000000E+00 0.  1.
<mgrwt>
<rscale>  0 0.15827203E+04</rscale>
<asrwt>0</asrwt>
<pdfrwt beam="1">  1        2 0.27071563E+00 0.15827203E+04</pdfrwt>
<pdfrwt beam="2">  1       -1 0.54753045E-01 0.15827203E+04</pdfrwt>
<totfact> 0.33495218E+01</totfact>
</mgrwt>
</event>
<event>
12    6  0.1553355E-007  0.1181014E+04  0.7818608E-02  0.9129639E-01
         -1   -1    0    0    0  501 -0.00000000000E+00  0.00000000000E+00  0.40249971551E+03  0.40249971551E+03  0.00000000000E+00 0.  1.
          2   -1    0    0  501    0  0.00000000000E+00 -0.00000000000E+00 -0.86633277272E+03  0.86633277272E+03  0.00000000000E+00 0. -1.
         24    2    1    2    0    0  0.11860103897E+03  0.59369718101E+02  0.10933481244E+03  0.19018603451E+03  0.81398136591E+02 0.  0.
        254    2    1    2    0    0 -0.11860103897E+03 -0.59369718101E+02 -0.57316786965E+03  0.10786464537E+04  0.90408284766E+03 0.  0.
         23    2    4    4    0    0 -0.39733520332E+03  0.19146232024E+02 -0.64975773430E+03  0.76734756526E+03  0.91626036892E+02 0.  0.
         23    2    4    4    0    0  0.27873416436E+03 -0.78515950124E+02  0.76589864648E+02  0.31129888845E+03  0.84755541290E+02 0.  0.
          4    1    3    3  502    0 -0.89508200582E+01  0.41942572840E+01  0.26768253057E+02  0.28535037158E+02  0.00000000000E+00 0. -1.
         -3    1    3    3    0  502  0.12755185902E+03  0.55175460817E+02  0.82566559382E+02  0.16165099735E+03  0.00000000000E+00 0.  1.
         11    1    5    5    0    0 -0.67215054501E+02 -0.13010778038E+02 -0.17754462610E+03  0.19028725169E+03  0.00000000000E+00 0. -1.
        -11    1    5    5    0    0 -0.33012014882E+03  0.32157010061E+02 -0.47221310819E+03  0.57706031358E+03  0.00000000000E+00 0.  1.
          2    1    6    6  503    0  0.13928451223E+03 -0.20219981323E+02  0.76422588112E+02  0.16015440976E+03  0.00000000000E+00 0. -1.
         -2    1    6    6    0  503  0.13944965212E+03 -0.58295968801E+02  0.16727653502E+00  0.15114447869E+03  0.00000000000E+00 0.  1.
<mgrwt>
<rscale>  0 0.11810143E+04</rscale>
<asrwt>0</asrwt>
<pdfrwt beam="1">  1        2 0.13328196E+00 0.11810143E+04</pdfrwt>
<pdfrwt beam="2">  1       -1 0.61923033E-01 0.11810143E+04</pdfrwt>
<totfact> 0.92225826E+01</totfact>
</mgrwt>
</event>
<event>
12    6  0.1553355E-007  0.2284457E+04  0.7818608E-02  0.8484075E-01
          2   -1    0    0  501    0  0.00000000000E+00  0.00000000000E+00  0.13297919153E+04  0.13297919153E+04  0.00000000000E+00 0. -1.
         -1   -1    0    0    0  501 -0.00000000000E+00 -0.00000000000E+00 -0.98112031839E+03  0.98112031839E+03  0.00000000000E+00 0.  1.
         24    2    1    2    0    0  0.24407093459E+03  0.30130847270E+03 -0.74434271861E+03  0.84314957316E+03  0.80608331667E+02 0.  0.
        254    2    1    2    0    0 -0.24407093459E+03 -0.30130847270E+03  0.10930143155E+04  0.14677626605E+04  0.89960520058E+03 0.  0.
         23    2    4    4    0    0 -0.28897173907E+02  0.29778919805E+02  0.10569948340E+04  0.10613889663E+04  0.87101251804E+02 0.  0.
         23    2    4    4    0    0 -0.21517376068E+03 -0.33108739251E+03  0.36019481571E+02  0.40637369424E+03  0.89014423289E+02 0.  0.
          4    1    3    3  502    0  0.64026979229E+02  0.13382758466E+03 -0.31979811427E+03  0.35253384288E+03  0.00000000000E+00 0. -1.
         -3    1    3    3    0  502  0.18004395536E+03  0.16748088804E+03 -0.42454460434E+03  0.49061573028E+03  0.00000000000E+00 0.  1.
         11    1    5    5    0    0  0.18435116917E+02  0.33124519136E+01  0.70433540623E+03  0.70458440966E+03  0.00000000000E+00 0.  1.
        -11    1    5    5    0    0 -0.47332290824E+02  0.26466467892E+02  0.35265942773E+03  0.35680455665E+03  0.00000000000E+00 0. -1.
          4    1    6    6  503    0 -0.30691643318E+01 -0.15821866143E+01 -0.11152461971E+02  0.11674780178E+02  0.00000000000E+00 0. -1.
         -4    1    6    6    0  503 -0.21210459635E+03 -0.32950520589E+03  0.47171943543E+02  0.39469891406E+03  0.00000000000E+00 0.  1.
<mgrwt>
<rscale>  0 0.22844569E+04</rscale>
<asrwt>0</asrwt>
<pdfrwt beam="1">  1        2 0.20458337E+00 0.22844569E+04</pdfrwt>
<pdfrwt beam="2">  1       -1 0.15094159E+00 0.22844569E+04</pdfrwt>
<totfact> 0.56372312E+00</totfact>
</mgrwt>
</event>
<event>
12    6  0.1553355E-007  0.3676416E+04  0.7818608E-02  0.8073208E-01
          2   -1    0    0  501    0  0.00000000000E+00  0.00000000000E+00  0.14590484123E+04  0.14590484123E+04  0.00000000000E+00 0. -1.
         -1   -1    0    0    0  501 -0.00000000000E+00 -0.00000000000E+00 -0.23158993084E+04  0.23158993084E+04  0.00000000000E+00 0.  1.
         24    2    1    2    0    0 -0.13942509109E+03 -0.83294365271E+03 -0.19499700830E+04  0.21264824096E+04  0.79433173883E+02 0.  0.
        254    2    1    2    0    0  0.13942509109E+03  0.83294365271E+03  0.10931191869E+04  0.16484653112E+04  0.89960760375E+03 0.  0.
         23    2    4    4    0    0  0.36485729968E+03  0.41705193219E+03  0.10149459696E+04  0.11603212412E+04  0.95796128452E+02 0.  0.
         23    2    4    4    0    0 -0.22543220859E+03  0.41589172052E+03  0.78173217297E+02  0.48814407000E+03  0.91585901229E+02 0.  0.
          4    1    3    3  502    0 -0.28719340969E+02 -0.11471773783E+03 -0.21313015486E+03  0.24374048254E+03  0.00000000000E+00 0. -1.
         -3    1    3    3    0  502 -0.11070575012E+03 -0.71822591488E+03 -0.17368399281E+04  0.18827419270E+04  0.00000000000E+00 0.  1.
         11    1    5    5    0    0  0.42014711298E+02  0.81291168802E+02  0.23060149863E+03  0.24809381544E+03  0.00000000000E+00 0. -1.
        -11    1    5    5    0    0  0.32284258838E+03  0.33576076339E+03  0.78434447096E+03  0.91222742571E+03  0.00000000000E+00 0.  1.
          1    1    6    6  503    0 -0.11602222604E+02  0.91701194366E+02  0.24087751970E+01  0.92463629690E+02  0.00000000000E+00 0. -1.
         -1    1    6    6    0  503 -0.21382998599E+03  0.32419052616E+03  0.75764442100E+02  0.39568044031E+03  0.00000000000E+00 0.  1.
<mgrwt>
<rscale>  0 0.36764163E+04</rscale>
<asrwt>0</asrwt>
<pdfrwt beam="1">  1        2 0.22446899E+00 0.36764163E+04</pdfrwt>
<pdfrwt beam="2">  1       -1 0.35629220E+00 0.36764163E+04</pdfrwt>
<totfact> 0.17420394E-01</totfact>
</mgrwt>
</event>
<event>
12    6  0.1916504E-007  0.1995041E+04  0.7818608E-02  0.8608943E-01
          2   -1    0    0  501    0  0.00000000000E+00  0.00000000000E+00  0.17180480410E+04  0.17180480410E+04  0.00000000000E+00 0. -1.
         -1   -1    0    0    0  501 -0.00000000000E+00 -0.00000000000E+00 -0.57917323797E+03  0.57917323797E+03  0.00000000000E+00 0.  1.
         24    2    1    2    0    0 -0.33685102421E+02  0.72869149439E+03  0.10315446349E+03  0.74102471512E+03  0.79691937826E+02 0.  0.
        254    2    1    2    0    0  0.33685102421E+02 -0.72869149439E+03  0.10357203396E+04  0.15561965639E+04  0.90382804975E+03 0.  0.
         23    2    4    4    0    0  0.40384868174E+03 -0.12930805950E+03  0.26675348897E+03  0.50934322450E+03  0.91971541666E+02 0.  0.
         23    2    4    4    0    0 -0.37016357932E+03 -0.59938343489E+03  0.76896685059E+03  0.10468533394E+04  0.91160953134E+02 0.  0.
          2    1    3    3  502    0 -0.22559810475E+02  0.60566168965E+02 -0.15692338893E+01  0.64650354730E+02  0.00000000000E+00 0. -1.
         -1    1    3    3    0  502 -0.11125291946E+02  0.66812532542E+03  0.10472369738E+03  0.67637436039E+03  0.00000000000E+00 0.  1.
         11    1    5    5    0    0  0.67039749624E+02 -0.51038153769E+02  0.80761450061E+02  0.11671175170E+03  0.00000000000E+00 0. -1.
        -11    1    5    5    0    0  0.33680893211E+03 -0.78269905729E+02  0.18599203891E+03  0.39263147280E+03  0.00000000000E+00 0.  1.
          3    1    6    6  503    0 -0.17751319887E+03 -0.21183986633E+03  0.27057936957E+03  0.38678192819E+03  0.00000000000E+00 0. -1.
         -3    1    6    6    0  503 -0.19265038044E+03 -0.38754356856E+03  0.49838748103E+03  0.66007141118E+03  0.00000000000E+00 0.  1.
<mgrwt>
<rscale>  0 0.19950413E+04</rscale>
<asrwt>0</asrwt>
<pdfrwt beam="1">  1        2 0.26431508E+00 0.19950413E+04</pdfrwt>
<pdfrwt beam="2">  1       -1 0.89103576E-01 0.19950413E+04</pdfrwt>
<totfact> 0.12526367E+01</totfact>
</mgrwt>
</event>
<event>
12    6  0.1553355E-007  0.1831457E+04  0.7818608E-02  0.8689748E-01
          2   -1    0    0  501    0  0.00000000000E+00  0.00000000000E+00  0.12710786579E+04  0.12710786579E+04  0.00000000000E+00 0. -1.
         -1   -1    0    0    0  501 -0.00000000000E+00 -0.00000000000E+00 -0.65972208671E+03  0.65972208671E+03  0.00000000000E+00 0.  1.
         24    2    1    2    0    0  0.50633319504E+03 -0.44238676971E+03  0.35692905360E+03  0.76540447252E+03  0.79789089761E+02 0.  0.
        254    2    1    2    0    0 -0.50633319504E+03  0.44238676971E+03  0.25442751763E+03  0.11653962721E+04  0.91724356142E+03 0.  0.
         23    2    4    4    0    0 -0.64825730441E+02  0.12786027031E+03 -0.32440560026E+03  0.36630344094E+03  0.91589264191E+02 0.  0.
         23    2    4    4    0    0 -0.44150746460E+03  0.31452649940E+03  0.57883311789E+03  0.79909283119E+03  0.98213106959E+02 0.  0.
          2    1    3    3  502    0  0.37614671453E+03 -0.33570343140E+03  0.30507806831E+03  0.58928411863E+03  0.00000000000E+00 0. -1.
         -1    1    3    3    0  502  0.13018648051E+03 -0.10668333831E+03  0.51850985283E+02  0.17612035389E+03  0.00000000000E+00 0.  1.
         11    1    5    5    0    0 -0.59730077377E+02  0.13150601802E+03 -0.22934276774E+03  0.27103435213E+03  0.00000000000E+00 0.  1.
        -11    1    5    5    0    0 -0.50956530638E+01 -0.36457477131E+01 -0.95062832514E+02  0.95269088807E+02  0.00000000000E+00 0. -1.
          1    1    6    6  503    0 -0.15945569295E+03  0.64131612333E+02  0.15133759166E+03  0.22900228899E+03  0.00000000000E+00 0. -1.
         -1    1    6    6    0  503 -0.28205177164E+03  0.25039488706E+03  0.42749552623E+03  0.57009054220E+03  0.00000000000E+00 0.  1.
<mgrwt>
<rscale>  0 0.18314570E+04</rscale>
<asrwt>0</asrwt>
<pdfrwt beam="1">  1        2 0.19555056E+00 0.18314570E+04</pdfrwt>
<pdfrwt beam="2">  1       -1 0.10149571E+00 0.18314570E+04</pdfrwt>
<totfact> 0.16999424E+01</totfact>
</mgrwt>
</event>
<event>
12    6  0.1553355E-007  0.1767944E+04  0.7818608E-02  0.8723534E-01
         -1   -1    0    0    0  501 -0.00000000000E+00  0.00000000000E+00  0.11254861076E+04  0.11254861076E+04  0.00000000000E+00 0.  1.
          2   -1    0    0  501    0  0.00000000000E+00 -0.00000000000E+00 -0.69428391798E+03  0.69428391798E+03  0.00000000000E+00 0. -1.
         24    2    1    2    0    0 -0.18801019168E+03  0.36747301391E+03 -0.34102760788E+03  0.54269112205E+03  0.88484894164E+02 0.  0.
        254    2    1    2    0    0  0.18801019168E+03 -0.36747301391E+03  0.77222979747E+03  0.12770789035E+04  0.92962756926E+03 0.  0.
         23    2    4    4    0    0 -0.31881453162E+03  0.66592531317E+02  0.19556858802E+03  0.39038438178E+03  0.89864465260E+02 0.  0.
         23    2    4    4    0    0  0.50682472330E+03 -0.43406554523E+03  0.57666120945E+03  0.88669452172E+03  0.91677841658E+02 0.  0.
          4    1    3    3  502    0 -0.10259846643E+03  0.28512532170E+03 -0.25662577923E+03  0.39708901389E+03  0.00000000000E+00 0. -1.
         -3    1    3    3    0  502 -0.85411725250E+02  0.82347692212E+02 -0.84401828642E+02  0.14560210816E+03  0.00000000000E+00 0.  1.
         11    1    5    5    0    0 -0.10886754315E+03  0.64976865556E+02  0.58346423702E+02  0.13956518251E+03  0.00000000000E+00 0. -1.
        -11    1    5    5    0    0 -0.20994698847E+03  0.16156657616E+01  0.13722216431E+03  0.25081919927E+03  0.00000000000E+00 0.  1.
          1    1    6    6  503    0  0.21463393112E+03 -0.24410725937E+03  0.28016491180E+03  0.42912522213E+03  0.00000000000E+00 0. -1.
         -1    1    6    6    0  503  0.29219079218E+03 -0.18995828586E+03  0.29649629765E+03  0.45756929959E+03  0.00000000000E+00 0.  1.
<mgrwt>
<rscale>  0 0.17679445E+04</rscale>
<asrwt>0</asrwt>
<pdfrwt beam="1">  1        2 0.10681291E+00 0.17679445E+04</pdfrwt>
<pdfrwt beam="2">  1       -1 0.17315171E+00 0.17679445E+04</pdfrwt>
<totfact> 0.10439379E+01</totfact>
</mgrwt>
</event>
<event>
12    6  0.1553355E-007  0.2840416E+04  0.7818608E-02  0.8290830E-01
         -1   -1    0    0    0  501 -0.00000000000E+00  0.00000000000E+00  0.14705888107E+04  0.14705888107E+04  0.00000000000E+00 0.  1.
          2   -1    0    0  501    0  0.00000000000E+00 -0.00000000000E+00 -0.13715527894E+04  0.13715527894E+04  0.00000000000E+00 0. -1.
         24    2    1    2    0    0  0.25206625028E+03 -0.71526679747E+03  0.10685780168E+04  0.13127359501E+04  0.79200446791E+02 0.  0.
        254    2    1    2    0    0 -0.25206625028E+03  0.71526679747E+03 -0.96954199547E+03  0.15294056499E+04  0.90770368232E+03 0.  0.
         23    2    4    4    0    0 -0.69488771323E+02  0.75642412369E+03 -0.28917697686E+03  0.81793718391E+03  0.91606597046E+02 0.  0.
         23    2    4    4    0    0 -0.18257747896E+03 -0.41157326226E+02 -0.68036501861E+03  0.71146846600E+03  0.90897515070E+02 0.  0.
          4    1    3    3  502    0  0.28365440548E+02 -0.67909450557E+02  0.68083334812E+02  0.10025782848E+03  0.00000000000E+00 0. -1.
         -3    1    3    3    0  502  0.22370080973E+03 -0.64735734691E+03  0.10004946820E+04  0.12124781217E+04  0.00000000000E+00 0.  1.
         11    1    5    5    0    0 -0.21980677157E+01  0.39572481978E+03 -0.18275875743E+03  0.43589417054E+03  0.00000000000E+00 0. -1.
        -11    1    5    5    0    0 -0.67290703608E+02  0.36069930391E+03 -0.10641821943E+03  0.38204301337E+03  0.00000000000E+00 0.  1.
          3    1    6    6  503    0  0.75327076373E+01  0.63729023488E+00 -0.62352306765E+01  0.97992818504E+01  0.00000000000E+00 0. -1.
         -3    1    6    6    0  503 -0.19011018659E+03 -0.41794616461E+02 -0.67412978793E+03  0.70166918415E+03  0.00000000000E+00 0.  1.
<mgrwt>
<rscale>  0 0.28404156E+04</rscale>
<asrwt>0</asrwt>
<pdfrwt beam="1">  1        2 0.21100812E+00 0.28404156E+04</pdfrwt>
<pdfrwt beam="2">  1       -1 0.22624443E+00 0.28404156E+04</pdfrwt>
<totfact> 0.14839264E+00</totfact>
</mgrwt>
</event>
<event>
12    6  0.1553355E-007  0.2778513E+04  0.7818608E-02  0.8309970E-01
          2   -1    0    0  501    0  0.00000000000E+00  0.00000000000E+00  0.90571810048E+03  0.90571810048E+03  0.00000000000E+00 0. -1.
         -1   -1    0    0    0  501 -0.00000000000E+00 -0.00000000000E+00 -0.21309431814E+04  0.21309431814E+04  0.00000000000E+00 0.  1.
         24    2    1    2    0    0 -0.11215448767E+04  0.19363384643E+03 -0.10829265460E+04  0.15729022245E+04  0.77035879904E+02 0.  0.
        254    2    1    2    0    0  0.11215448767E+04 -0.19363384643E+03 -0.14229853493E+03  0.14637590574E+04  0.90938700672E+03 0.  0.
         23    2    4    4    0    0 -0.13437018013E+03 -0.69160089140E+02  0.53203254231E+02  0.18332066631E+03  0.89092183713E+02 0.  0.
         23    2    4    4    0    0  0.12559150569E+04 -0.12447375729E+03 -0.19550178916E+03  0.12804383911E+04  0.92115022868E+02 0.  0.
          2    1    3    3  502    0 -0.18898151990E+03  0.60935186809E+02 -0.17690919153E+03  0.26593979376E+03  0.00000000000E+00 0. -1.
         -1    1    3    3    0  502 -0.93256335684E+03  0.13269865962E+03 -0.90601735444E+03  0.13069624307E+04  0.00000000000E+00 0.  1.
         11    1    5    5    0    0 -0.69887583257E+02  0.91555875399E+01  0.40695765422E+01  0.70602128367E+02  0.00000000000E+00 0.  1.
        -11    1    5    5    0    0 -0.64482596869E+02 -0.78315676680E+02  0.49133677689E+02  0.11271853794E+03  0.00000000000E+00 0. -1.
          1    1    6    6  503    0  0.24859412801E+03  0.96454106609E+01 -0.51819334689E+02  0.25412067581E+03  0.00000000000E+00 0. -1.
         -1    1    6    6    0  503  0.10073209289E+04 -0.13411916795E+03 -0.14368245447E+03  0.10263177153E+04  0.00000000000E+00 0.  1.
<mgrwt>
<rscale>  0 0.27785131E+04</rscale>
<asrwt>0</asrwt>
<pdfrwt beam="1">  1        2 0.13934125E+00 0.27785131E+04</pdfrwt>
<pdfrwt beam="2">  1       -1 0.32783741E+00 0.27785131E+04</pdfrwt>
<totfact> 0.62808558E-01</totfact>
</mgrwt>
</event>
<event>
12    6  0.1553355E-007  0.1485883E+04  0.7818608E-02  0.8893895E-01
          2   -1    0    0  501    0  0.00000000000E+00  0.00000000000E+00  0.13730877323E+04  0.13730877323E+04  0.00000000000E+00 0. -1.
         -1   -1    0    0    0  501 -0.00000000000E+00 -0.00000000000E+00 -0.40198587971E+03  0.40198587971E+03  0.00000000000E+00 0.  1.
         24    2    1    2    0    0  0.39600779621E+03  0.12097190451E+03  0.55166678125E+03  0.69404101585E+03  0.76813526259E+02 0.  0.
        254    2    1    2    0    0 -0.39600779621E+03 -0.12097190451E+03  0.41943507132E+03  0.10810325961E+04  0.90622807202E+03 0.  0.
         23    2    4    4    0    0 -0.42191676083E+03  0.23012998739E+03 -0.43590739964E+02  0.49128289600E+03  0.92114966903E+02 0.  0.
         23    2    4    4    0    0  0.25908964616E+02 -0.35110189190E+03  0.46302581129E+03  0.58974970014E+03  0.97303617366E+02 0.  0.
          4    1    3    3  502    0  0.14306485757E+03  0.58494819975E+02  0.26404837595E+03  0.30595872643E+03  0.00000000000E+00 0. -1.
         -3    1    3    3    0  502  0.25294293864E+03  0.62477084539E+02  0.28761840529E+03  0.38808228943E+03  0.00000000000E+00 0.  1.
         11    1    5    5    0    0 -0.37616549140E+02  0.33676084431E+02 -0.31503771788E+02  0.59511100382E+02  0.00000000000E+00 0.  1.
        -11    1    5    5    0    0 -0.38430021169E+03  0.19645390296E+03 -0.12086968176E+02  0.43177179561E+03  0.00000000000E+00 0. -1.
          1    1    6    6  503    0  0.38204212029E+02 -0.19488813935E+03  0.32529186911E+03  0.38112432196E+03  0.00000000000E+00 0.  1.
         -1    1    6    6    0  503 -0.12295247414E+02 -0.15621375255E+03  0.13773394218E+03  0.20862537818E+03  0.00000000000E+00 0. -1.
<mgrwt>
<rscale>  0 0.14858827E+04</rscale>
<asrwt>0</asrwt>
<pdfrwt beam="1">  1        2 0.21124426E+00 0.14858827E+04</pdfrwt>
<pdfrwt beam="2">  1       -1 0.61843982E-01 0.14858827E+04</pdfrwt>
<totfact> 0.43835865E+01</totfact>
</mgrwt>
</event>
<event>
12    6  0.1553355E-007  0.1456670E+04  0.7818608E-02  0.8913790E-01
          2   -1    0    0  501    0  0.00000000000E+00  0.00000000000E+00  0.11540226227E+04  0.11540226227E+04  0.00000000000E+00 0. -1.
         -1   -1    0    0    0  501 -0.00000000000E+00 -0.00000000000E+00 -0.45967183348E+03  0.45967183348E+03  0.00000000000E+00 0.  1.
         24    2    1    2    0    0  0.37047172977E+03 -0.21231767736E+03  0.37093749415E+03  0.57113571796E+03  0.79204072398E+02 0.  0.
        254    2    1    2    0    0 -0.37047172977E+03  0.21231767736E+03  0.32341329503E+03  0.10425587382E+04  0.89442968673E+03 0.  0.
         23    2    4    4    0    0  0.17476321671E+02  0.19705811923E+03  0.54220927404E+03  0.58627181118E+03  0.10289030836E+03 0.  0.
         23    2    4    4    0    0 -0.38794805144E+03  0.15259558128E+02 -0.21879597901E+03  0.45628692701E+03  0.97926169120E+02 0.  0.
          4    1    3    3  502    0  0.35914346228E+03 -0.18347627342E+03  0.34428734739E+03  0.53026535525E+03  0.00000000000E+00 0. -1.
         -3    1    3    3    0  502  0.11328267490E+02 -0.28841403941E+02  0.26650146767E+02  0.40870362714E+02  0.00000000000E+00 0.  1.
         11    1    5    5    0    0 -0.24495735204E+02  0.14147671088E+03  0.27614286314E+03  0.31124039203E+03  0.00000000000E+00 0.  1.
        -11    1    5    5    0    0  0.41972056874E+02  0.55581408352E+02  0.26606641090E+03  0.27503141916E+03  0.00000000000E+00 0. -1.
          1    1    6    6  503    0 -0.38690361314E+03  0.25710993777E+02 -0.20401041985E+03  0.43815033090E+03  0.00000000000E+00 0. -1.
         -1    1    6    6    0  503 -0.10444382930E+01 -0.10451435648E+02 -0.14785559163E+02  0.18136596103E+02  0.00000000000E+00 0.  1.
<mgrwt>
<rscale>  0 0.14566698E+04</rscale>
<asrwt>0</asrwt>
<pdfrwt beam="1">  1        2 0.17754194E+00 0.14566698E+04</pdfrwt>
<pdfrwt beam="2">  1       -1 0.70718744E-01 0.14566698E+04</pdfrwt>
<totfact> 0.45088430E+01</totfact>
</mgrwt>
</event>
<event>
12    6  0.1553355E-007  0.1374454E+04  0.7818608E-02  0.8972521E-01
          2   -1    0    0  501    0  0.00000000000E+00  0.00000000000E+00  0.24101371297E+04  0.24101371297E+04  0.00000000000E+00 0. -1.
         -1   -1    0    0    0  501 -0.00000000000E+00 -0.00000000000E+00 -0.19595597623E+03  0.19595597623E+03  0.00000000000E+00 0.  1.
         24    2    1    2    0    0  0.23433375291E+03  0.28519503055E+03  0.39466676531E+03  0.54624306575E+03  0.79819283640E+02 0.  0.
        254    2    1    2    0    0 -0.23433375291E+03 -0.28519503055E+03  0.18195143881E+04  0.20598500401E+04  0.89224495858E+03 0.  0.
         23    2    4    4    0    0 -0.25913196032E+03 -0.55232095387E+03  0.15467121775E+04  0.16651749182E+04  0.91000765346E+02 0.  0.
         23    2    4    4    0    0  0.24798207410E+02  0.26712592332E+03  0.27280221065E+03  0.39467512196E+03  0.96830758313E+02 0.  0.
          4    1    3    3  502    0  0.16393630126E+03  0.21903311397E+03  0.33568338025E+03  0.43305189950E+03  0.00000000000E+00 0. -1.
         -3    1    3    3    0  502  0.70397451650E+02  0.66161916574E+02  0.58983385058E+02  0.11319116625E+03  0.00000000000E+00 0.  1.
         11    1    5    5    0    0 -0.92180978375E+02 -0.12374732920E+03  0.32560727851E+03  0.36032046026E+03  0.00000000000E+00 0. -1.
        -11    1    5    5    0    0 -0.16695098194E+03 -0.42857362466E+03  0.12211048990E+04  0.13048544579E+04  0.00000000000E+00 0.  1.
          3    1    6    6  503    0  0.32088494775E+02  0.19652923501E+02  0.36843340085E+02  0.52662516154E+02  0.00000000000E+00 0. -1.
         -3    1    6    6    0  503 -0.72902873653E+01  0.24747299982E+03  0.23595887057E+03  0.34201260581E+03  0.00000000000E+00 0.  1.
<mgrwt>
<rscale>  0 0.13744537E+04</rscale>
<asrwt>0</asrwt>
<pdfrwt beam="1">  1        2 0.37079031E+00 0.13744537E+04</pdfrwt>
<pdfrwt beam="2">  1       -1 0.30147075E-01 0.13744537E+04</pdfrwt>
<totfact> 0.44210491E+01</totfact>
</mgrwt>
</event>
<event>
12    6  0.1553355E-007  0.1246566E+04  0.7818608E-02  0.9073046E-01
          2   -1    0    0  501    0  0.00000000000E+00  0.00000000000E+00  0.11231407721E+04  0.11231407721E+04  0.00000000000E+00 0. -1.
         -1   -1    0    0    0  501 -0.00000000000E+00 -0.00000000000E+00 -0.34588887678E+03  0.34588887678E+03  0.00000000000E+00 0.  1.
         24    2    1    2    0    0  0.23171391042E+03 -0.26058356135E+03  0.28579874443E+03  0.45734367139E+03  0.76727978680E+02 0.  0.
        254    2    1    2    0    0 -0.23171391042E+03  0.26058356135E+03  0.49145315090E+03  0.10116859775E+04  0.81264210377E+03 0.  0.
         23    2    4    4    0    0 -0.47201483146E+03  0.22230866034E+03  0.53031419282E+03  0.74947619049E+03  0.90897059546E+02 0.  0.
         23    2    4    4    0    0  0.24030092104E+03  0.38274901016E+02 -0.38861041913E+02  0.26220978701E+03  0.89634207355E+02 0.  0.
          4    1    3    3  502    0  0.20405312501E+03 -0.25679974644E+03  0.27246462875E+03  0.42640445767E+03  0.00000000000E+00 0. -1.
         -3    1    3    3    0  502  0.27660785405E+02 -0.37838149103E+01  0.13334115675E+02  0.30939213715E+02  0.00000000000E+00 0.  1.
         11    1    5    5    0    0 -0.41419758049E+03  0.18782687785E+03  0.41359633861E+03  0.61473612472E+03  0.00000000000E+00 0. -1.
        -11    1    5    5    0    0 -0.57817250970E+02  0.34481782484E+02  0.11671785421E+03  0.13474006577E+03  0.00000000000E+00 0.  1.
          1    1    6    6  503    0  0.14055089218E+03 -0.22071421212E+02 -0.29094784841E+02  0.14521779310E+03  0.00000000000E+00 0. -1.
         -1    1    6    6    0  503  0.99750028856E+02  0.60346322228E+02 -0.97662570723E+01  0.11699199392E+03  0.00000000000E+00 0.  1.
<mgrwt>
<rscale>  0 0.12465663E+04</rscale>
<asrwt>0</asrwt>
<pdfrwt beam="1">  1        2 0.17279089E+00 0.12465663E+04</pdfrwt>
<pdfrwt beam="2">  1       -1 0.53213674E-01 0.12465663E+04</pdfrwt>
<totfact> 0.84219445E+01</totfact>
</mgrwt>
</event>
<event>
12    6  0.1553355E-007  0.1682497E+04  0.7818608E-02  0.8771411E-01
          2   -1    0    0  501    0  0.00000000000E+00  0.00000000000E+00  0.13830690569E+04  0.13830690569E+04  0.00000000000E+00 0. -1.
         -1   -1    0    0    0  501 -0.00000000000E+00 -0.00000000000E+00 -0.51168727738E+03  0.51168727738E+03  0.00000000000E+00 0.  1.
         24    2    1    2    0    0 -0.30469165451E+03  0.33116402386E+03  0.74038443533E+03  0.87014046634E+03  0.80428254044E+02 0.  0.
        254    2    1    2    0    0  0.30469165451E+03 -0.33116402386E+03  0.13099734417E+03  0.10246158679E+04  0.91113706849E+03 0.  0.
         23    2    4    4    0    0 -0.14704106128E+03  0.23137642076E+03  0.41166601217E+02  0.29159880848E+03  0.90438123958E+02 0.  0.
         23    2    4    4    0    0  0.45173271580E+03 -0.56254044462E+03  0.89830742948E+02  0.73301705944E+03  0.93435799903E+02 0.  0.
          2    1    3    3  502    0 -0.30138225077E+03  0.33577103814E+03  0.72738045634E+03  0.85595314089E+03  0.00000000000E+00 0. -1.
         -1    1    3    3    0  502 -0.33094037465E+01 -0.46070142838E+01  0.13003978990E+02  0.14187325447E+02  0.00000000000E+00 0.  1.
         11    1    5    5    0    0 -0.82335255481E+02  0.19427688952E+03  0.11463416934E+02  0.21131496403E+03  0.00000000000E+00 0.  1.
        -11    1    5    5    0    0 -0.64705805801E+02  0.37099531238E+02  0.29703184283E+02  0.80283844446E+02  0.00000000000E+00 0. -1.
          1    1    6    6  503    0  0.14231808134E+02 -0.28031650399E+02  0.23221010212E+02  0.39083667972E+02  0.00000000000E+00 0. -1.
         -1    1    6    6    0  503  0.43750090766E+03 -0.53450879422E+03  0.66609732736E+02  0.69393339147E+03  0.00000000000E+00 0.  1.
<mgrwt>
<rscale>  0 0.16824968E+04</rscale>
<asrwt>0</asrwt>
<pdfrwt beam="1">  1        2 0.21277985E+00 0.16824968E+04</pdfrwt>
<pdfrwt beam="2">  1       -1 0.78721120E-01 0.16824968E+04</pdfrwt>
<totfact> 0.25944845E+01</totfact>
</mgrwt>
</event>
<event>
12    6  0.1553355E-007  0.2381511E+04  0.7818608E-02  0.8446458E-01
          2   -1    0    0  501    0  0.00000000000E+00  0.00000000000E+00  0.29686538672E+04  0.29686538672E+04  0.00000000000E+00 0. -1.
         -1   -1    0    0    0  501 -0.00000000000E+00 -0.00000000000E+00 -0.47762345977E+03  0.47762345977E+03  0.00000000000E+00 0.  1.
         24    2    1    2    0    0  0.34076566536E+02 -0.66573706891E+03 -0.50729240598E+02  0.67335632194E+03  0.80425264333E+02 0.  0.
        254    2    1    2    0    0 -0.34076566536E+02  0.66573706891E+03  0.25417596480E+04  0.27729210050E+04  0.88554036298E+03 0.  0.
         23    2    4    4    0    0 -0.24104834445E+03  0.42830814282E+03  0.50698101404E+03  0.71182478650E+03  0.90070020019E+02 0.  0.
         23    2    4    4    0    0  0.20697177791E+03  0.23742892608E+03  0.20347786340E+04  0.20610962185E+04  0.92648372315E+02 0.  0.
          2    1    3    3  502    0  0.29163930876E+02 -0.94709753037E+02 -0.22442207889E+02  0.10160770089E+03  0.00000000000E+00 0. -1.
         -1    1    3    3    0  502  0.49126356598E+01 -0.57102731587E+03 -0.28287032709E+02  0.57174862105E+03  0.00000000000E+00 0.  1.
         11    1    5    5    0    0 -0.23053513550E+03  0.40212295768E+03  0.43981761797E+03  0.63897484995E+03  0.00000000000E+00 0.  1.
        -11    1    5    5    0    0 -0.10513208951E+02  0.26185185143E+02  0.67163396068E+02  0.72849936546E+02  0.00000000000E+00 0. -1.
          1    1    6    6  503    0  0.82738684206E+02  0.42837316070E+02  0.74685243021E+03  0.75264153355E+03  0.00000000000E+00 0. -1.
         -1    1    6    6    0  503  0.12423309371E+03  0.19459161001E+03  0.12879262038E+04  0.13084546850E+04  0.00000000000E+00 0.  1.
<mgrwt>
<rscale>  0 0.23815111E+04</rscale>
<asrwt>0</asrwt>
<pdfrwt beam="1">  1        2 0.45671597E+00 0.23815111E+04</pdfrwt>
<pdfrwt beam="2">  1       -1 0.73480534E-01 0.23815111E+04</pdfrwt>
<totfact> 0.34836975E+00</totfact>
</mgrwt>
</event>
<event>
12    6  0.1553355E-007  0.1953364E+04  0.7818608E-02  0.8628740E-01
          2   -1    0    0  501    0  0.00000000000E+00  0.00000000000E+00  0.24054360464E+04  0.24054360464E+04  0.00000000000E+00 0. -1.
         -1   -1    0    0    0  501 -0.00000000000E+00 -0.00000000000E+00 -0.39656340074E+03  0.39656340074E+03  0.00000000000E+00 0.  1.
         24    2    1    2    0    0 -0.42367267399E+03  0.25254152271E+03 -0.43988223915E+02  0.50150984554E+03  0.79381395530E+02 0.  0.
        254    2    1    2    0    0  0.42367267399E+03 -0.25254152271E+03  0.20528608695E+04  0.23004896016E+04  0.91364046639E+03 0.  0.
         23    2    4    4    0    0  0.43759251373E+03 -0.11576336403E+03  0.20840720187E+04  0.21345889161E+04  0.90693423517E+02 0.  0.
         23    2    4    4    0    0 -0.13919839741E+02 -0.13677815869E+03 -0.31211149202E+02  0.16590068542E+03  0.87446411923E+02 0.  0.
          2    1    3    3  502    0 -0.20355162202E+02  0.36942899974E+02 -0.13729681260E+01  0.42201842711E+02  0.00000000000E+00 0. -1.
         -1    1    3    3    0  502 -0.40331751179E+03  0.21559862274E+03 -0.42615255789E+02  0.45930800283E+03  0.00000000000E+00 0.  1.
         11    1    5    5    0    0  0.20248843576E+03 -0.67202038707E+02  0.11830581399E+04  0.12021415237E+04  0.00000000000E+00 0.  1.
        -11    1    5    5    0    0  0.23510407797E+03 -0.48561325320E+02  0.90101387883E+03  0.93244739242E+03  0.00000000000E+00 0. -1.
          4    1    6    6  503    0  0.15468607393E+02 -0.11562669501E+03 -0.47803574121E+02  0.12607137706E+03  0.00000000000E+00 0. -1.
         -4    1    6    6    0  503 -0.29388447134E+02 -0.21151463674E+02  0.16592424919E+02  0.39829308370E+02  0.00000000000E+00 0.  1.
<mgrwt>
<rscale>  0 0.19533642E+04</rscale>
<asrwt>0</asrwt>
<pdfrwt beam="1">  1        2 0.37006707E+00 0.19533642E+04</pdfrwt>
<pdfrwt beam="2">  1       -1 0.61009756E-01 0.19533642E+04</pdfrwt>
<totfact> 0.11422596E+01</totfact>
</mgrwt>
</event>
<event>
12    6  0.1553355E-007  0.2414041E+04  0.7818608E-02  0.8434265E-01
          2   -1    0    0  501    0  0.00000000000E+00  0.00000000000E+00  0.12959057489E+04  0.12959057489E+04  0.00000000000E+00 0. -1.
         -1   -1    0    0    0  501 -0.00000000000E+00 -0.00000000000E+00 -0.11242318456E+04  0.11242318456E+04  0.00000000000E+00 0.  1.
         24    2    1    2    0    0 -0.23853239784E+02  0.95063377414E+03  0.48621758290E+03  0.10710399362E+04  0.80283606601E+02 0.  0.
        254    2    1    2    0    0  0.23853239784E+02 -0.95063377414E+03 -0.31454367959E+03  0.13490976582E+04  0.90379932253E+03 0.  0.
         23    2    4    4    0    0 -0.35041889405E+03 -0.16908800715E+03  0.52883578958E+02  0.40354227458E+03  0.93088876788E+02 0.  0.
         23    2    4    4    0    0  0.37427213384E+03 -0.78154576699E+03 -0.36742725855E+03  0.94555538361E+03  0.90436591523E+02 0.  0.
          2    1    3    3  502    0 -0.11062676454E+02  0.85389523457E+03  0.41038168103E+03  0.94745584517E+03  0.00000000000E+00 0. -1.
         -1    1    3    3    0  502 -0.12790563329E+02  0.96738539564E+02  0.75835901874E+02  0.12358409105E+03  0.00000000000E+00 0.  1.
         11    1    5    5    0    0 -0.33294305835E+03 -0.18077159387E+03  0.47318151122E+02  0.38179635498E+03  0.00000000000E+00 0.  1.
        -11    1    5    5    0    0 -0.17475835707E+02  0.11683586722E+02  0.55654278357E+01  0.21745919602E+02  0.00000000000E+00 0. -1.
          1    1    6    6  503    0  0.73406432286E+02 -0.99039991482E+02 -0.75647243882E+02  0.14463723490E+03  0.00000000000E+00 0. -1.
         -1    1    6    6    0  503  0.30086570155E+03 -0.68250577550E+03 -0.29178001467E+03  0.80091814871E+03  0.00000000000E+00 0.  1.
<mgrwt>
<rscale>  0 0.24140410E+04</rscale>
<asrwt>0</asrwt>
<pdfrwt beam="1">  1        2 0.19937012E+00 0.24140410E+04</pdfrwt>
<pdfrwt beam="2">  1       -1 0.17295875E+00 0.24140410E+04</pdfrwt>
<totfact> 0.39827919E+00</totfact>
</mgrwt>
</event>
<event>
12    6  0.1553355E-007  0.2523883E+04  0.7818608E-02  0.8394526E-01
          2   -1    0    0  501    0  0.00000000000E+00  0.00000000000E+00  0.15997003881E+04  0.15997003881E+04  0.00000000000E+00 0. -1.
         -1   -1    0    0    0  501 -0.00000000000E+00 -0.00000000000E+00 -0.99549695743E+03  0.99549695743E+03  0.00000000000E+00 0.  1.
         24    2    1    2    0    0  0.62087447251E+03  0.15288397726E+03  0.11876976781E+04  0.13513020440E+04  0.80825852649E+02 0.  0.
        254    2    1    2    0    0 -0.62087447251E+03 -0.15288397726E+03 -0.58349424734E+03  0.12438953016E+04  0.89328123431E+03 0.  0.
         23    2    4    4    0    0 -0.41574385558E+02 -0.39799173693E+03 -0.48744917504E+02  0.41338994860E+03  0.91593288062E+02 0.  0.
         23    2    4    4    0    0 -0.57930008695E+03  0.24510775968E+03 -0.53474932984E+03  0.83050535301E+03  0.90088240172E+02 0.  0.
          4    1    3    3  502    0  0.60462692732E+03  0.13872052856E+03  0.11658311797E+04  0.13205981395E+04  0.00000000000E+00 0. -1.
         -3    1    3    3    0  502  0.16247545194E+02  0.14163448691E+02  0.21866498314E+02  0.30703904510E+02  0.00000000000E+00 0.  1.
         11    1    5    5    0    0  0.89778058195E+01 -0.17118331739E+03 -0.57628870303E+02  0.18084638741E+03  0.00000000000E+00 0.  1.
        -11    1    5    5    0    0 -0.50552191377E+02 -0.22680841955E+03  0.88839527994E+01  0.23254356119E+03  0.00000000000E+00 0. -1.
          1    1    6    6  503    0 -0.19086832291E+03  0.12660274697E+03 -0.20500718309E+03  0.30738724331E+03  0.00000000000E+00 0. -1.
         -1    1    6    6    0  503 -0.38843176405E+03  0.11850501271E+03 -0.32974214675E+03  0.52311810970E+03  0.00000000000E+00 0.  1.
<mgrwt>
<rscale>  0 0.25238834E+04</rscale>
<asrwt>0</asrwt>
<pdfrwt beam="1">  1        2 0.24610775E+00 0.25238834E+04</pdfrwt>
<pdfrwt beam="2">  1       -1 0.15315338E+00 0.25238834E+04</pdfrwt>
<totfact> 0.37290605E+00</totfact>
</mgrwt>
</event>
<event>
12    6  0.1553355E-007  0.1582605E+04  0.7818608E-02  0.8831306E-01
          2   -1    0    0  501    0  0.00000000000E+00  0.00000000000E+00  0.20909854170E+04  0.20909854170E+04  0.00000000000E+00 0. -1.
         -1   -1    0    0    0  501 -0.00000000000E+00 -0.00000000000E+00 -0.29945671162E+03  0.29945671162E+03  0.00000000000E+00 0.  1.
         24    2    1    2    0    0 -0.40759249327E+03  0.25419583779E+03  0.18004138892E+03  0.51875361591E+03  0.77092462525E+02 0.  0.
        254    2    1    2    0    0  0.40759249327E+03 -0.25419583779E+03  0.16114873165E+04  0.18716885127E+04  0.82193634363E+03 0.  0.
         23    2    4    4    0    0  0.51942211997E+03 -0.14021526217E+03  0.48482469297E+03  0.72987821898E+03  0.90595657550E+02 0.  0.
         23    2    4    4    0    0 -0.11182962670E+03 -0.11398057562E+03  0.11266626235E+04  0.11418102937E+04  0.94152231389E+02 0.  0.
          4    1    3    3  502    0 -0.96936764793E+01  0.10293160686E+02  0.21740777672E+02  0.25934107549E+02  0.00000000000E+00 0. -1.
         -3    1    3    3    0  502 -0.39789881679E+03  0.24390267710E+03  0.15830061125E+03  0.49281950836E+03  0.00000000000E+00 0.  1.
         11    1    5    5    0    0  0.43366185921E+03 -0.97209674122E+02  0.35699294198E+03  0.57004937462E+03  0.00000000000E+00 0. -1.
        -11    1    5    5    0    0  0.85760260757E+02 -0.43005588048E+02  0.12783175099E+03  0.15982884436E+03  0.00000000000E+00 0.  1.
          1    1    6    6  503    0 -0.11831820053E+03 -0.70421459188E+02  0.93950901303E+03  0.94954492471E+03  0.00000000000E+00 0. -1.
         -1    1    6    6    0  503  0.64885738237E+01 -0.43559116429E+02  0.18715361046E+03  0.19226536901E+03  0.00000000000E+00 0.  1.
<mgrwt>
<rscale>  0 0.15826050E+04</rscale>
<asrwt>0</asrwt>
<pdfrwt beam="1">  1        2 0.32169006E+00 0.15826050E+04</pdfrwt>
<pdfrwt beam="2">  1       -1 0.46070265E-01 0.15826050E+04</pdfrwt>
<totfact> 0.30481340E+01</totfact>
</mgrwt>
</event>
<event>
12    6  0.1553355E-007  0.2586100E+04  0.7818608E-02  0.8372938E-01
         -1   -1    0    0    0  501 -0.00000000000E+00  0.00000000000E+00  0.79066356998E+03  0.79066356998E+03  0.00000000000E+00 0.  1.
          2   -1    0    0  501    0  0.00000000000E+00 -0.00000000000E+00 -0.21146522162E+04  0.21146522162E+04  0.00000000000E+00 0. -1.
         24    2    1    2    0    0 -0.16829459931E+03 -0.96576905650E+03 -0.12283374338E+04  0.15736816493E+04  0.81413386535E+02 0.  0.
        254    2    1    2    0    0  0.16829459931E+03  0.96576905650E+03 -0.95651212345E+02  0.13316341368E+04  0.89614026646E+03 0.  0.
         23    2    4    4    0    0 -0.17747403095E+03  0.83251464475E+03  0.16279461552E+03  0.87140298003E+03  0.90903252803E+02 0.  0.
         23    2    4    4    0    0  0.34576863026E+03  0.13325441175E+03 -0.25844582787E+03  0.46023115676E+03  0.87782616662E+02 0.  0.
          4    1    3    3  502    0 -0.16731450587E+03 -0.96707936629E+03 -0.12230564213E+04  0.15681529435E+04  0.00000000000E+00 0. -1.
         -3    1    3    3    0  502 -0.98009343937E+00  0.13103097909E+01 -0.52810125056E+01  0.55287058144E+01  0.00000000000E+00 0.  1.
         11    1    5    5    0    0  0.74597108641E+01  0.99789525871E+02  0.26378709001E+02  0.10348639064E+03  0.00000000000E+00 0.  1.
        -11    1    5    5    0    0 -0.18493374181E+03  0.73272511888E+03  0.13641590652E+03  0.76791658938E+03  0.00000000000E+00 0. -1.
          1    1    6    6  503    0  0.25401732003E+03  0.64616736993E+02 -0.14761096411E+03  0.30081409259E+03  0.00000000000E+00 0. -1.
         -1    1    6    6    0  503  0.91751310230E+02  0.68637674757E+02 -0.11083486375E+03  0.15941706417E+03  0.00000000000E+00 0.  1.
<mgrwt>
<rscale>  0 0.25861001E+04</rscale>
<asrwt>0</asrwt>
<pdfrwt beam="1">  1        2 0.32533110E+00 0.25861001E+04</pdfrwt>
<pdfrwt beam="2">  1       -1 0.12164055E+00 0.25861001E+04</pdfrwt>
<totfact> 0.34776902E+00</totfact>
</mgrwt>
</event>
<event>
12    6  0.1553355E-007  0.1518539E+04  0.7818608E-02  0.8872218E-01
          2   -1    0    0  501    0  0.00000000000E+00  0.00000000000E+00  0.23401153527E+04  0.23401153527E+04  0.00000000000E+00 0. -1.
         -1   -1    0    0    0  501 -0.00000000000E+00 -0.00000000000E+00 -0.24635106960E+03  0.24635106960E+03  0.00000000000E+00 0.  1.
         24    2    1    2    0    0 -0.62313235182E+02  0.27456081768E+03 -0.24793632585E+02  0.29385655380E+03  0.80438598386E+02 0.  0.
        254    2    1    2    0    0  0.62313235182E+02 -0.27456081768E+03  0.21185579157E+04  0.22926098685E+04  0.82976248718E+03 0.  0.
         23    2    4    4    0    0 -0.16321720555E+03  0.89674005515E+02  0.10518462228E+03  0.23217472171E+03  0.90332791289E+02 0.  0.
         23    2    4    4    0    0  0.22553044073E+03 -0.36423482319E+03  0.20133732934E+04  0.20604351468E+04  0.90498560337E+02 0.  0.
          4    1    3    3  502    0 -0.71448427418E+02  0.13651578890E+03 -0.20526489767E+02  0.15544380072E+03  0.00000000000E+00 0. -1.
         -3    1    3    3    0  502  0.91351922356E+01  0.13804502877E+03 -0.42671428181E+01  0.13841275308E+03  0.00000000000E+00 0.  1.
         11    1    5    5    0    0 -0.15566247872E+03  0.45746959271E+02  0.78667909924E+02  0.18031148498E+03  0.00000000000E+00 0. -1.
        -11    1    5    5    0    0 -0.75547268266E+01  0.43927046245E+02  0.26516712359E+02  0.51863236724E+02  0.00000000000E+00 0.  1.
          3    1    6    6  503    0  0.17315448128E+03 -0.25318572684E+03  0.16032073424E+04  0.16322865158E+04  0.00000000000E+00 0. -1.
         -3    1    6    6    0  503  0.52375959452E+02 -0.11104909635E+03  0.41016595094E+03  0.42814863102E+03  0.00000000000E+00 0.  1.
<mgrwt>
<rscale>  0 0.15185387E+04</rscale>
<asrwt>0</asrwt>
<pdfrwt beam="1">  1        2 0.36001773E+00 0.15185387E+04</pdfrwt>
<pdfrwt beam="2">  1       -1 0.37900166E-01 0.15185387E+04</pdfrwt>
<totfact> 0.31821382E+01</totfact>
</mgrwt>
</event>
<event>
12    6  0.1553355E-007  0.1948935E+04  0.7818608E-02  0.8630874E-01
          4   -1    0    0  501    0  0.00000000000E+00  0.00000000000E+00  0.12266402958E+04  0.12266402958E+04  0.00000000000E+00 0. -1.
         -3   -1    0    0    0  501 -0.00000000000E+00 -0.00000000000E+00 -0.77413665736E+03  0.77413665736E+03  0.00000000000E+00 0.  1.
         24    2    1    2    0    0 -0.40759004433E+03 -0.49986901447E+03  0.60884321247E+03  0.89129456615E+03  0.87847996093E+02 0.  0.
        254    2    1    2    0    0  0.40759004433E+03  0.49986901447E+03 -0.15633957406E+03  0.11094823870E+04  0.88910653395E+03 0.  0.
         23    2    4    4    0    0  0.39734573759E+03  0.68014302258E+03 -0.31543180069E+03  0.85348503270E+03  0.91985399988E+02 0.  0.
         23    2    4    4    0    0  0.10244306733E+02 -0.18027400811E+03  0.15909222663E+03  0.25599735427E+03  0.87296305768E+02 0.  0.
          2    1    3    3  502    0 -0.39742617133E+03 -0.47316277191E+03  0.60021433180E+03  0.86144518948E+03  0.00000000000E+00 0. -1.
         -1    1    3    3    0  502 -0.10163872997E+02 -0.26706242563E+02  0.86288806701E+01  0.29849376673E+02  0.00000000000E+00 0.  1.
         11    1    5    5    0    0  0.10082590806E+03  0.24721063872E+03 -0.83146678570E+02  0.27962892159E+03  0.00000000000E+00 0.  1.
        -11    1    5    5    0    0  0.29651982953E+03  0.43293238386E+03 -0.23228512212E+03  0.57385611111E+03  0.00000000000E+00 0. -1.
          1    1    6    6  503    0 -0.12059277884E+02 -0.17731103950E+03  0.13628924740E+03  0.22396292074E+03  0.00000000000E+00 0. -1.
         -1    1    6    6    0  503  0.22303584616E+02 -0.29629686073E+01  0.22802979225E+02  0.32034433525E+02  0.00000000000E+00 0.  1.
<mgrwt>
<rscale>  0 0.19489353E+04</rscale>
<asrwt>0</asrwt>
<pdfrwt beam="1">  1        4 0.18871389E+00 0.19489353E+04</pdfrwt>
<pdfrwt beam="2">  1       -3 0.11909795E+00 0.19489353E+04</pdfrwt>
<totfact> 0.19217224E-01</totfact>
</mgrwt>
</event>
<event>
12    6  0.1553355E-007  0.1409282E+04  0.7818608E-02  0.8947127E-01
          2   -1    0    0  501    0  0.00000000000E+00  0.00000000000E+00  0.91808725425E+03  0.91808725425E+03  0.00000000000E+00 0. -1.
         -1   -1    0    0    0  501 -0.00000000000E+00 -0.00000000000E+00 -0.54081913867E+03  0.54081913867E+03  0.00000000000E+00 0.  1.
         24    2    1    2    0    0 -0.21362450682E+03 -0.13229607626E+03 -0.23020236367E+03  0.35003077710E+03  0.79942072590E+02 0.  0.
        254    2    1    2    0    0  0.21362450682E+03  0.13229607626E+03  0.60747047925E+03  0.11088756158E+04  0.89299891740E+03 0.  0.
         23    2    4    4    0    0  0.24240742078E+03  0.48800809846E+03  0.29669701073E+03  0.62697916759E+03  0.90335478120E+02 0.  0.
         23    2    4    4    0    0 -0.28782913957E+02 -0.35571202220E+03  0.31077346852E+03  0.48189644822E+03  0.91019444074E+02 0.  0.
          2    1    3    3  502    0 -0.20301129773E+02 -0.24501200340E+02 -0.16459389660E+01  0.31861478359E+02  0.00000000000E+00 0. -1.
         -1    1    3    3    0  502 -0.19332337705E+03 -0.10779487592E+03 -0.22855642471E+03  0.31816929874E+03  0.00000000000E+00 0.  1.
         11    1    5    5    0    0  0.16052998512E+03  0.38333001219E+03  0.19199136902E+03  0.45779084760E+03  0.00000000000E+00 0.  1.
        -11    1    5    5    0    0  0.81877435662E+02  0.10467808627E+03  0.10470564171E+03  0.16918831999E+03  0.00000000000E+00 0. -1.
          1    1    6    6  503    0 -0.26418539706E+00  0.35407536013E+01 -0.25353647018E+01  0.43628894279E+01  0.00000000000E+00 0. -1.
         -1    1    6    6    0  503 -0.28518728560E+02 -0.35925277580E+03  0.31330883322E+03  0.47753355879E+03  0.00000000000E+00 0.  1.
<mgrwt>
<rscale>  0 0.14092823E+04</rscale>
<asrwt>0</asrwt>
<pdfrwt beam="1">  1        2 0.14124419E+00 0.14092823E+04</pdfrwt>
<pdfrwt beam="2">  1       -1 0.83202944E-01 0.14092823E+04</pdfrwt>
<totfact> 0.45391823E+01</totfact>
</mgrwt>
</event>
<event>
12    6  0.1553355E-007  0.1492399E+04  0.7818608E-02  0.8889523E-01
         -1   -1    0    0    0  501 -0.00000000000E+00  0.00000000000E+00  0.10317339191E+04  0.10317339191E+04  0.00000000000E+00 0.  1.
          2   -1    0    0  501    0  0.00000000000E+00 -0.00000000000E+00 -0.53968756677E+03  0.53968756677E+03  0.00000000000E+00 0. -1.
         24    2    1    2    0    0 -0.12206180301E+03 -0.20975026915E+02  0.63584640996E+03  0.65243274341E+03  0.77645296716E+02 0.  0.
        254    2    1    2    0    0  0.12206180301E+03  0.20975026915E+02 -0.14380005763E+03  0.91898874245E+03  0.89917896810E+03 0.  0.
         23    2    4    4    0    0  0.19121939151E+03 -0.31219678377E+02 -0.49888771028E+03  0.54299346325E+03  0.91724749426E+02 0.  0.
         23    2    4    4    0    0 -0.69157588491E+02  0.52194705292E+02  0.35508765265E+03  0.37599527921E+03  0.88193818477E+02 0.  0.
          4    1    3    3  502    0 -0.48842396959E+02 -0.47565018494E+02  0.30901070232E+03  0.31644213511E+03  0.00000000000E+00 0. -1.
         -3    1    3    3    0  502 -0.73219406056E+02  0.26589991579E+02  0.32683570763E+03  0.33599060829E+03  0.00000000000E+00 0.  1.
         11    1    5    5    0    0  0.10147775526E+03 -0.34708927430E+02 -0.16157977140E+03  0.19393418209E+03  0.00000000000E+00 0. -1.
        -11    1    5    5    0    0  0.89741636248E+02  0.34892490529E+01 -0.33730793888E+03  0.34905928116E+03  0.00000000000E+00 0.  1.
          1    1    6    6  503    0 -0.52564464762E+02  0.71484212156E+02  0.19951752880E+03  0.21835810001E+03  0.00000000000E+00 0. -1.
         -1    1    6    6    0  503 -0.16593123729E+02 -0.19289506865E+02  0.15557012385E+03  0.15763717919E+03  0.00000000000E+00 0.  1.
<mgrwt>
<rscale>  0 0.14923994E+04</rscale>
<asrwt>0</asrwt>
<pdfrwt beam="1">  1        2 0.83028857E-01 0.14923994E+04</pdfrwt>
<pdfrwt beam="2">  1       -1 0.15872829E+00 0.14923994E+04</pdfrwt>
<totfact> 0.18590148E+01</totfact>
</mgrwt>
</event>
<event>
12    6  0.1553355E-007  0.2268161E+04  0.7818608E-02  0.8490581E-01
          2   -1    0    0  501    0  0.00000000000E+00  0.00000000000E+00  0.21709864804E+04  0.21709864804E+04  0.00000000000E+00 0. -1.
         -1   -1    0    0    0  501 -0.00000000000E+00 -0.00000000000E+00 -0.59242144380E+03  0.59242144380E+03  0.00000000000E+00 0.  1.
         24    2    1    2    0    0  0.57975905447E+03 -0.71271840086E+03  0.93418234611E+03  0.13128083130E+04  0.81736960704E+02 0.  0.
        254    2    1    2    0    0 -0.57975905447E+03  0.71271840086E+03  0.64438269052E+03  0.14505996112E+04  0.91919644259E+03 0.  0.
         23    2    4    4    0    0 -0.31023466927E+03 -0.39449751956E+02  0.55157102629E+03  0.64097843980E+03  0.93919807812E+02 0.  0.
         23    2    4    4    0    0 -0.26952438521E+03  0.75216815281E+03  0.92811664232E+02  0.80962117142E+03  0.92044075691E+02 0.  0.
          4    1    3    3  502    0 -0.10977744115E+01 -0.41111957003E+01 -0.50779989404E-01  0.42555396076E+01  0.00000000000E+00 0. -1.
         -3    1    3    3    0  502  0.58085682889E+03 -0.70860720516E+03  0.93423312610E+03  0.13085527734E+04  0.00000000000E+00 0.  1.
         11    1    5    5    0    0 -0.73253863179E+02 -0.22101230157E+02  0.68793325325E+02  0.10289370464E+03  0.00000000000E+00 0. -1.
        -11    1    5    5    0    0 -0.23698080609E+03 -0.17348521799E+02  0.48277770096E+03  0.53808473516E+03  0.00000000000E+00 0.  1.
          1    1    6    6  503    0 -0.23961675015E+02  0.41159672070E+02  0.26454681853E+02  0.54480553103E+02  0.00000000000E+00 0. -1.
         -1    1    6    6    0  503 -0.24556271019E+03  0.71100848074E+03  0.66356982379E+02  0.75514061832E+03  0.00000000000E+00 0.  1.
<mgrwt>
<rscale>  0 0.22681613E+04</rscale>
<asrwt>0</asrwt>
<pdfrwt beam="1">  1        2 0.33399792E+00 0.22681613E+04</pdfrwt>
<pdfrwt beam="2">  1       -1 0.91141762E-01 0.22681613E+04</pdfrwt>
<totfact> 0.65139725E+00</totfact>
</mgrwt>
</event>
<event>
12    6  0.1553355E-007  0.1540197E+04  0.7818608E-02  0.8858154E-01
         -1   -1    0    0    0  501 -0.00000000000E+00  0.00000000000E+00  0.24793528198E+03  0.24793528198E+03  0.00000000000E+00 0.  1.
          2   -1    0    0  501    0  0.00000000000E+00 -0.00000000000E+00 -0.23919620310E+04  0.23919620310E+04  0.00000000000E+00 0. -1.
         24    2    1    2    0    0 -0.17573860296E+03 -0.46804060936E+03 -0.77550356364E+03  0.92582058693E+03  0.76104621340E+02 0.  0.
        254    2    1    2    0    0  0.17573860296E+03  0.46804060936E+03 -0.13685231853E+04  0.17140767260E+04  0.90291596798E+03 0.  0.
         23    2    4    4    0    0 -0.23876884570E+03  0.50427778264E+03 -0.54278057350E+03  0.78490621953E+03  0.10079870407E+03 0.  0.
         23    2    4    4    0    0  0.41450744867E+03 -0.36237173277E+02 -0.82574261184E+03  0.92917050648E+03  0.91528199864E+02 0.  0.
          4    1    3    3  502    0 -0.17880373882E+03 -0.40689464355E+03 -0.68510866063E+03  0.81664429517E+03  0.00000000000E+00 0. -1.
         -3    1    3    3    0  502  0.30651358573E+01 -0.61145965809E+02 -0.90394903010E+02  0.10917629176E+03  0.00000000000E+00 0.  1.
         11    1    5    5    0    0 -0.20411657953E+03  0.48349293034E+03 -0.51859098846E+03  0.73781136142E+03  0.00000000000E+00 0. -1.
        -11    1    5    5    0    0 -0.34652266170E+02  0.20784852298E+02 -0.24189585045E+02  0.47094858110E+02  0.00000000000E+00 0.  1.
          1    1    6    6  503    0  0.30118412881E+03  0.43747339823E+01 -0.64686356498E+03  0.71355692796E+03  0.00000000000E+00 0. -1.
         -1    1    6    6    0  503  0.11332331985E+03 -0.40611907260E+02 -0.17887904687E+03  0.21561357852E+03  0.00000000000E+00 0.  1.
<mgrwt>
<rscale>  0 0.15401971E+04</rscale>
<asrwt>0</asrwt>
<pdfrwt beam="1">  1        2 0.36799418E+00 0.15401971E+04</pdfrwt>
<pdfrwt beam="2">  1       -1 0.38143888E-01 0.15401971E+04</pdfrwt>
<totfact> 0.29335222E+01</totfact>
</mgrwt>
</event>
<event>
12    6  0.1553355E-007  0.1998448E+04  0.7818608E-02  0.8607346E-01
          2   -1    0    0  501    0  0.00000000000E+00  0.00000000000E+00  0.19812995950E+04  0.19812995950E+04  0.00000000000E+00 0. -1.
         -1   -1    0    0    0  501 -0.00000000000E+00 -0.00000000000E+00 -0.50393643452E+03  0.50393643452E+03  0.00000000000E+00 0.  1.
         24    2    1    2    0    0  0.49419863334E+03 -0.32214592068E+03 -0.71346170426E+02  0.59954626835E+03  0.79719310446E+02 0.  0.
        254    2    1    2    0    0 -0.49419863334E+03  0.32214592068E+03  0.15487093309E+04  0.18856897612E+04  0.89961936415E+03 0.  0.
         23    2    4    4    0    0 -0.34527171642E+03  0.19842384744E+03  0.98723772694E+02  0.41999912907E+03  0.89823737044E+02 0.  0.
         23    2    4    4    0    0 -0.14892691692E+03  0.12372207324E+03  0.14499855582E+04  0.14656906321E+04  0.91129205119E+02 0.  0.
          4    1    3    3  502    0  0.34742752676E+03 -0.23856530500E+03 -0.15795902401E+02  0.42174494856E+03  0.00000000000E+00 0. -1.
         -3    1    3    3    0  502  0.14677110658E+03 -0.83580615672E+02 -0.55550268025E+02  0.17780131979E+03  0.00000000000E+00 0.  1.
         11    1    5    5    0    0 -0.67371944556E+00  0.19996143221E+02  0.75159174267E+01  0.21372614636E+02  0.00000000000E+00 0.  1.
        -11    1    5    5    0    0 -0.34459799697E+03  0.17842770422E+03  0.91207855267E+02  0.39862651444E+03  0.00000000000E+00 0. -1.
          2    1    6    6  503    0 -0.20752914412E+02 -0.19768822936E+01  0.39420275262E+03  0.39475359617E+03  0.00000000000E+00 0.  1.
         -2    1    6    6    0  503 -0.12817400250E+03  0.12569895553E+03  0.10557828056E+04  0.10709370359E+04  0.00000000000E+00 0. -1.
<mgrwt>
<rscale>  0 0.19984485E+04</rscale>
<asrwt>0</asrwt>
<pdfrwt beam="1">  1        2 0.30481532E+00 0.19984485E+04</pdfrwt>
<pdfrwt beam="2">  1       -1 0.77528683E-01 0.19984485E+04</pdfrwt>
<totfact> 0.12070790E+01</totfact>
</mgrwt>
</event>
<event>
12    6  0.1553355E-007  0.1293969E+04  0.7818608E-02  0.9034362E-01
         -1   -1    0    0    0  501 -0.00000000000E+00  0.00000000000E+00  0.32807846031E+03  0.32807846031E+03  0.00000000000E+00 0.  1.
          2   -1    0    0  501    0  0.00000000000E+00 -0.00000000000E+00 -0.12758796231E+04  0.12758796231E+04  0.00000000000E+00 0. -1.
         24    2    1    2    0    0 -0.32263774610E+03  0.32207163571E+02 -0.20061265129E+03  0.38941741194E+03  0.79171132789E+02 0.  0.
        254    2    1    2    0    0  0.32263774610E+03 -0.32207163571E+02 -0.74718851152E+03  0.12145406715E+04  0.90093615443E+03 0.  0.
         23    2    4    4    0    0  0.12829907380E+03  0.33930359596E+03 -0.68613961532E+03  0.78102499544E+03  0.87320611699E+02 0.  0.
         23    2    4    4    0    0  0.19433867230E+03 -0.37151075953E+03 -0.61048896204E+02  0.43351567605E+03  0.91766604226E+02 0.  0.
          2    1    3    3  502    0 -0.11246099962E+03  0.11840444310E+02 -0.11581292065E+03  0.16186508316E+03  0.00000000000E+00 0. -1.
         -1    1    3    3    0  502 -0.21017674648E+03  0.20366719261E+02 -0.84799730643E+02  0.22755232878E+03  0.00000000000E+00 0.  1.
         11    1    5    5    0    0  0.10082548779E+03  0.24802665336E+03 -0.57718064218E+03  0.63625505379E+03  0.00000000000E+00 0.  1.
        -11    1    5    5    0    0  0.27473586012E+02  0.91276942604E+02 -0.10895897314E+03  0.14476994166E+03  0.00000000000E+00 0. -1.
          3    1    6    6  503    0 -0.36657799978E+01  0.29830397478E+01  0.21821276601E+01  0.52055883677E+01  0.00000000000E+00 0. -1.
         -3    1    6    6    0  503  0.19800445230E+03 -0.37449379928E+03 -0.63231023864E+02  0.42831008768E+03  0.00000000000E+00 0.  1.
<mgrwt>
<rscale>  0 0.12939685E+04</rscale>
<asrwt>0</asrwt>
<pdfrwt beam="1">  1        2 0.19628917E+00 0.12939685E+04</pdfrwt>
<pdfrwt beam="2">  1       -1 0.50473609E-01 0.12939685E+04</pdfrwt>
<totfact> 0.75236991E+01</totfact>
</mgrwt>
</event>
<event>
12    6  0.1553355E-007  0.1024124E+04  0.7818608E-02  0.9282475E-01
         -1   -1    0    0    0  501 -0.00000000000E+00  0.00000000000E+00  0.17023510891E+03  0.17023510891E+03  0.00000000000E+00 0.  1.
          2   -1    0    0  501    0  0.00000000000E+00 -0.00000000000E+00 -0.15402658566E+04  0.15402658566E+04  0.00000000000E+00 0. -1.
         24    2    1    2    0    0 -0.93424247229E+02 -0.19303165431E+03 -0.26931172251E+03  0.35329568248E+03  0.79370812282E+02 0.  0.
        254    2    1    2    0    0  0.93424247229E+02  0.19303165431E+03 -0.11007190252E+04  0.13572052831E+04  0.76448315768E+03 0.  0.
         23    2    4    4    0    0 -0.23444650886E+03 -0.16531610904E+03 -0.41285495934E+03  0.51044388192E+03  0.88369438821E+02 0.  0.
         23    2    4    4    0    0  0.32787075609E+03  0.35834776335E+03 -0.68786406588E+03  0.84676140115E+03  0.89081676842E+02 0.  0.
          2    1    3    3  502    0  0.11375466481E+02 -0.45607268199E+02 -0.44234298821E+02  0.64545312320E+02  0.00000000000E+00 0. -1.
         -1    1    3    3    0  502 -0.10479971371E+03 -0.14742438611E+03 -0.22507742368E+03  0.28875037016E+03  0.00000000000E+00 0.  1.
         11    1    5    5    0    0 -0.45591162413E+02 -0.78136816277E+02 -0.15102354125E+03  0.17604552298E+03  0.00000000000E+00 0. -1.
        -11    1    5    5    0    0 -0.18885534645E+03 -0.87179292760E+02 -0.26183141809E+03  0.33439835894E+03  0.00000000000E+00 0.  1.
          1    1    6    6  503    0  0.13590109437E+03  0.21309279290E+03 -0.33662347042E+03  0.42094299694E+03  0.00000000000E+00 0. -1.
         -1    1    6    6    0  503  0.19196966172E+03  0.14525497045E+03 -0.35124059547E+03  0.42581840421E+03  0.00000000000E+00 0.  1.
<mgrwt>
<rscale>  0 0.10241237E+04</rscale>
<asrwt>0</asrwt>
<pdfrwt beam="1">  1        2 0.23696398E+00 0.10241237E+04</pdfrwt>
<pdfrwt beam="2">  1       -1 0.26190017E-01 0.10241237E+04</pdfrwt>
<totfact> 0.17683141E+02</totfact>
</mgrwt>
</event>
<event>
12    6  0.1553355E-007  0.1432840E+04  0.7818608E-02  0.8930384E-01
          2   -1    0    0  501    0  0.00000000000E+00  0.00000000000E+00  0.69609376353E+03  0.69609376353E+03  0.00000000000E+00 0. -1.
         -1   -1    0    0    0  501 -0.00000000000E+00 -0.00000000000E+00 -0.73733980193E+03  0.73733980193E+03  0.00000000000E+00 0.  1.
         24    2    1    2    0    0 -0.18267362269E+03  0.54253690515E+02  0.37345557657E+03  0.42618027374E+03  0.76468573218E+02 0.  0.
        254    2    1    2    0    0  0.18267362269E+03 -0.54253690515E+02 -0.41470161497E+03  0.10072532917E+04  0.89792463430E+03 0.  0.
         23    2    4    4    0    0  0.53141183273E+03 -0.10151502279E+03 -0.30399227424E+03  0.62712891374E+03  0.90418669763E+02 0.  0.
         23    2    4    4    0    0 -0.34873821004E+03  0.47261332270E+02 -0.11070934073E+03  0.38012437798E+03  0.91575170985E+02 0.  0.
          4    1    3    3  502    0 -0.70673896934E+02 -0.13663985956E+02  0.16457153003E+03  0.17962542335E+03  0.00000000000E+00 0. -1.
         -3    1    3    3    0  502 -0.11199972575E+03  0.67917676472E+02  0.20888404655E+03  0.24655485038E+03  0.00000000000E+00 0.  1.
         11    1    5    5    0    0  0.40200037067E+03 -0.11004009104E+03 -0.25429697013E+03  0.48824181373E+03  0.00000000000E+00 0. -1.
        -11    1    5    5    0    0  0.12941146206E+03  0.85250682498E+01 -0.49695304108E+02  0.13888710001E+03  0.00000000000E+00 0.  1.
          1    1    6    6  503    0 -0.32131384608E+03  0.30871866364E+02 -0.12363434136E+03  0.34566039718E+03  0.00000000000E+00 0. -1.
         -1    1    6    6    0  503 -0.27424363960E+02  0.16389465906E+02  0.12925000631E+02  0.34463980801E+02  0.00000000000E+00 0.  1.
<mgrwt>
<rscale>  0 0.14328400E+04</rscale>
<asrwt>0</asrwt>
<pdfrwt beam="1">  1        2 0.10709135E+00 0.14328400E+04</pdfrwt>
<pdfrwt beam="2">  1       -1 0.11343689E+00 0.14328400E+04</pdfrwt>
<totfact> 0.32474250E+01</totfact>
</mgrwt>
</event>
<event>
12    6  0.1553355E-007  0.1465676E+04  0.7818608E-02  0.8907604E-01
         -1   -1    0    0    0  501 -0.00000000000E+00  0.00000000000E+00  0.75702219971E+03  0.75702219971E+03  0.00000000000E+00 0.  1.
          2   -1    0    0  501    0  0.00000000000E+00 -0.00000000000E+00 -0.70942632611E+03  0.70942632611E+03  0.00000000000E+00 0. -1.
         24    2    1    2    0    0  0.34330303653E+03  0.70832788508E+01  0.32232006207E+03  0.47771104546E+03  0.80065428301E+02 0.  0.
        254    2    1    2    0    0 -0.34330303653E+03 -0.70832788508E+01 -0.27472418847E+03  0.98873748036E+03  0.88556268983E+03 0.  0.
         23    2    4    4    0    0 -0.61306932082E+03  0.34518210549E+02 -0.47664237945E+02  0.62238990931E+03  0.89731937689E+02 0.  0.
         23    2    4    4    0    0  0.26976628429E+03 -0.41601489400E+02 -0.22705995052E+03  0.36634757105E+03  0.90276185261E+02 0.  0.
          2    1    3    3  502    0  0.17047237243E+03 -0.12035185050E+02  0.10984581883E+03  0.20315457011E+03  0.00000000000E+00 0. -1.
         -1    1    3    3    0  502  0.17283066410E+03  0.19118463901E+02  0.21247424324E+03  0.27455647535E+03  0.00000000000E+00 0.  1.
         11    1    5    5    0    0 -0.29099614601E+03 -0.26130657483E+02 -0.36807075136E+02  0.29447636413E+03  0.00000000000E+00 0. -1.
        -11    1    5    5    0    0 -0.32207317481E+03  0.60648868032E+02 -0.10857162809E+02  0.32791354518E+03  0.00000000000E+00 0.  1.
          3    1    6    6  503    0  0.99634510846E+02  0.15421648368E+02 -0.43971067205E+02  0.10999235310E+03  0.00000000000E+00 0. -1.
         -3    1    6    6    0  503  0.17013177345E+03 -0.57023137768E+02 -0.18308888331E+03  0.25635521795E+03  0.00000000000E+00 0.  1.
<mgrwt>
<rscale>  0 0.14656759E+04</rscale>
<asrwt>0</asrwt>
<pdfrwt beam="1">  1        2 0.10914251E+00 0.14656759E+04</pdfrwt>
<pdfrwt beam="2">  1       -1 0.11646495E+00 0.14656759E+04</pdfrwt>
<totfact> 0.29681869E+01</totfact>
</mgrwt>
</event>
<event>
12    6  0.1553355E-007  0.1959104E+04  0.7818608E-02  0.8625983E-01
         -1   -1    0    0    0  501 -0.00000000000E+00  0.00000000000E+00  0.57082910097E+03  0.57082910097E+03  0.00000000000E+00 0.  1.
          2   -1    0    0  501    0  0.00000000000E+00 -0.00000000000E+00 -0.16809274707E+04  0.16809274707E+04  0.00000000000E+00 0. -1.
         24    2    1    2    0    0  0.47569195125E+01 -0.65704582725E+03 -0.99019835383E+03  0.11909170510E+04  0.77838262343E+02 0.  0.
        254    2    1    2    0    0 -0.47569195125E+01  0.65704582725E+03 -0.11990001586E+03  0.10608395206E+04  0.82417997265E+03 0.  0.
         23    2    4    4    0    0  0.50597977688E+02  0.80451684127E+03 -0.23603092155E+03  0.84483668814E+03  0.90724475563E+02 0.  0.
         23    2    4    4    0    0 -0.55354897200E+02 -0.14747101402E+03  0.11613090569E+03  0.21600283248E+03  0.91427412532E+02 0.  0.
          4    1    3    3  502    0 -0.51970121384E+01 -0.64489463013E+03 -0.95488701241E+03  0.11522696296E+04  0.00000000000E+00 0. -1.
         -3    1    3    3    0  502  0.99539316509E+01 -0.12151197125E+02 -0.35311341425E+02  0.38647421390E+02  0.00000000000E+00 0.  1.
         11    1    5    5    0    0  0.64991424909E+01  0.50890323424E+02  0.69697817350E+01  0.51774914087E+02  0.00000000000E+00 0. -1.
        -11    1    5    5    0    0  0.44098835197E+02  0.75362651785E+03 -0.24300070328E+03  0.79306177405E+03  0.00000000000E+00 0.  1.
          3    1    6    6  503    0  0.23017606885E+02 -0.13990142436E+02  0.12270110297E+02  0.29598816173E+02  0.00000000000E+00 0. -1.
         -3    1    6    6    0  503 -0.78372504086E+02 -0.13348087159E+03  0.10386079539E+03  0.18640401631E+03  0.00000000000E+00 0.  1.
<mgrwt>
<rscale>  0 0.19591042E+04</rscale>
<asrwt>0</asrwt>
<pdfrwt beam="1">  1        2 0.25860422E+00 0.19591042E+04</pdfrwt>
<pdfrwt beam="2">  1       -1 0.87819862E-01 0.19591042E+04</pdfrwt>
<totfact> 0.13603309E+01</totfact>
</mgrwt>
</event>
<event>
12    6  0.1553355E-007  0.1261640E+04  0.7818608E-02  0.9060551E-01
          2   -1    0    0  501    0  0.00000000000E+00  0.00000000000E+00  0.73957179231E+03  0.73957179231E+03  0.00000000000E+00 0. -1.
         -1   -1    0    0    0  501 -0.00000000000E+00 -0.00000000000E+00 -0.53805981805E+03  0.53805981805E+03  0.00000000000E+00 0.  1.
         24    2    1    2    0    0  0.91097772722E+02  0.26704524658E+02  0.34167291076E+03  0.36320945550E+03  0.78541675473E+02 0.  0.
        254    2    1    2    0    0 -0.91097772722E+02 -0.26704524658E+02 -0.14016093651E+03  0.91442215485E+03  0.89861607672E+03 0.  0.
         23    2    4    4    0    0 -0.12376712418E+03 -0.43014182801E+03 -0.19314494121E+03  0.49607182375E+03  0.91880317666E+02 0.  0.
         23    2    4    4    0    0  0.32669351455E+02  0.40343730335E+03  0.52984004703E+02  0.41835033110E+03  0.91546439125E+02 0.  0.
          2    1    3    3  502    0  0.98675953107E+02  0.48030337913E+01  0.25432098940E+03  0.27283544217E+03  0.00000000000E+00 0. -1.
         -1    1    3    3    0  502 -0.75781803843E+01  0.21901490867E+02  0.87351921367E+02  0.90374013337E+02  0.00000000000E+00 0.  1.
         11    1    5    5    0    0 -0.10502792516E+03 -0.22212041479E+03 -0.12943123821E+03  0.27770630017E+03  0.00000000000E+00 0. -1.
        -11    1    5    5    0    0 -0.18739199013E+02 -0.20802141322E+03 -0.63713702995E+02  0.21836552358E+03  0.00000000000E+00 0.  1.
          4    1    6    6  503    0  0.24411393046E+02  0.17458266233E+03  0.67795298043E+02  0.18886827296E+03  0.00000000000E+00 0. -1.
         -4    1    6    6    0  503  0.82579584094E+01  0.22885464103E+03 -0.14811293341E+02  0.22948205814E+03  0.00000000000E+00 0.  1.
<mgrwt>
<rscale>  0 0.12616400E+04</rscale>
<asrwt>0</asrwt>
<pdfrwt beam="1">  1        2 0.11378028E+00 0.12616400E+04</pdfrwt>
<pdfrwt beam="2">  1       -1 0.82778433E-01 0.12616400E+04</pdfrwt>
<totfact> 0.62162438E+01</totfact>
</mgrwt>
</event>
<event>
12    6  0.1553355E-007  0.1281917E+04  0.7818608E-02  0.9044029E-01
          2   -1    0    0  501    0  0.00000000000E+00  0.00000000000E+00  0.21781959913E+04  0.21781959913E+04  0.00000000000E+00 0. -1.
         -1   -1    0    0    0  501 -0.00000000000E+00 -0.00000000000E+00 -0.18860919202E+03  0.18860919202E+03  0.00000000000E+00 0.  1.
         24    2    1    2    0    0 -0.12931534390E+03 -0.57344330696E+02  0.10341052789E+04  0.10468385584E+04  0.80538246036E+02 0.  0.
        254    2    1    2    0    0  0.12931534390E+03  0.57344330696E+02  0.95548152038E+03  0.13199666249E+04  0.89964222036E+03 0.  0.
         23    2    4    4    0    0 -0.24740149264E+03  0.27998664837E+03  0.71699908443E+03  0.81355627303E+03  0.90477071595E+02 0.  0.
         23    2    4    4    0    0  0.37671683654E+03 -0.22264231767E+03  0.23848243595E+03  0.50641035188E+03  0.89957743886E+02 0.  0.
          2    1    3    3  502    0 -0.59942693255E+02 -0.40725308408E+02  0.76548396622E+03  0.76890661316E+03  0.00000000000E+00 0. -1.
         -1    1    3    3    0  502 -0.69372650649E+02 -0.16619022288E+02  0.26862131265E+03  0.27793194521E+03  0.00000000000E+00 0.  1.
         11    1    5    5    0    0 -0.18688189511E+03  0.17920391116E+03  0.56414670199E+03  0.62072569293E+03  0.00000000000E+00 0.  1.
        -11    1    5    5    0    0 -0.60519597531E+02  0.10078273721E+03  0.15285238244E+03  0.19283058010E+03  0.00000000000E+00 0. -1.
          1    1    6    6  503    0  0.78708881919E+02 -0.32828220912E+02  0.87482867075E+02  0.12217214172E+03  0.00000000000E+00 0. -1.
         -1    1    6    6    0  503  0.29800795462E+03 -0.18981409676E+03  0.15099956887E+03  0.38423821016E+03  0.00000000000E+00 0.  1.
<mgrwt>
<rscale>  0 0.12819170E+04</rscale>
<asrwt>0</asrwt>
<pdfrwt beam="1">  1        2 0.33510706E+00 0.12819170E+04</pdfrwt>
<pdfrwt beam="2">  1       -1 0.29016800E-01 0.12819170E+04</pdfrwt>
<totfact> 0.64368272E+01</totfact>
</mgrwt>
</event>
<event>
12    6  0.1553355E-007  0.2250145E+04  0.7818608E-02  0.8497842E-01
         -1   -1    0    0    0  501 -0.00000000000E+00  0.00000000000E+00  0.98152962153E+03  0.98152962153E+03  0.00000000000E+00 0.  1.
          2   -1    0    0  501    0  0.00000000000E+00 -0.00000000000E+00 -0.12896079746E+04  0.12896079746E+04  0.00000000000E+00 0. -1.
         24    2    1    2    0    0  0.20460540574E+02  0.59964632157E+03  0.60747690427E+03  0.85675761697E+03  0.70788984545E+02 0.  0.
        254    2    1    2    0    0 -0.20460540574E+02 -0.59964632157E+03 -0.91555525734E+03  0.14143799792E+04  0.89567569550E+03 0.  0.
         23    2    4    4    0    0  0.13213846394E+03 -0.59343127862E+03 -0.15590228853E+03  0.63430462117E+03  0.91736430979E+02 0.  0.
         23    2    4    4    0    0 -0.15259900452E+03 -0.62150429421E+01 -0.75965296882E+03  0.78007535799E+03  0.90110200148E+02 0.  0.
          2    1    3    3  502    0 -0.22583830831E+02  0.35462658506E+03  0.36215788544E+03  0.50737400232E+03  0.00000000000E+00 0. -1.
         -1    1    3    3    0  502  0.43044371405E+02  0.24501973651E+03  0.24531901883E+03  0.34938361465E+03  0.00000000000E+00 0.  1.
         11    1    5    5    0    0  0.13953223284E+03 -0.51849065783E+03 -0.15549312081E+03  0.55899903120E+03  0.00000000000E+00 0.  1.
        -11    1    5    5    0    0 -0.73937688967E+01 -0.74940620790E+02 -0.40916771860E+00  0.75305589972E+02  0.00000000000E+00 0. -1.
          3    1    6    6  503    0 -0.23793787119E+02 -0.35303453822E+02 -0.13250326794E+03  0.13917468940E+03  0.00000000000E+00 0. -1.
         -3    1    6    6    0  503 -0.12880521740E+03  0.29088410880E+02 -0.62714970088E+03  0.64090066858E+03  0.00000000000E+00 0.  1.
<mgrwt>
<rscale>  0 0.22501453E+04</rscale>
<asrwt>0</asrwt>
<pdfrwt beam="1">  1        2 0.19840123E+00 0.22501453E+04</pdfrwt>
<pdfrwt beam="2">  1       -1 0.15100456E+00 0.22501453E+04</pdfrwt>
<totfact> 0.59601407E+00</totfact>
</mgrwt>
</event>
<event>
12    6  0.1553355E-007  0.1138462E+04  0.7818608E-02  0.9168494E-01
         -1   -1    0    0    0  501 -0.00000000000E+00  0.00000000000E+00  0.24966201726E+03  0.24966201726E+03  0.00000000000E+00 0.  1.
          2   -1    0    0  501    0  0.00000000000E+00 -0.00000000000E+00 -0.12978509743E+04  0.12978509743E+04  0.00000000000E+00 0. -1.
         24    2    1    2    0    0 -0.13535474235E+03  0.80772115395E+02 -0.36153653356E+03  0.40251246961E+03  0.80390187174E+02 0.  0.
        254    2    1    2    0    0  0.13535474235E+03 -0.80772115395E+02 -0.68665242348E+03  0.11450005220E+04  0.90260157528E+03 0.  0.
         23    2    4    4    0    0  0.30084281292E+03 -0.42226006180E+03 -0.40701110363E+03  0.66531284340E+03  0.90405659390E+02 0.  0.
         23    2    4    4    0    0 -0.16548807057E+03  0.34148794640E+03 -0.27964131985E+03  0.47968767855E+03  0.88885781438E+02 0.  0.
          4    1    3    3  502    0 -0.14459986370E+03  0.72347661898E+02 -0.31183320741E+03  0.35125952515E+03  0.00000000000E+00 0. -1.
         -3    1    3    3    0  502  0.92451213577E+01  0.84244534964E+01 -0.49703326152E+02  0.51252944463E+02  0.00000000000E+00 0.  1.
         11    1    5    5    0    0  0.44218650372E+02 -0.20411187200E+02 -0.48811841949E+02  0.68952893472E+02  0.00000000000E+00 0. -1.
        -11    1    5    5    0    0  0.25662416254E+03 -0.40184887460E+03 -0.35819926168E+03  0.59635994993E+03  0.00000000000E+00 0.  1.
          2    1    6    6  503    0 -0.37054224125E+02  0.11608126250E+03 -0.13804931928E+03  0.18413443345E+03  0.00000000000E+00 0. -1.
         -2    1    6    6    0  503 -0.12843384645E+03  0.22540668390E+03 -0.14159200058E+03  0.29555324510E+03  0.00000000000E+00 0.  1.
<mgrwt>
<rscale>  0 0.11384623E+04</rscale>
<asrwt>0</asrwt>
<pdfrwt beam="1">  1        2 0.19966938E+00 0.11384623E+04</pdfrwt>
<pdfrwt beam="2">  1       -1 0.38409541E-01 0.11384623E+04</pdfrwt>
<totfact> 0.12268416E+02</totfact>
</mgrwt>
</event>
<event>
12    6  0.1553355E-007  0.1733540E+04  0.7818608E-02  0.8742463E-01
         -1   -1    0    0    0  501 -0.00000000000E+00  0.00000000000E+00  0.13713119160E+04  0.13713119160E+04  0.00000000000E+00 0.  1.
          2   -1    0    0  501    0  0.00000000000E+00 -0.00000000000E+00 -0.54786235132E+03  0.54786235132E+03  0.00000000000E+00 0. -1.
         24    2    1    2    0    0 -0.31453245111E+03 -0.50706691678E+03  0.52068036714E+03  0.79590085078E+03  0.79388907593E+02 0.  0.
        254    2    1    2    0    0  0.31453245111E+03  0.50706691678E+03  0.30276919753E+03  0.11232734165E+04  0.90223414945E+03 0.  0.
         23    2    4    4    0    0 -0.25520204644E+03  0.71299809570E+02  0.28530545387E+03  0.39984769572E+03  0.90924311437E+02 0.  0.
         23    2    4    4    0    0  0.56973449755E+03  0.43576710721E+03  0.17463743660E+02  0.72342572082E+03  0.92463083261E+02 0.  0.
          2    1    3    3  502    0 -0.23919939244E+03 -0.41087495448E+03  0.37337327949E+03  0.60451814150E+03  0.00000000000E+00 0. -1.
         -1    1    3    3    0  502 -0.75333058666E+02 -0.96191962309E+02  0.14730708765E+03  0.19138270929E+03  0.00000000000E+00 0.  1.
         11    1    5    5    0    0 -0.15115898001E+03  0.15896242448E+02  0.10614292033E+03  0.18538621119E+03  0.00000000000E+00 0.  1.
        -11    1    5    5    0    0 -0.10404306643E+03  0.55403567122E+02  0.17916253355E+03  0.21446148453E+03  0.00000000000E+00 0. -1.
          3    1    6    6  503    0  0.16787243206E+03  0.85745891563E+02 -0.17765081661E+02  0.18933861067E+03  0.00000000000E+00 0. -1.
         -3    1    6    6    0  503  0.40186206550E+03  0.35002121565E+03  0.35228825321E+02  0.53408711015E+03  0.00000000000E+00 0.  1.
<mgrwt>
<rscale>  0 0.17335399E+04</rscale>
<asrwt>0</asrwt>
<pdfrwt beam="1">  1        2 0.84286516E-01 0.17335399E+04</pdfrwt>
<pdfrwt beam="2">  1       -1 0.21097106E+00 0.17335399E+04</pdfrwt>
<totfact> 0.75928921E+00</totfact>
</mgrwt>
</event>
<event>
12    6  0.1553355E-007  0.2334756E+04  0.7818608E-02  0.8464342E-01
          2   -1    0    0  501    0  0.00000000000E+00  0.00000000000E+00  0.94593195656E+03  0.94593195656E+03  0.00000000000E+00 0. -1.
         -1   -1    0    0    0  501 -0.00000000000E+00 -0.00000000000E+00 -0.14406650703E+04  0.14406650703E+04  0.00000000000E+00 0.  1.
         24    2    1    2    0    0 -0.66908475036E+03  0.46087089271E+03  0.33285165180E+03  0.88154285999E+03  0.79064587398E+02 0.  0.
        254    2    1    2    0    0  0.66908475036E+03 -0.46087089271E+03 -0.82758476557E+03  0.15050541669E+04  0.95927843621E+03 0.  0.
         23    2    4    4    0    0  0.39925253319E+03  0.18064898892E+03 -0.63656419680E+03  0.77793555845E+03  0.89068030186E+02 0.  0.
         23    2    4    4    0    0  0.26983221718E+03 -0.64151988163E+03 -0.19102056877E+03  0.72711860845E+03  0.88630858645E+02 0.  0.
          2    1    3    3  502    0 -0.62234541660E+03  0.43721259192E+03  0.29043709537E+03  0.81413903877E+03  0.00000000000E+00 0. -1.
         -1    1    3    3    0  502 -0.46739333766E+02  0.23658300795E+02  0.42414556436E+02  0.67403821220E+02  0.00000000000E+00 0.  1.
         11    1    5    5    0    0  0.23668298979E+03  0.15383982876E+03 -0.41089266029E+03  0.49851610691E+03  0.00000000000E+00 0. -1.
        -11    1    5    5    0    0  0.16256954340E+03  0.26809160163E+02 -0.22567153651E+03  0.27941945154E+03  0.00000000000E+00 0.  1.
          3    1    6    6  503    0  0.58165367868E+02 -0.66132241052E+02 -0.15725076688E+02  0.89464861050E+02  0.00000000000E+00 0. -1.
         -3    1    6    6    0  503  0.21166684931E+03 -0.57538764058E+03 -0.17529549208E+03  0.63765374740E+03  0.00000000000E+00 0.  1.
<mgrwt>
<rscale>  0 0.23347558E+04</rscale>
<asrwt>0</asrwt>
<pdfrwt beam="1">  1        2 0.14552799E+00 0.23347558E+04</pdfrwt>
<pdfrwt beam="2">  1       -1 0.22164078E+00 0.23347558E+04</pdfrwt>
<totfact> 0.30219447E+00</totfact>
</mgrwt>
</event>
<event>
12    6  0.1553355E-007  0.4552889E+04  0.7818608E-02  0.7901442E-01
         -1   -1    0    0    0  501 -0.00000000000E+00  0.00000000000E+00  0.17526666799E+04  0.17526666799E+04  0.00000000000E+00 0.  1.
          2   -1    0    0  501    0  0.00000000000E+00 -0.00000000000E+00 -0.29567519472E+04  0.29567519472E+04  0.00000000000E+00 0. -1.
         24    2    1    2    0    0  0.23096218920E+03  0.11723855494E+04 -0.24703033544E+04  0.27452207234E+04  0.77503212133E+02 0.  0.
        254    2    1    2    0    0 -0.23096218920E+03 -0.11723855494E+04  0.12662180872E+04  0.19641979037E+04  0.90935897808E+03 0.  0.
         23    2    4    4    0    0 -0.18823413405E+03 -0.37651712470E+03  0.10471600288E+04  0.11324914080E+04  0.93783947246E+02 0.  0.
         23    2    4    4    0    0 -0.42728055149E+02 -0.79586842475E+03  0.21905805841E+03  0.83170649571E+03  0.92287734001E+02 0.  0.
          2    1    3    3  502    0  0.20184088485E+03  0.10022561123E+04 -0.21717076172E+04  0.24003272761E+04  0.00000000000E+00 0. -1.
         -1    1    3    3    0  502  0.29121304345E+02  0.17012943710E+03 -0.29859573721E+03  0.34489344734E+03  0.00000000000E+00 0.  1.
         11    1    5    5    0    0 -0.12820516193E+03 -0.29598151803E+03  0.69347716797E+03  0.76482168187E+03  0.00000000000E+00 0.  1.
        -11    1    5    5    0    0 -0.60028972113E+02 -0.80535606673E+02  0.35368286083E+03  0.36766972609E+03  0.00000000000E+00 0. -1.
          3    1    6    6  503    0 -0.26324439493E+02 -0.75820737257E+03  0.22212700960E+03  0.79051363323E+03  0.00000000000E+00 0. -1.
         -3    1    6    6    0  503 -0.16403615656E+02 -0.37661052183E+02 -0.30689511911E+01  0.41192862483E+02  0.00000000000E+00 0.  1.
<mgrwt>
<rscale>  0 0.45528895E+04</rscale>
<asrwt>0</asrwt>
<pdfrwt beam="1">  1        2 0.45488491E+00 0.45528895E+04</pdfrwt>
<pdfrwt beam="2">  1       -1 0.26964103E+00 0.45528895E+04</pdfrwt>
<totfact> 0.82475598E-02</totfact>
</mgrwt>
</event>
<event>
12    6  0.1553355E-007  0.3315107E+04  0.7818608E-02  0.8159062E-01
         -1   -1    0    0    0  501 -0.00000000000E+00  0.00000000000E+00  0.22328965156E+04  0.22328965156E+04  0.00000000000E+00 0.  1.
          2   -1    0    0  501    0  0.00000000000E+00 -0.00000000000E+00 -0.12304570722E+04  0.12304570722E+04  0.00000000000E+00 0. -1.
         24    2    1    2    0    0 -0.72078234304E+03 -0.10184194298E+04  0.13707283649E+04  0.18552698699E+04  0.80154343414E+02 0.  0.
        254    2    1    2    0    0  0.72078234304E+03  0.10184194298E+04 -0.36828892150E+03  0.16080837178E+04  0.94529952550E+03 0.  0.
         23    2    4    4    0    0  0.78081874086E+03  0.33132369753E+03 -0.86323612729E+02  0.85755646573E+03  0.92184744855E+02 0.  0.
         23    2    4    4    0    0 -0.60036397818E+02  0.68709573224E+03 -0.28196530877E+03  0.75052725210E+03  0.89898868024E+02 0.  0.
          2    1    3    3  502    0 -0.53185973783E+02 -0.44459296227E+02  0.69932943266E+02  0.98468235396E+02  0.00000000000E+00 0. -1.
         -1    1    3    3    0  502 -0.66759636926E+03 -0.97396013354E+03  0.13007954217E+04  0.17568016345E+04  0.00000000000E+00 0.  1.
         11    1    5    5    0    0  0.77147572946E+03  0.32675688765E+03 -0.73490167114E+02  0.84103844706E+03  0.00000000000E+00 0. -1.
        -11    1    5    5    0    0  0.93430113997E+01  0.45668098781E+01 -0.12833445615E+02  0.16518018672E+02  0.00000000000E+00 0.  1.
          2    1    6    6  503    0 -0.41506881167E+02  0.33937056648E+03 -0.18650852854E+03  0.38946197991E+03  0.00000000000E+00 0.  1.
         -2    1    6    6    0  503 -0.18529516652E+02  0.34772516576E+03 -0.95456780225E+02  0.36106527219E+03  0.00000000000E+00 0. -1.
<mgrwt>
<rscale>  0 0.33151068E+04</rscale>
<asrwt>0</asrwt>
<pdfrwt beam="1">  1        2 0.18930109E+00 0.33151068E+04</pdfrwt>
<pdfrwt beam="2">  1       -1 0.34352254E+00 0.33151068E+04</pdfrwt>
<totfact> 0.29591834E-01</totfact>
</mgrwt>
</event>
<event>
12    6  0.1553355E-007  0.1787049E+04  0.7818608E-02  0.8713217E-01
         -3   -1    0    0    0  501 -0.00000000000E+00  0.00000000000E+00  0.33078483246E+03  0.33078483246E+03  0.00000000000E+00 0.  1.
          2   -1    0    0  501    0  0.00000000000E+00 -0.00000000000E+00 -0.24136112359E+04  0.24136112359E+04  0.00000000000E+00 0. -1.
         24    2    1    2    0    0 -0.14275043913E+03  0.37150779310E+03 -0.15423421257E+04  0.15948495103E+04  0.79561294085E+02 0.  0.
        254    2    1    2    0    0  0.14275043913E+03 -0.37150779310E+03 -0.54048427770E+03  0.11495465580E+04  0.93324075482E+03 0.  0.
         23    2    4    4    0    0  0.19622990939E+03 -0.53933222851E+03 -0.74465865398E+01  0.58081150309E+03  0.88888246833E+02 0.  0.
         23    2    4    4    0    0 -0.53479470252E+02  0.16782443541E+03 -0.53303769116E+03  0.56873505495E+03  0.91133351051E+02 0.  0.
          2    1    3    3  502    0 -0.11039590544E+03  0.31813375944E+03 -0.11774163444E+04  0.12246246743E+04  0.00000000000E+00 0. -1.
         -1    1    3    3    0  502 -0.32354533694E+02  0.53374033654E+02 -0.36492578132E+03  0.37022483600E+03  0.00000000000E+00 0.  1.
         11    1    5    5    0    0 -0.44630934832E+01 -0.43552563946E+02  0.12658183470E+02  0.45573837215E+02  0.00000000000E+00 0.  1.
        -11    1    5    5    0    0  0.20069300287E+03 -0.49577966456E+03 -0.20104770010E+02  0.53523766587E+03  0.00000000000E+00 0. -1.
          4    1    6    6  503    0 -0.61546253097E+02  0.17370752635E+03 -0.46872585567E+03  0.50365283058E+03  0.00000000000E+00 0. -1.
         -4    1    6    6    0  503  0.80667828449E+01 -0.58830909408E+01 -0.64311835494E+02  0.65082224371E+02  0.00000000000E+00 0.  1.
<mgrwt>
<rscale>  0 0.17870490E+04</rscale>
<asrwt>0</asrwt>
<pdfrwt beam="1">  1        2 0.37132481E+00 0.17870490E+04</pdfrwt>
<pdfrwt beam="2">  1       -3 0.50889974E-01 0.17870490E+04</pdfrwt>
<totfact> 0.90977776E+00</totfact>
</mgrwt>
</event>
<event>
12    6  0.1553355E-007  0.2132753E+04  0.7818608E-02  0.8546951E-01
          2   -1    0    0  501    0  0.00000000000E+00  0.00000000000E+00  0.10227539190E+04  0.10227539190E+04  0.00000000000E+00 0. -1.
         -1   -1    0    0    0  501 -0.00000000000E+00 -0.00000000000E+00 -0.11118600672E+04  0.11118600672E+04  0.00000000000E+00 0.  1.
         24    2    1    2    0    0  0.16131032909E+03 -0.15678856482E+02 -0.89449432790E+03  0.91260707651E+03  0.80403511373E+02 0.  0.
        254    2    1    2    0    0 -0.16131032909E+03  0.15678856482E+02  0.80538817971E+03  0.12220069097E+04  0.90464574197E+03 0.  0.
         23    2    4    4    0    0 -0.24295661102E+03  0.11616643022E+03  0.95886268456E+03  0.10007315759E+04  0.97588343764E+02 0.  0.
         23    2    4    4    0    0  0.81646281939E+02 -0.10048757373E+03 -0.15347450486E+03  0.22127533376E+03  0.92975705755E+02 0.  0.
          2    1    3    3  502    0  0.43974000528E+02 -0.75713383521E+01 -0.10065622002E+03  0.11010319030E+03  0.00000000000E+00 0. -1.
         -1    1    3    3    0  502  0.11733632856E+03 -0.81075181301E+01 -0.79383810789E+03  0.80250388621E+03  0.00000000000E+00 0.  1.
         11    1    5    5    0    0 -0.24317048018E+03  0.10185423134E+03  0.94389026943E+03  0.98001786086E+03  0.00000000000E+00 0.  1.
        -11    1    5    5    0    0  0.21386915885E+00  0.14312198874E+02  0.14972415135E+02  0.20713715060E+02  0.00000000000E+00 0. -1.
          2    1    6    6  503    0  0.69011282256E+02 -0.25722561453E+02 -0.37327297584E+02  0.82568361926E+02  0.00000000000E+00 0. -1.
         -2    1    6    6    0  503  0.12634999684E+02 -0.74765012280E+02 -0.11614720727E+03  0.13870697183E+03  0.00000000000E+00 0.  1.
<mgrwt>
<rscale>  0 0.21327534E+04</rscale>
<asrwt>0</asrwt>
<pdfrwt beam="1">  1        2 0.15734676E+00 0.21327534E+04</pdfrwt>
<pdfrwt beam="2">  1       -1 0.17105540E+00 0.21327534E+04</pdfrwt>
<totfact> 0.61713413E+00</totfact>
</mgrwt>
</event>
<event>
12    6  0.1553355E-007  0.1850563E+04  0.7818608E-02  0.8679863E-01
         -1   -1    0    0    0  501 -0.00000000000E+00  0.00000000000E+00  0.31015488000E+03  0.31015488000E+03  0.00000000000E+00 0.  1.
          2   -1    0    0  501    0  0.00000000000E+00 -0.00000000000E+00 -0.27603827007E+04  0.27603827007E+04  0.00000000000E+00 0. -1.
         24    2    1    2    0    0 -0.30358293294E+03  0.57572320574E+03 -0.13955795420E+04  0.15418464841E+04  0.77643516577E+02 0.  0.
        254    2    1    2    0    0  0.30358293294E+03 -0.57572320574E+03 -0.10546482787E+04  0.15286910966E+04  0.89498249720E+03 0.  0.
         23    2    4    4    0    0  0.59890154651E+03 -0.29694122420E+03 -0.77591784531E+03  0.10281900013E+04  0.90934168641E+02 0.  0.
         23    2    4    4    0    0 -0.29531861356E+03 -0.27878198154E+03 -0.27873043340E+03  0.50050109533E+03  0.88759310392E+02 0.  0.
          2    1    3    3  502    0 -0.12336656466E+03  0.23268926583E+03 -0.47692888089E+03  0.54481626365E+03  0.00000000000E+00 0. -1.
         -1    1    3    3    0  502 -0.18021636828E+03  0.34303393991E+03 -0.91865066112E+03  0.99703022046E+03  0.00000000000E+00 0.  1.
         11    1    5    5    0    0  0.14175742431E+03 -0.62223877743E+02 -0.12567225335E+03  0.19940033493E+03  0.00000000000E+00 0. -1.
        -11    1    5    5    0    0  0.45714412220E+03 -0.23471734646E+03 -0.65024559196E+03  0.82878966635E+03  0.00000000000E+00 0.  1.
          1    1    6    6  503    0 -0.21443525654E+02 -0.52366745704E+02 -0.63499507566E+02  0.85054619565E+02  0.00000000000E+00 0. -1.
         -1    1    6    6    0  503 -0.27387508791E+03 -0.22641523584E+03 -0.21523092583E+03  0.41544647577E+03  0.00000000000E+00 0.  1.
<mgrwt>
<rscale>  0 0.18505633E+04</rscale>
<asrwt>0</asrwt>
<pdfrwt beam="1">  1        2 0.42467424E+00 0.18505633E+04</pdfrwt>
<pdfrwt beam="2">  1       -1 0.47716138E-01 0.18505633E+04</pdfrwt>
<totfact> 0.11496377E+01</totfact>
</mgrwt>
</event>
<event>
12    6  0.1553355E-007  0.1822076E+04  0.7818608E-02  0.8694647E-01
         -1   -1    0    0    0  501 -0.00000000000E+00  0.00000000000E+00  0.60097001289E+03  0.60097001289E+03  0.00000000000E+00 0.  1.
          2   -1    0    0  501    0  0.00000000000E+00 -0.00000000000E+00 -0.13810850203E+04  0.13810850203E+04  0.00000000000E+00 0. -1.
         24    2    1    2    0    0 -0.18074267399E+03 -0.52250193854E+03  0.14339433083E+03  0.57709910074E+03  0.82493926956E+02 0.  0.
        254    2    1    2    0    0  0.18074267399E+03  0.52250193854E+03 -0.92350933827E+03  0.14049559325E+04  0.90297036739E+03 0.  0.
         23    2    4    4    0    0  0.12512388407E+03  0.72765298360E+03 -0.42940657582E+03  0.85892974502E+03  0.90749372559E+02 0.  0.
         23    2    4    4    0    0  0.55618789922E+02 -0.20515104506E+03 -0.49410276245E+03  0.54602618747E+03  0.93950287146E+02 0.  0.
          2    1    3    3  502    0 -0.91248056216E+01 -0.87500119734E+02 -0.54127778922E-02  0.87974616000E+02  0.00000000000E+00 0. -1.
         -1    1    3    3    0  502 -0.17161786837E+03 -0.43500181881E+03  0.14339974361E+03  0.48912448474E+03  0.00000000000E+00 0.  1.
         11    1    5    5    0    0  0.34479400188E+02  0.16367817812E+03 -0.55567104508E+02  0.17625855478E+03  0.00000000000E+00 0. -1.
        -11    1    5    5    0    0  0.90644483877E+02  0.56397480548E+03 -0.37383947131E+03  0.68267119024E+03  0.00000000000E+00 0.  1.
          3    1    6    6  503    0 -0.18601711392E+02 -0.18885419756E+02 -0.10506467671E+03  0.10835713653E+03  0.00000000000E+00 0. -1.
         -3    1    6    6    0  503  0.74220501313E+02 -0.18626562530E+03 -0.38903808575E+03  0.43766905093E+03  0.00000000000E+00 0.  1.
<mgrwt>
<rscale>  0 0.18220765E+04</rscale>
<asrwt>0</asrwt>
<pdfrwt beam="1">  1        2 0.21247462E+00 0.18220765E+04</pdfrwt>
<pdfrwt beam="2">  1       -1 0.92456925E-01 0.18220765E+04</pdfrwt>
<totfact> 0.18133817E+01</totfact>
</mgrwt>
</event>
<event>
12    6  0.1553355E-007  0.1393546E+04  0.7818608E-02  0.8958503E-01
         -1   -1    0    0    0  501 -0.00000000000E+00  0.00000000000E+00  0.11651809920E+04  0.11651809920E+04  0.00000000000E+00 0.  1.
          2   -1    0    0  501    0  0.00000000000E+00 -0.00000000000E+00 -0.41666721420E+03  0.41666721420E+03  0.00000000000E+00 0. -1.
         24    2    1    2    0    0 -0.26958100037E+03 -0.18636696493E+03 -0.43413337588E+02  0.34005981410E+03  0.79683109280E+02 0.  0.
        254    2    1    2    0    0  0.26958100037E+03  0.18636696493E+03  0.79192711542E+03  0.12417883921E+04  0.89860074189E+03 0.  0.
         23    2    4    4    0    0  0.48650760424E+03  0.29044288828E+03  0.22283594149E+03  0.61595935418E+03  0.93291740544E+02 0.  0.
         23    2    4    4    0    0 -0.21692660386E+03 -0.10407592335E+03  0.56909117393E+03  0.62582903795E+03  0.99540299439E+02 0.  0.
          4    1    3    3  502    0 -0.23084581440E+03 -0.18811196881E+03 -0.45442211380E+02  0.30123229809E+03  0.00000000000E+00 0. -1.
         -3    1    3    3    0  502 -0.38735185969E+02  0.17450038783E+01  0.20288737913E+01  0.38827516010E+02  0.00000000000E+00 0.  1.
         11    1    5    5    0    0  0.41971364926E+03  0.28475173014E+03  0.19557569863E+03  0.54359263156E+03  0.00000000000E+00 0.  1.
        -11    1    5    5    0    0  0.66793954976E+02  0.56911581410E+01  0.27260242854E+02  0.72366722620E+02  0.00000000000E+00 0. -1.
          2    1    6    6  503    0 -0.75063318721E+02  0.42513546227E+01  0.10980543677E+03  0.13307820925E+03  0.00000000000E+00 0. -1.
         -2    1    6    6    0  503 -0.14186328514E+03 -0.10832727798E+03  0.45928573716E+03  0.49275082870E+03  0.00000000000E+00 0.  1.
<mgrwt>
<rscale>  0 0.13935461E+04</rscale>
<asrwt>0</asrwt>
<pdfrwt beam="1">  1        2 0.64102649E-01 0.13935461E+04</pdfrwt>
<pdfrwt beam="2">  1       -1 0.17925861E+00 0.13935461E+04</pdfrwt>
<totfact> 0.17819273E+01</totfact>
</mgrwt>
</event>
<event>
12    6  0.1553355E-007  0.1285608E+04  0.7818608E-02  0.9041057E-01
          2   -1    0    0  501    0  0.00000000000E+00  0.00000000000E+00  0.72819508848E+03  0.72819508848E+03  0.00000000000E+00 0. -1.
         -1   -1    0    0    0  501 -0.00000000000E+00 -0.00000000000E+00 -0.56742605731E+03  0.56742605731E+03  0.00000000000E+00 0.  1.
         24    2    1    2    0    0 -0.11172930700E+03  0.12755441015E+02 -0.26410998088E+03  0.29804095804E+03  0.80176002337E+02 0.  0.
        254    2    1    2    0    0  0.11172930700E+03 -0.12755441015E+02  0.42487901205E+03  0.99758018776E+03  0.89554336401E+03 0.  0.
         23    2    4    4    0    0  0.26507608703E+03  0.27981389772E+03  0.50903585126E+03  0.64516675074E+03  0.92528315294E+02 0.  0.
         23    2    4    4    0    0 -0.15334678003E+03 -0.29256933873E+03 -0.84156839209E+02  0.35241343702E+03  0.89447214004E+02 0.  0.
          2    1    3    3  502    0  0.11033278367E+02  0.13499493012E+01 -0.47668143899E+02  0.48946987010E+02  0.00000000000E+00 0. -1.
         -1    1    3    3    0  502 -0.12276258537E+03  0.11405491714E+02 -0.21644183698E+03  0.24909397103E+03  0.00000000000E+00 0.  1.
         11    1    5    5    0    0  0.95726213743E+02  0.16096015336E+03  0.20795783367E+03  0.27985378245E+03  0.00000000000E+00 0. -1.
        -11    1    5    5    0    0  0.16934987329E+03  0.11885374436E+03  0.30107801759E+03  0.36531296830E+03  0.00000000000E+00 0.  1.
          4    1    6    6  503    0 -0.50596814095E+02 -0.18878610333E+03 -0.36789664121E+02  0.19888114489E+03  0.00000000000E+00 0. -1.
         -4    1    6    6    0  503 -0.10274996593E+03 -0.10378323540E+03 -0.47367175088E+02  0.15353229213E+03  0.00000000000E+00 0.  1.
<mgrwt>
<rscale>  0 0.12856078E+04</rscale>
<asrwt>0</asrwt>
<pdfrwt beam="1">  1        2 0.11203001E+00 0.12856078E+04</pdfrwt>
<pdfrwt beam="2">  1       -1 0.87296317E-01 0.12856078E+04</pdfrwt>
<totfact> 0.56417607E+01</totfact>
</mgrwt>
</event>
<event>
12    6  0.1553355E-007  0.1550299E+04  0.7818608E-02  0.8851677E-01
          2   -1    0    0  501    0  0.00000000000E+00  0.00000000000E+00  0.20989159021E+04  0.20989159021E+04  0.00000000000E+00 0. -1.
         -1   -1    0    0    0  501 -0.00000000000E+00 -0.00000000000E+00 -0.28627003386E+03  0.28627003386E+03  0.00000000000E+00 0.  1.
         24    2    1    2    0    0  0.16263867997E+03  0.21421295242E+03 -0.60894298309E+02  0.28719451898E+03  0.80212511242E+02 0.  0.
        254    2    1    2    0    0 -0.16263867997E+03 -0.21421295242E+03  0.18735401666E+04  0.20979914170E+04  0.90502856356E+03 0.  0.
         23    2    4    4    0    0 -0.46697645900E+02  0.34321645310E+03  0.86409012833E+03  0.93542692961E+03  0.91616521089E+02 0.  0.
         23    2    4    4    0    0 -0.11594103407E+03 -0.55742940552E+03  0.10094500382E+04  0.11625644874E+04  0.91634830437E+02 0.  0.
          2    1    3    3  502    0  0.16089904719E+03  0.21166063762E+03 -0.43354853684E+02  0.26938517450E+03  0.00000000000E+00 0. -1.
         -1    1    3    3    0  502  0.17396327799E+01  0.25523148027E+01 -0.17539444625E+02  0.17809344480E+02  0.00000000000E+00 0.  1.
         11    1    5    5    0    0  0.25888616814E+02  0.82788243321E+02  0.17861363984E+03  0.19856219693E+03  0.00000000000E+00 0. -1.
        -11    1    5    5    0    0 -0.72586262714E+02  0.26042820978E+03  0.68547648849E+03  0.73686473268E+03  0.00000000000E+00 0.  1.
          2    1    6    6  503    0 -0.65978148968E+02 -0.12762397379E+03  0.23523359675E+03  0.27563715255E+03  0.00000000000E+00 0. -1.
         -2    1    6    6    0  503 -0.49962885099E+02 -0.42980543173E+03  0.77421644150E+03  0.88692733486E+03  0.00000000000E+00 0.  1.
<mgrwt>
<rscale>  0 0.15502990E+04</rscale>
<asrwt>0</asrwt>
<pdfrwt beam="1">  1        2 0.32291013E+00 0.15502990E+04</pdfrwt>
<pdfrwt beam="2">  1       -1 0.44041545E-01 0.15502990E+04</pdfrwt>
<totfact> 0.32907300E+01</totfact>
</mgrwt>
</event>
<event>
12    6  0.1553355E-007  0.1859171E+04  0.7818608E-02  0.8675451E-01
          2   -1    0    0  501    0  0.00000000000E+00  0.00000000000E+00  0.12190834205E+04  0.12190834205E+04  0.00000000000E+00 0. -1.
         -1   -1    0    0    0  501 -0.00000000000E+00 -0.00000000000E+00 -0.70883482954E+03  0.70883482954E+03  0.00000000000E+00 0.  1.
         24    2    1    2    0    0 -0.41375054191E+03  0.78406153884E+02  0.80020201917E+03  0.90781409699E+03  0.80412233585E+02 0.  0.
        254    2    1    2    0    0  0.41375054191E+03 -0.78406153884E+02 -0.28995342826E+03  0.10201041530E+04  0.88272445107E+03 0.  0.
         23    2    4    4    0    0  0.21128184930E+03 -0.40282098478E+03  0.91543593620E+02  0.47252798262E+03  0.89429856300E+02 0.  0.
         23    2    4    4    0    0  0.20246869261E+03  0.32441483090E+03 -0.38149702188E+03  0.54757617039E+03  0.89783799641E+02 0.  0.
          4    1    3    3  502    0 -0.31090903512E+03  0.32872444677E+02  0.63731450386E+03  0.70986956729E+03  0.00000000000E+00 0. -1.
         -3    1    3    3    0  502 -0.10284150678E+03  0.45533709207E+02  0.16288751531E+03  0.19794452970E+03  0.00000000000E+00 0.  1.
         11    1    5    5    0    0  0.28699510718E+02 -0.12465404789E+03  0.19051526094E+01  0.12792936792E+03  0.00000000000E+00 0. -1.
        -11    1    5    5    0    0  0.18258233858E+03 -0.27816693690E+03  0.89638441011E+02  0.34459861470E+03  0.00000000000E+00 0.  1.
          1    1    6    6  503    0  0.60024135407E+02  0.56845064787E+02 -0.42969053443E+02  0.93169725639E+02  0.00000000000E+00 0. -1.
         -1    1    6    6    0  503  0.14244455720E+03  0.26756976611E+03 -0.33852796843E+03  0.45440644475E+03  0.00000000000E+00 0.  1.
<mgrwt>
<rscale>  0 0.18591706E+04</rscale>
<asrwt>0</asrwt>
<pdfrwt beam="1">  1        2 0.18755130E+00 0.18591706E+04</pdfrwt>
<pdfrwt beam="2">  1       -1 0.10905151E+00 0.18591706E+04</pdfrwt>
<totfact> 0.15399074E+01</totfact>
</mgrwt>
</event>
<event>
12    6  0.1553355E-007  0.1817988E+04  0.7818608E-02  0.8696792E-01
         -1   -1    0    0    0  501 -0.00000000000E+00  0.00000000000E+00  0.67942318974E+03  0.67942318974E+03  0.00000000000E+00 0.  1.
          2   -1    0    0  501    0  0.00000000000E+00 -0.00000000000E+00 -0.12161350606E+04  0.12161350606E+04  0.00000000000E+00 0. -1.
         24    2    1    2    0    0  0.40566343593E+03  0.28473110317E+03  0.28439744930E+03  0.57659490445E+03  0.77104800855E+02 0.  0.
        254    2    1    2    0    0 -0.40566343593E+03 -0.28473110317E+03 -0.82110932016E+03  0.13189633459E+04  0.90543313821E+03 0.  0.
         23    2    4    4    0    0 -0.50987040970E+03  0.17327967157E+01 -0.97876859132E+02  0.52867620504E+03  0.99738723426E+02 0.  0.
         23    2    4    4    0    0  0.10420697377E+03 -0.28646389988E+03 -0.72323246102E+03  0.79028714084E+03  0.92563021682E+02 0.  0.
          4    1    3    3  502    0  0.63059849952E+02  0.34130578013E+02  0.13272669581E+02  0.72921908843E+02  0.00000000000E+00 0. -1.
         -3    1    3    3    0  502  0.34260358598E+03  0.25060052515E+03  0.27112477972E+03  0.50367299561E+03  0.00000000000E+00 0.  1.
         11    1    5    5    0    0 -0.21119575346E+03  0.21067649798E+02  0.46728400560E+01  0.21229537814E+03  0.00000000000E+00 0.  1.
        -11    1    5    5    0    0 -0.29867465624E+03 -0.19334853082E+02 -0.10254969919E+03  0.31638082690E+03  0.00000000000E+00 0. -1.
          3    1    6    6  503    0  0.40207194685E+02 -0.21046971957E+02 -0.94431011581E+02  0.10477027002E+03  0.00000000000E+00 0. -1.
         -3    1    6    6    0  503  0.63999779086E+02 -0.26541692793E+03 -0.62880144944E+03  0.68551687082E+03  0.00000000000E+00 0.  1.
<mgrwt>
<rscale>  0 0.18179883E+04</rscale>
<asrwt>0</asrwt>
<pdfrwt beam="1">  1        2 0.18709770E+00 0.18179883E+04</pdfrwt>
<pdfrwt beam="2">  1       -1 0.10452664E+00 0.18179883E+04</pdfrwt>
<totfact> 0.17133921E+01</totfact>
</mgrwt>
</event>
<event>
12    6  0.1553355E-007  0.2046481E+04  0.7818608E-02  0.8585192E-01
          2   -1    0    0  501    0  0.00000000000E+00  0.00000000000E+00  0.65830358341E+03  0.65830358341E+03  0.00000000000E+00 0. -1.
         -1   -1    0    0    0  501 -0.00000000000E+00 -0.00000000000E+00 -0.15904844566E+04  0.15904844566E+04  0.00000000000E+00 0.  1.
         24    2    1    2    0    0  0.16821585343E+03  0.47375948624E+02 -0.12643739221E+04  0.12790529107E+04  0.82424994310E+02 0.  0.
        254    2    1    2    0    0 -0.16821585343E+03 -0.47375948624E+02  0.33219304886E+03  0.96973512932E+03  0.89414369398E+03 0.  0.
         23    2    4    4    0    0 -0.39761504483E+03  0.44449170712E+02 -0.13676576155E+03  0.43257453425E+03  0.91336747766E+02 0.  0.
         23    2    4    4    0    0  0.22939919140E+03 -0.91825119336E+02  0.46895881042E+03  0.53716059508E+03  0.86967220739E+02 0.  0.
          2    1    3    3  502    0  0.34674942049E+02 -0.29029238945E+01 -0.51761160918E+03  0.51877987290E+03  0.00000000000E+00 0. -1.
         -1    1    3    3    0  502  0.13354091139E+03  0.50278872519E+02 -0.74676231293E+03  0.76027303783E+03  0.00000000000E+00 0.  1.
         11    1    5    5    0    0 -0.17591808698E+03 -0.34575737320E+01 -0.18901692662E+02  0.17696440922E+03  0.00000000000E+00 0. -1.
        -11    1    5    5    0    0 -0.22169695785E+03  0.47906744444E+02 -0.11786406889E+03  0.25561012503E+03  0.00000000000E+00 0.  1.
          2    1    6    6  503    0  0.70143361104E+02 -0.48267556973E+02  0.90515164229E+02  0.12426923641E+03  0.00000000000E+00 0. -1.
         -2    1    6    6    0  503  0.15925583029E+03 -0.43557562363E+02  0.37844364619E+03  0.41289135867E+03  0.00000000000E+00 0.  1.
<mgrwt>
<rscale>  0 0.20464815E+04</rscale>
<asrwt>0</asrwt>
<pdfrwt beam="1">  1        2 0.10127747E+00 0.20464815E+04</pdfrwt>
<pdfrwt beam="2">  1       -1 0.24468992E+00 0.20464815E+04</pdfrwt>
<totfact> 0.35320655E+00</totfact>
</mgrwt>
</event>
<event>
12    6  0.1553355E-007  0.2243597E+04  0.7818608E-02  0.8500498E-01
          2   -1    0    0  501    0  0.00000000000E+00  0.00000000000E+00  0.31729346754E+04  0.31729346754E+04  0.00000000000E+00 0. -1.
         -1   -1    0    0    0  501 -0.00000000000E+00 -0.00000000000E+00 -0.39661451625E+03  0.39661451625E+03  0.00000000000E+00 0.  1.
         24    2    1    2    0    0  0.58854607344E+03 -0.41528849652E+03  0.20343102920E+03  0.75273655055E+03  0.79856840591E+02 0.  0.
        254    2    1    2    0    0 -0.58854607344E+03  0.41528849652E+03  0.25728891299E+04  0.28168126411E+04  0.89208966148E+03 0.  0.
         23    2    4    4    0    0  0.20024116252E+03  0.25290802387E+03  0.80827904272E+03  0.87500596083E+03  0.90892402725E+02 0.  0.
         23    2    4    4    0    0 -0.78878723596E+03  0.16238047265E+03  0.17646100872E+04  0.19418066802E+04  0.90618442258E+02 0.  0.
          2    1    3    3  502    0  0.16016134422E+03 -0.15704037604E+03  0.54540008620E+02  0.23084182556E+03  0.00000000000E+00 0. -1.
         -1    1    3    3    0  502  0.42838472922E+03 -0.25824812049E+03  0.14889102058E+03  0.52189472499E+03  0.00000000000E+00 0.  1.
         11    1    5    5    0    0  0.18498509950E+03  0.25532188836E+03  0.79254548566E+03  0.85295785391E+03  0.00000000000E+00 0.  1.
        -11    1    5    5    0    0  0.15256063022E+02 -0.24138644882E+01  0.15733557066E+02  0.22048106917E+02  0.00000000000E+00 0. -1.
          4    1    6    6  503    0 -0.12638967436E+03  0.45404541982E+02  0.36574288979E+03  0.38962005037E+03  0.00000000000E+00 0. -1.
         -4    1    6    6    0  503 -0.66239756160E+03  0.11697593067E+03  0.13988671974E+04  0.15521866299E+04  0.00000000000E+00 0.  1.
<mgrwt>
<rscale>  0 0.22435971E+04</rscale>
<asrwt>0</asrwt>
<pdfrwt beam="1">  1        2 0.48814378E+00 0.22435971E+04</pdfrwt>
<pdfrwt beam="2">  1       -1 0.61017620E-01 0.22435971E+04</pdfrwt>
<totfact> 0.38182963E+00</totfact>
</mgrwt>
</event>
<event>
12    6  0.1553355E-007  0.2121551E+04  0.7818608E-02  0.8551809E-01
         -1   -1    0    0    0  501 -0.00000000000E+00  0.00000000000E+00  0.39274556136E+03  0.39274556136E+03  0.00000000000E+00 0.  1.
          2   -1    0    0  501    0  0.00000000000E+00 -0.00000000000E+00 -0.28650742155E+04  0.28650742155E+04  0.00000000000E+00 0. -1.
         24    2    1    2    0    0 -0.73788882120E+03 -0.41902599321E+03 -0.11671153216E+04  0.14452986016E+04  0.81652791824E+02 0.  0.
        254    2    1    2    0    0  0.73788882120E+03  0.41902599321E+03 -0.13052133326E+04  0.18125211753E+04  0.92821790109E+03 0.  0.
         23    2    4    4    0    0 -0.16373060003E+03  0.13558473374E+03 -0.55982489048E+03  0.60541230676E+03  0.89046188991E+02 0.  0.
         23    2    4    4    0    0  0.90161942123E+03  0.28344125947E+03 -0.74538844211E+03  0.12071088685E+04  0.90837010897E+02 0.  0.
          2    1    3    3  502    0 -0.53635864512E+03 -0.29411714178E+03 -0.77865707436E+03  0.99019812600E+03  0.00000000000E+00 0. -1.
         -1    1    3    3    0  502 -0.20153017608E+03 -0.12490885143E+03 -0.38845824721E+03  0.45510047556E+03  0.00000000000E+00 0.  1.
         11    1    5    5    0    0 -0.13510248885E+03  0.67676859282E+02 -0.43450268669E+03  0.46002763452E+03  0.00000000000E+00 0. -1.
        -11    1    5    5    0    0 -0.28628111186E+02  0.67907874458E+02 -0.12532220378E+03  0.14538467225E+03  0.00000000000E+00 0.  1.
          1    1    6    6  503    0  0.76151198194E+03  0.24220176795E+03 -0.66964080257E+03  0.10425838093E+04  0.00000000000E+00 0. -1.
         -1    1    6    6    0  503  0.14010743929E+03  0.41239491521E+02 -0.75747639536E+02  0.16452505919E+03  0.00000000000E+00 0.  1.
<mgrwt>
<rscale>  0 0.21215515E+04</rscale>
<asrwt>0</asrwt>
<pdfrwt beam="1">  1        2 0.44078064E+00 0.21215515E+04</pdfrwt>
<pdfrwt beam="2">  1       -1 0.60422396E-01 0.21215515E+04</pdfrwt>
<totfact> 0.61451027E+00</totfact>
</mgrwt>
</event>
<event>
12    6  0.1553355E-007  0.1370740E+04  0.7818608E-02  0.8975275E-01
          2   -1    0    0  501    0  0.00000000000E+00  0.00000000000E+00  0.23132470491E+04  0.23132470491E+04  0.00000000000E+00 0. -1.
         -1   -1    0    0    0  501 -0.00000000000E+00 -0.00000000000E+00 -0.20306179138E+03  0.20306179138E+03  0.00000000000E+00 0.  1.
         24    2    1    2    0    0  0.51684559525E+02 -0.15172106754E+03 -0.31417933035E+02  0.18233976993E+03  0.81056333207E+02 0.  0.
        254    2    1    2    0    0 -0.51684559525E+02  0.15172106754E+03  0.21416031908E+04  0.23339690706E+04  0.91392385878E+03 0.  0.
         23    2    4    4    0    0 -0.12921636124E+03  0.74597384083E+02 -0.11122262416E+02  0.17642050420E+03  0.93481826353E+02 0.  0.
         23    2    4    4    0    0  0.77531801712E+02  0.77123683458E+02  0.21527254532E+04  0.21575485664E+04  0.93966465357E+02 0.  0.
          2    1    3    3  502    0  0.53978358823E+02 -0.98110359209E+02  0.12933592741E+02  0.11272348303E+03  0.00000000000E+00 0. -1.
         -1    1    3    3    0  502 -0.22937992977E+01 -0.53610708332E+02 -0.44351525776E+02  0.69616286900E+02  0.00000000000E+00 0.  1.
         11    1    5    5    0    0 -0.48843016734E+02  0.70976497693E+02  0.22772607248E+02  0.89117311166E+02  0.00000000000E+00 0. -1.
        -11    1    5    5    0    0 -0.80373344503E+02  0.36208863898E+01 -0.33894869664E+02  0.87303193037E+02  0.00000000000E+00 0.  1.
          2    1    6    6  503    0  0.87549399701E+02  0.27300654640E+02  0.15344388920E+04  0.15371769373E+04  0.00000000000E+00 0. -1.
         -2    1    6    6    0  503 -0.10017597989E+02  0.49823028818E+02  0.61828656116E+03  0.62037162909E+03  0.00000000000E+00 0.  1.
<mgrwt>
<rscale>  0 0.13707401E+04</rscale>
<asrwt>0</asrwt>
<pdfrwt beam="1">  1        2 0.35588414E+00 0.13707401E+04</pdfrwt>
<pdfrwt beam="2">  1       -1 0.31240277E-01 0.13707401E+04</pdfrwt>
<totfact> 0.47142132E+01</totfact>
</mgrwt>
</event>
<event>
12    6  0.1553355E-007  0.4136768E+04  0.7818608E-02  0.7977510E-01
         -1   -1    0    0    0  501 -0.00000000000E+00  0.00000000000E+00  0.96543322217E+03  0.96543322217E+03  0.00000000000E+00 0.  1.
          2   -1    0    0  501    0  0.00000000000E+00 -0.00000000000E+00 -0.44313918884E+04  0.44313918884E+04  0.00000000000E+00 0. -1.
         24    2    1    2    0    0 -0.17464377074E+04 -0.53025741952E+03 -0.69781991499E+03  0.19568751895E+04  0.10578410417E+03 0.  0.
        254    2    1    2    0    0  0.17464377074E+04  0.53025741952E+03 -0.27681387512E+04  0.34399499211E+04  0.91621270286E+03 0.  0.
         23    2    4    4    0    0  0.37294211399E+03 -0.18897820592E+03 -0.29664071013E+03  0.52089973140E+03  0.92424220674E+02 0.  0.
         23    2    4    4    0    0  0.13734955934E+04  0.71923562545E+03 -0.24714980411E+04  0.29190501897E+04  0.93602418914E+02 0.  0.
          2    1    3    3  502    0 -0.18176695148E+03 -0.52273187819E+02 -0.38754538480E+02  0.19306378497E+03  0.00000000000E+00 0. -1.
         -1    1    3    3    0  502 -0.15646707559E+04 -0.47798423170E+03 -0.65906537651E+03  0.17638114045E+04  0.00000000000E+00 0.  1.
         11    1    5    5    0    0 -0.36252932928E+01 -0.11089866554E+02 -0.93548766690E+01  0.14954651756E+02  0.00000000000E+00 0. -1.
        -11    1    5    5    0    0  0.37656740728E+03 -0.17788833937E+03 -0.28728583346E+03  0.50594507965E+03  0.00000000000E+00 0.  1.
          3    1    6    6  503    0  0.51106101853E+03  0.28809963903E+03 -0.85764727009E+03  0.10391071199E+04  0.00000000000E+00 0. -1.
         -3    1    6    6    0  503  0.86243457486E+03  0.43113598642E+03 -0.16138507710E+04  0.18799430698E+04  0.00000000000E+00 0.  1.
<mgrwt>
<rscale>  0 0.41367683E+04</rscale>
<asrwt>0</asrwt>
<pdfrwt beam="1">  1        2 0.68175261E+00 0.41367683E+04</pdfrwt>
<pdfrwt beam="2">  1       -1 0.14852819E+00 0.41367683E+04</pdfrwt>
<totfact> 0.45125338E-02</totfact>
</mgrwt>
</event>
<event>
12    6  0.1553355E-007  0.2556136E+04  0.7818608E-02  0.8383255E-01
          2   -1    0    0  501    0  0.00000000000E+00  0.00000000000E+00  0.23967926137E+04  0.23967926137E+04  0.00000000000E+00 0. -1.
         -1   -1    0    0    0  501 -0.00000000000E+00 -0.00000000000E+00 -0.68151806828E+03  0.68151806828E+03  0.00000000000E+00 0.  1.
         24    2    1    2    0    0 -0.35323388168E+03 -0.10638825452E+04  0.72922243741E+03  0.13397232822E+04  0.80454114664E+02 0.  0.
        254    2    1    2    0    0  0.35323388168E+03  0.10638825452E+04  0.98605210800E+03  0.17385873997E+04  0.89093610418E+03 0.  0.
         23    2    4    4    0    0  0.40859262233E+03  0.10897872691E+04  0.55248297415E+03  0.12916051765E+04  0.91772938129E+02 0.  0.
         23    2    4    4    0    0 -0.55358740648E+02 -0.25904723943E+02  0.43356913385E+03  0.44698222327E+03  0.89862501678E+02 0.  0.
          2    1    3    3  502    0 -0.19678783817E+03 -0.53102365128E+03  0.32617693862E+03  0.65353115210E+03  0.00000000000E+00 0. -1.
         -1    1    3    3    0  502 -0.15644604352E+03 -0.53285889391E+03  0.40304549879E+03  0.68619213013E+03  0.00000000000E+00 0.  1.
         11    1    5    5    0    0  0.32636929901E+03  0.75104817406E+03  0.38541112565E+03  0.90505912230E+03  0.00000000000E+00 0.  1.
        -11    1    5    5    0    0  0.82223323323E+02  0.33873909508E+03  0.16707184851E+03  0.38654605417E+03  0.00000000000E+00 0. -1.
          4    1    6    6  503    0 -0.89350212170E+01 -0.26006998442E+02  0.35242872057E+03  0.35349993162E+03  0.00000000000E+00 0. -1.
         -4    1    6    6    0  503 -0.46423719431E+02  0.10227449904E+00  0.81140413273E+02  0.93482291649E+02  0.00000000000E+00 0.  1.
<mgrwt>
<rscale>  0 0.25561357E+04</rscale>
<asrwt>0</asrwt>
<pdfrwt beam="1">  1        2 0.36873732E+00 0.25561357E+04</pdfrwt>
<pdfrwt beam="2">  1       -1 0.10484894E+00 0.25561357E+04</pdfrwt>
<totfact> 0.34427290E+00</totfact>
</mgrwt>
</event>
<event>
12    6  0.1553355E-007  0.1637801E+04  0.7818608E-02  0.8797656E-01
          2   -1    0    0  501    0  0.00000000000E+00  0.00000000000E+00  0.21399670127E+04  0.21399670127E+04  0.00000000000E+00 0. -1.
         -1   -1    0    0    0  501 -0.00000000000E+00 -0.00000000000E+00 -0.31336833652E+03  0.31336833652E+03  0.00000000000E+00 0.  1.
         24    2    1    2    0    0 -0.18747528055E+03  0.23182799942E+03 -0.88099699565E+02  0.31927581494E+03  0.72693100155E+02 0.  0.
        254    2    1    2    0    0  0.18747528055E+03 -0.23182799942E+03  0.19146983757E+04  0.21340595343E+04  0.89400728389E+03 0.  0.
         23    2    4    4    0    0  0.18259453594E+03 -0.12155558892E+03  0.19684026111E+04  0.19825327250E+04  0.87810252651E+02 0.  0.
         23    2    4    4    0    0  0.48807446096E+01 -0.11027241050E+03 -0.53704235375E+02  0.15152680929E+03  0.88839196586E+02 0.  0.
          4    1    3    3  502    0 -0.76987236096E+02  0.44006576924E+02 -0.31852465151E+02  0.94224162880E+02  0.00000000000E+00 0. -1.
         -3    1    3    3    0  502 -0.11048804445E+03  0.18782142250E+03 -0.56247234415E+02  0.22505165206E+03  0.00000000000E+00 0.  1.
         11    1    5    5    0    0  0.66863294156E+02 -0.85592190086E+02  0.70310564682E+03  0.71144520078E+03  0.00000000000E+00 0.  1.
        -11    1    5    5    0    0  0.11573124178E+03 -0.35963398839E+02  0.12652969643E+04  0.12710875242E+04  0.00000000000E+00 0. -1.
          2    1    6    6  503    0  0.42818106333E+02 -0.37290629192E+02 -0.77488464744E+01  0.57306420907E+02  0.00000000000E+00 0. -1.
         -2    1    6    6    0  503 -0.37937361724E+02 -0.72981781308E+02 -0.45955388901E+02  0.94220388380E+02  0.00000000000E+00 0.  1.
<mgrwt>
<rscale>  0 0.16378008E+04</rscale>
<asrwt>0</asrwt>
<pdfrwt beam="1">  1        2 0.32922568E+00 0.16378008E+04</pdfrwt>
<pdfrwt beam="2">  1       -1 0.48210515E-01 0.16378008E+04</pdfrwt>
<totfact> 0.26156188E+01</totfact>
</mgrwt>
</event>
<event>
12    6  0.1553355E-007  0.1401861E+04  0.7818608E-02  0.8952472E-01
         -1   -1    0    0    0  501 -0.00000000000E+00  0.00000000000E+00  0.32679205150E+03  0.32679205150E+03  0.00000000000E+00 0.  1.
          2   -1    0    0  501    0  0.00000000000E+00 -0.00000000000E+00 -0.15034142092E+04  0.15034142092E+04  0.00000000000E+00 0. -1.
         24    2    1    2    0    0 -0.12310215281E+03 -0.23585680017E+03  0.58572479233E+02  0.28362142571E+03  0.78916459544E+02 0.  0.
        254    2    1    2    0    0  0.12310215281E+03  0.23585680017E+03 -0.12351946370E+04  0.15465848350E+04  0.89187235104E+03 0.  0.
         23    2    4    4    0    0 -0.11350315597E+02  0.46686326232E+03 -0.28392937233E+03  0.55415662843E+03  0.91561700426E+02 0.  0.
         23    2    4    4    0    0  0.13445246841E+03 -0.23100646216E+03 -0.95126526464E+03  0.99242820661E+03  0.92556413847E+02 0.  0.
          4    1    3    3  502    0  0.91535989136E+01 -0.20001169379E+02  0.15312171084E+02  0.26801077085E+02  0.00000000000E+00 0. -1.
         -3    1    3    3    0  502 -0.13225575173E+03 -0.21585563079E+03  0.43260308149E+02  0.25682034863E+03  0.00000000000E+00 0.  1.
         11    1    5    5    0    0 -0.23375581557E+02  0.38705879786E+03 -0.26937826674E+03  0.47214995648E+03  0.00000000000E+00 0. -1.
        -11    1    5    5    0    0  0.12025265959E+02  0.79804464467E+02 -0.14551105596E+02  0.82006671950E+02  0.00000000000E+00 0.  1.
          4    1    6    6  503    0  0.10014896073E+03 -0.22714617311E+03 -0.84322569697E+03  0.87900783519E+03  0.00000000000E+00 0. -1.
         -4    1    6    6    0  503  0.34303507683E+02 -0.38602890469E+01 -0.10803956767E+03  0.11342037142E+03  0.00000000000E+00 0.  1.
<mgrwt>
<rscale>  0 0.14018614E+04</rscale>
<asrwt>0</asrwt>
<pdfrwt beam="1">  1        2 0.23129449E+00 0.14018614E+04</pdfrwt>
<pdfrwt beam="2">  1       -1 0.50275701E-01 0.14018614E+04</pdfrwt>
<totfact> 0.55656320E+01</totfact>
</mgrwt>
</event>
<event>
12    6  0.1553355E-007  0.3223650E+04  0.7818608E-02  0.8182599E-01
         -1   -1    0    0    0  501 -0.00000000000E+00  0.00000000000E+00  0.11738220052E+04  0.11738220052E+04  0.00000000000E+00 0.  1.
          2   -1    0    0  501    0  0.00000000000E+00 -0.00000000000E+00 -0.22132649055E+04  0.22132649055E+04  0.00000000000E+00 0. -1.
         24    2    1    2    0    0 -0.55677732013E+02 -0.13393996839E+04  0.19895336148E+03  0.13574907928E+04  0.78149149287E+02 0.  0.
        254    2    1    2    0    0  0.55677732013E+02  0.13393996839E+04 -0.12383962618E+04  0.20295961179E+04  0.88799976218E+03 0.  0.
         23    2    4    4    0    0 -0.17368905704E+03  0.41896191050E+02  0.23114567001E+02  0.20253302195E+03  0.92531953479E+02 0.  0.
         23    2    4    4    0    0  0.22936678905E+03  0.12975034928E+04 -0.12615108288E+04  0.18270630960E+04  0.10308029714E+03 0.  0.
          4    1    3    3  502    0 -0.16835452007E+01 -0.79618502337E+03  0.95663200386E+02  0.80191325820E+03  0.00000000000E+00 0. -1.
         -1    1    3    3    0  502 -0.53994186813E+02 -0.54321466050E+03  0.10329016109E+03  0.55557753462E+03  0.00000000000E+00 0.  1.
         11    1    5    5    0    0 -0.44843887938E+01  0.31355867231E+02  0.32990702466E+01  0.31846255936E+02  0.00000000000E+00 0. -1.
        -11    1    5    5    0    0 -0.16920466824E+03  0.10540323820E+02  0.19815496755E+02  0.17068676602E+03  0.00000000000E+00 0.  1.
          4    1    6    6  503    0  0.40364985233E+02  0.44390732224E+03 -0.38348255312E+03  0.58799822391E+03  0.00000000000E+00 0. -1.
         -4    1    6    6    0  503  0.18900180382E+03  0.85359617059E+03 -0.87802827566E+03  0.12390648720E+04  0.00000000000E+00 0.  1.
<mgrwt>
<rscale>  0 0.32236495E+04</rscale>
<asrwt>0</asrwt>
<pdfrwt beam="1">  1        2 0.34050229E+00 0.32236495E+04</pdfrwt>
<pdfrwt beam="2">  1       -1 0.18058800E+00 0.32236495E+04</pdfrwt>
<totfact> 0.99954850E-01</totfact>
</mgrwt>
</event>
<event>
12    6  0.1553355E-007  0.1448976E+04  0.7818608E-02  0.8919111E-01
         -1   -1    0    0    0  501 -0.00000000000E+00  0.00000000000E+00  0.81919904117E+03  0.81919904117E+03  0.00000000000E+00 0.  1.
          2   -1    0    0  501    0  0.00000000000E+00 -0.00000000000E+00 -0.64072678158E+03  0.64072678158E+03  0.00000000000E+00 0. -1.
         24    2    1    2    0    0  0.22794818437E+03  0.19005206232E+03  0.38100583570E+03  0.49013754224E+03  0.83601449288E+02 0.  0.
        254    2    1    2    0    0 -0.22794818437E+03 -0.19005206232E+03 -0.20253357612E+03  0.96978828050E+03  0.90077150177E+03 0.  0.
         23    2    4    4    0    0 -0.79115574236E+02 -0.17844033203E+03  0.33967982852E+03  0.40017723198E+03  0.81603951567E+02 0.  0.
         23    2    4    4    0    0 -0.14883261014E+03 -0.11611730295E+02 -0.54221340464E+03  0.56961104852E+03  0.90417876023E+02 0.  0.
          4    1    3    3  502    0  0.45348378928E+01 -0.76497897735E+01  0.51519916186E+01  0.10277502417E+02  0.00000000000E+00 0. -1.
         -3    1    3    3    0  502  0.22341334648E+03  0.19770185210E+03  0.37585384409E+03  0.47986003983E+03  0.00000000000E+00 0.  1.
         11    1    5    5    0    0 -0.81049455872E+01 -0.29532378542E+02  0.11219930023E+02  0.32615001993E+02  0.00000000000E+00 0.  1.
        -11    1    5    5    0    0 -0.71010628649E+02 -0.14890795349E+03  0.32845989850E+03  0.36756222999E+03  0.00000000000E+00 0. -1.
          2    1    6    6  503    0 -0.14496108997E+03  0.80754534089E+01 -0.51901659288E+03  0.53894077062E+03  0.00000000000E+00 0. -1.
         -2    1    6    6    0  503 -0.38715201678E+01 -0.19687183704E+02 -0.23196811760E+02  0.30670277899E+02  0.00000000000E+00 0.  1.
<mgrwt>
<rscale>  0 0.14489759E+04</rscale>
<asrwt>0</asrwt>
<pdfrwt beam="1">  1        2 0.98573351E-01 0.14489759E+04</pdfrwt>
<pdfrwt beam="2">  1       -1 0.12603062E+00 0.14489759E+04</pdfrwt>
<totfact> 0.27813480E+01</totfact>
</mgrwt>
</event>
<event>
12    6  0.1553355E-007  0.1130277E+04  0.7818608E-02  0.9176174E-01
         -1   -1    0    0    0  501 -0.00000000000E+00  0.00000000000E+00  0.11826544076E+03  0.11826544076E+03  0.00000000000E+00 0.  1.
          2   -1    0    0  501    0  0.00000000000E+00 -0.00000000000E+00 -0.27005493170E+04  0.27005493170E+04  0.00000000000E+00 0. -1.
         24    2    1    2    0    0 -0.51409336558E+02 -0.37532469621E+01 -0.93542088102E+01  0.94281753452E+02  0.78387123072E+02 0.  0.
        254    2    1    2    0    0  0.51409336558E+02  0.37532469621E+01 -0.25729296675E+04  0.27245330043E+04  0.89468207272E+03 0.  0.
         23    2    4    4    0    0 -0.10641422337E+03 -0.34419297786E+03 -0.55024600049E+03  0.66391763751E+03  0.90681725874E+02 0.  0.
         23    2    4    4    0    0  0.15782355993E+03  0.34794622482E+03 -0.20226836670E+04  0.20606153668E+04  0.94401387157E+02 0.  0.
          4    1    3    3  502    0 -0.24757926201E+02 -0.17349014997E+02 -0.40863564036E+02  0.50830838050E+02  0.00000000000E+00 0. -1.
         -3    1    3    3    0  502 -0.26651410358E+02  0.13595768035E+02  0.31509355226E+02  0.43450915402E+02  0.00000000000E+00 0.  1.
         11    1    5    5    0    0 -0.88592119770E+02 -0.14835879779E+03 -0.29243529168E+03  0.33967233680E+03  0.00000000000E+00 0.  1.
        -11    1    5    5    0    0 -0.17822103603E+02 -0.19583418007E+03 -0.25781070881E+03  0.32424530072E+03  0.00000000000E+00 0. -1.
          1    1    6    6  503    0  0.37115514247E+02  0.19391576403E+03 -0.10638101058E+04  0.10819763519E+04  0.00000000000E+00 0. -1.
         -1    1    6    6    0  503  0.12070804568E+03  0.15403046079E+03 -0.95887356121E+03  0.97863901492E+03  0.00000000000E+00 0.  1.
<mgrwt>
<rscale>  0 0.11302772E+04</rscale>
<asrwt>0</asrwt>
<pdfrwt beam="1">  1        2 0.41546913E+00 0.11302772E+04</pdfrwt>
<pdfrwt beam="2">  1       -1 0.18194683E-01 0.11302772E+04</pdfrwt>
<totfact> 0.72565464E+01</totfact>
</mgrwt>
</event>
<event>
12    6  0.1553355E-007  0.2764162E+04  0.7818608E-02  0.8314482E-01
          2   -1    0    0  501    0  0.00000000000E+00  0.00000000000E+00  0.14320903903E+04  0.14320903903E+04  0.00000000000E+00 0. -1.
         -1   -1    0    0    0  501 -0.00000000000E+00 -0.00000000000E+00 -0.13338177915E+04  0.13338177915E+04  0.00000000000E+00 0.  1.
         24    2    1    2    0    0 -0.11533098844E+04  0.41446966839E+03  0.18616830122E+03  0.12420415514E+04  0.78101111530E+02 0.  0.
        254    2    1    2    0    0  0.11533098844E+04 -0.41446966839E+03 -0.87895702393E+02  0.15238666305E+04  0.90140726509E+03 0.  0.
         23    2    4    4    0    0  0.34067618208E+03 -0.57695842998E+03 -0.13246554479E+03  0.68901095459E+03  0.90816760697E+02 0.  0.
         23    2    4    4    0    0  0.81263370229E+03  0.16248876158E+03  0.44569842401E+02  0.83485567588E+03  0.90671919381E+02 0.  0.
          2    1    3    3  502    0 -0.18536474686E+03  0.59837135088E+02  0.58027821613E+02  0.20324320454E+03  0.00000000000E+00 0. -1.
         -1    1    3    3    0  502 -0.96794513752E+03  0.35463253330E+03  0.12814047961E+03  0.10387983469E+04  0.00000000000E+00 0.  1.
         11    1    5    5    0    0  0.15736424542E+03 -0.34740340942E+03 -0.56152535772E+02  0.38549415286E+03  0.00000000000E+00 0.  1.
        -11    1    5    5    0    0  0.18331193667E+03 -0.22955502055E+03 -0.76313009021E+02  0.30351680173E+03  0.00000000000E+00 0. -1.
          3    1    6    6  503    0  0.38994049444E+03  0.12419292997E+03  0.21401616233E+02  0.40979934387E+03  0.00000000000E+00 0. -1.
         -3    1    6    6    0  503  0.42269320785E+03  0.38295831616E+02  0.23168226168E+02  0.42505633201E+03  0.00000000000E+00 0.  1.
<mgrwt>
<rscale>  0 0.27641618E+04</rscale>
<asrwt>0</asrwt>
<pdfrwt beam="1">  1        2 0.22032160E+00 0.27641618E+04</pdfrwt>
<pdfrwt beam="2">  1       -1 0.20520274E+00 0.27641618E+04</pdfrwt>
<totfact> 0.19112696E+00</totfact>
</mgrwt>
</event>
<event>
12    6  0.1553355E-007  0.1934597E+04  0.7818608E-02  0.8637824E-01
         -3   -1    0    0    0  501 -0.00000000000E+00  0.00000000000E+00  0.12496785585E+04  0.12496785585E+04  0.00000000000E+00 0.  1.
          4   -1    0    0  501    0  0.00000000000E+00 -0.00000000000E+00 -0.74872557061E+03  0.74872557061E+03  0.00000000000E+00 0. -1.
         24    2    1    2    0    0  0.41593951017E+03 -0.20951958628E+02 -0.44833642204E+03  0.61708735607E+03  0.79665532119E+02 0.  0.
        254    2    1    2    0    0 -0.41593951017E+03  0.20951958628E+02  0.94928940993E+03  0.13813167730E+04  0.91292988942E+03 0.  0.
         23    2    4    4    0    0  0.26779498798E+03 -0.90974804322E+02  0.20982494897E+03  0.36408151423E+03  0.92402755264E+02 0.  0.
         23    2    4    4    0    0 -0.68373449816E+03  0.11192676295E+03  0.73946446096E+03  0.10172352588E+04  0.89103414792E+02 0.  0.
          4    1    3    3  502    0  0.29122863408E+03 -0.31165575956E+02 -0.35909980036E+03  0.46339839992E+03  0.00000000000E+00 0. -1.
         -3    1    3    3    0  502  0.12471087609E+03  0.10213617328E+02 -0.89236621680E+02  0.15368895615E+03  0.00000000000E+00 0.  1.
         11    1    5    5    0    0  0.14002382607E+03 -0.36421935676E+01  0.12422114155E+03  0.18721866747E+03  0.00000000000E+00 0. -1.
        -11    1    5    5    0    0  0.12777116192E+03 -0.87332610755E+02  0.85603807423E+02  0.17686284676E+03  0.00000000000E+00 0.  1.
          1    1    6    6  503    0 -0.65982806199E+02 -0.14062994971E+02  0.59439973712E+02  0.89914453879E+02  0.00000000000E+00 0. -1.
         -1    1    6    6    0  503 -0.61775169196E+03  0.12598975792E+03  0.68002448725E+03  0.92732080494E+03  0.00000000000E+00 0.  1.
<mgrwt>
<rscale>  0 0.19345969E+04</rscale>
<asrwt>0</asrwt>
<pdfrwt beam="1">  1        4 0.11518855E+00 0.19345969E+04</pdfrwt>
<pdfrwt beam="2">  1       -3 0.19225824E+00 0.19345969E+04</pdfrwt>
<totfact> 0.20545591E-01</totfact>
</mgrwt>
</event>
<event>
12    6  0.1553355E-007  0.2470213E+04  0.7818608E-02  0.8413675E-01
          2   -1    0    0  501    0  0.00000000000E+00  0.00000000000E+00  0.70304649233E+03  0.70304649233E+03  0.00000000000E+00 0. -1.
         -1   -1    0    0    0  501 -0.00000000000E+00 -0.00000000000E+00 -0.21698250011E+04  0.21698250011E+04  0.00000000000E+00 0.  1.
         24    2    1    2    0    0 -0.95181786048E+03 -0.24496909153E+03 -0.11230881484E+04  0.14946749954E+04  0.82214703436E+02 0.  0.
        254    2    1    2    0    0  0.95181786048E+03  0.24496909153E+03 -0.34369036036E+03  0.13781964980E+04  0.90295926156E+03 0.  0.
         23    2    4    4    0    0  0.28214133546E+02 -0.25198274219E+03 -0.14746825494E+03  0.30720506682E+03  0.91305679827E+02 0.  0.
         23    2    4    4    0    0  0.92360372693E+03  0.49695183372E+03 -0.19622210542E+03  0.10709914312E+04  0.92274382340E+02 0.  0.
          2    1    3    3  502    0 -0.17836213910E+03 -0.55254632732E+02 -0.16854141795E+03  0.25153993056E+03  0.00000000000E+00 0. -1.
         -1    1    3    3    0  502 -0.77345572138E+03 -0.18971445880E+03 -0.95454673048E+03  0.12431350649E+04  0.00000000000E+00 0.  1.
         11    1    5    5    0    0  0.39053632781E+02 -0.25518464733E+03 -0.14023320162E+03  0.29378519585E+03  0.00000000000E+00 0. -1.
        -11    1    5    5    0    0 -0.10839499235E+02  0.32019051360E+01 -0.72350533215E+01  0.13419870966E+02  0.00000000000E+00 0.  1.
          1    1    6    6  503    0  0.68686719483E+03  0.39710146667E+03 -0.11602726044E+03  0.80183442389E+03  0.00000000000E+00 0. -1.
         -1    1    6    6    0  503  0.23673653210E+03  0.99850367050E+02 -0.80194844977E+02  0.26915700733E+03  0.00000000000E+00 0.  1.
<mgrwt>
<rscale>  0 0.24702128E+04</rscale>
<asrwt>0</asrwt>
<pdfrwt beam="1">  1        2 0.10816100E+00 0.24702128E+04</pdfrwt>
<pdfrwt beam="2">  1       -1 0.33381923E+00 0.24702128E+04</pdfrwt>
<totfact> 0.82608534E-01</totfact>
</mgrwt>
</event>
<event>
12    6  0.1553355E-007  0.1247130E+04  0.7818608E-02  0.9072575E-01
         -1   -1    0    0    0  501 -0.00000000000E+00  0.00000000000E+00  0.75052531057E+03  0.75052531057E+03  0.00000000000E+00 0.  1.
          2   -1    0    0  501    0  0.00000000000E+00 -0.00000000000E+00 -0.51808172284E+03  0.51808172284E+03  0.00000000000E+00 0. -1.
         24    2    1    2    0    0  0.21139296897E+03  0.20516513503E+03  0.81432558736E+02  0.31579406655E+03  0.79466413564E+02 0.  0.
        254    2    1    2    0    0 -0.21139296897E+03 -0.20516513503E+03  0.15101102899E+03  0.95281296686E+03  0.89345872819E+03 0.  0.
         23    2    4    4    0    0  0.26633457510E+03  0.13593167310E+02  0.28689718108E+03  0.40260643019E+03  0.93075587686E+02 0.  0.
         23    2    4    4    0    0 -0.47772754407E+03 -0.21875830234E+03 -0.13588615210E+03  0.55020653667E+03  0.90462066399E+02 0.  0.
          2    1    3    3  502    0  0.83348905131E+02  0.57120507336E+02 -0.64188356769E+01  0.10124719155E+03  0.00000000000E+00 0. -1.
         -3    1    3    3    0  502  0.12804406384E+03  0.14804462769E+03  0.87851394413E+02  0.21454687500E+03  0.00000000000E+00 0.  1.
         11    1    5    5    0    0  0.19608179632E+03 -0.26996590468E+02  0.23036381562E+03  0.30371758969E+03  0.00000000000E+00 0. -1.
        -11    1    5    5    0    0  0.70252778787E+02  0.40589757778E+02  0.56533365469E+02  0.98888840498E+02  0.00000000000E+00 0.  1.
          4    1    6    6  503    0 -0.46694403381E+02  0.56638698786E+01 -0.15948542185E+02  0.49666917832E+02  0.00000000000E+00 0. -1.
         -4    1    6    6    0  503 -0.43103314069E+03 -0.22442217222E+03 -0.11993760991E+03  0.50053961884E+03  0.00000000000E+00 0.  1.
<mgrwt>
<rscale>  0 0.12471302E+04</rscale>
<asrwt>0</asrwt>
<pdfrwt beam="1">  1        2 0.79704881E-01 0.12471302E+04</pdfrwt>
<pdfrwt beam="2">  1       -1 0.11546543E+00 0.12471302E+04</pdfrwt>
<totfact> 0.45188130E+01</totfact>
</mgrwt>
</event>
<event>
12    6  0.1935161E-007  0.2350515E+04  0.7818608E-02  0.8458266E-01
          2   -1    0    0  501    0  0.00000000000E+00  0.00000000000E+00  0.13410531134E+04  0.13410531134E+04  0.00000000000E+00 0. -1.
         -1   -1    0    0    0  501 -0.00000000000E+00 -0.00000000000E+00 -0.10299590066E+04  0.10299590066E+04  0.00000000000E+00 0.  1.
         24    2    1    2    0    0  0.16819536872E+03  0.87027833405E+03  0.68376912536E+03  0.11223858152E+04  0.80843308178E+02 0.  0.
        254    2    1    2    0    0 -0.16819536872E+03 -0.87027833405E+03 -0.37267501861E+03  0.12486263049E+04  0.79655942590E+03 0.  0.
         23    2    4    4    0    0 -0.28162401357E+03 -0.96577634109E+03 -0.36857596826E+03  0.10757071973E+04  0.96237746455E+02 0.  0.
         23    2    4    4    0    0  0.11342864484E+03  0.95498007040E+02 -0.40990503509E+01  0.17291910762E+03  0.88872317107E+02 0.  0.
          2    1    3    3  502    0  0.14393721800E+03  0.71433883859E+03  0.52187371416E+03  0.89629798202E+03  0.00000000000E+00 0. -1.
         -1    1    3    3    0  502  0.24258150721E+02  0.15593949546E+03  0.16189541121E+03  0.22608783313E+03  0.00000000000E+00 0.  1.
         11    1    5    5    0    0 -0.24369000557E+03 -0.91589615749E+03 -0.34095950088E+03  0.10072258790E+04  0.00000000000E+00 0. -1.
        -11    1    5    5    0    0 -0.37934007999E+02 -0.49880183607E+02 -0.27616467376E+02  0.68481318254E+02  0.00000000000E+00 0.  1.
          1    1    6    6  503    0  0.10384417392E+03  0.90413803875E+02 -0.33393063159E+02  0.14168050344E+03  0.00000000000E+00 0. -1.
         -1    1    6    6    0  503  0.95844709168E+01  0.50842031653E+01  0.29294012808E+02  0.31238604178E+02  0.00000000000E+00 0.  1.
<mgrwt>
<rscale>  0 0.23505146E+04</rscale>
<asrwt>0</asrwt>
<pdfrwt beam="1">  1        2 0.20631586E+00 0.23505146E+04</pdfrwt>
<pdfrwt beam="2">  1       -1 0.15845523E+00 0.23505146E+04</pdfrwt>
<totfact> 0.48338401E+00</totfact>
</mgrwt>
</event>
<event>
12    6  0.1553355E-007  0.3438925E+04  0.7818608E-02  0.8128418E-01
         -1   -1    0    0    0  501 -0.00000000000E+00  0.00000000000E+00  0.15814370654E+04  0.15814370654E+04  0.00000000000E+00 0.  1.
          2   -1    0    0  501    0  0.00000000000E+00 -0.00000000000E+00 -0.18695343182E+04  0.18695343182E+04  0.00000000000E+00 0. -1.
         24    2    1    2    0    0  0.34562669451E+03 -0.10749898736E+04  0.10017062110E+04  0.15118675658E+04  0.85247656922E+02 0.  0.
        254    2    1    2    0    0 -0.34562669451E+03  0.10749898736E+04 -0.12898034638E+04  0.19391038179E+04  0.90634960196E+03 0.  0.
         23    2    4    4    0    0 -0.24865344680E+03  0.58019711345E+03 -0.10247178343E+03  0.64592632742E+03  0.90901743569E+02 0.  0.
         23    2    4    4    0    0 -0.96973247702E+02  0.49479276010E+03 -0.11873316804E+04  0.12931774905E+04  0.91256869885E+02 0.  0.
          4    1    3    3  502    0  0.17967005897E+03 -0.48896340579E+03  0.41292182074E+03  0.66473376049E+03  0.00000000000E+00 0. -1.
         -3    1    3    3    0  502  0.16595663553E+03 -0.58602646777E+03  0.58878439029E+03  0.84713380528E+03  0.00000000000E+00 0.  1.
         11    1    5    5    0    0 -0.31588934365E+02  0.93539094211E+02  0.16068626247E+02  0.10002811440E+03  0.00000000000E+00 0.  1.
        -11    1    5    5    0    0 -0.21706451244E+03  0.48665801924E+03 -0.11854040967E+03  0.54589821302E+03  0.00000000000E+00 0. -1.
          3    1    6    6  503    0 -0.54242694287E+02  0.27824287902E+03 -0.77949878225E+03  0.82944542987E+03  0.00000000000E+00 0. -1.
         -3    1    6    6    0  503 -0.42730553415E+02  0.21654988109E+03 -0.40783289818E+03  0.46373206060E+03  0.00000000000E+00 0.  1.
<mgrwt>
<rscale>  0 0.34389248E+04</rscale>
<asrwt>0</asrwt>
<pdfrwt beam="1">  1        2 0.28762066E+00 0.34389248E+04</pdfrwt>
<pdfrwt beam="2">  1       -1 0.24329801E+00 0.34389248E+04</pdfrwt>
<totfact> 0.57215501E-01</totfact>
</mgrwt>
</event>
<event>
12    6  0.1553355E-007  0.1250416E+04  0.7818608E-02  0.9069837E-01
          2   -1    0    0  501    0  0.00000000000E+00  0.00000000000E+00  0.11712163953E+04  0.11712163953E+04  0.00000000000E+00 0. -1.
         -1   -1    0    0    0  501 -0.00000000000E+00 -0.00000000000E+00 -0.33374288593E+03  0.33374288593E+03  0.00000000000E+00 0.  1.
         24    2    1    2    0    0  0.31503787675E+02  0.22291143191E+03  0.42207982832E+03  0.48518704892E+03  0.81074631375E+02 0.  0.
        254    2    1    2    0    0 -0.31503787675E+02 -0.22291143191E+03  0.41539368105E+03  0.10197722323E+04  0.90371538684E+03 0.  0.
         23    2    4    4    0    0 -0.13625707012E+03 -0.55112595578E+03  0.27347745300E+03  0.63599780857E+03  0.86008644457E+02 0.  0.
         23    2    4    4    0    0  0.10475328245E+03  0.32821452387E+03  0.14191622805E+03  0.38377442373E+03  0.91894334204E+02 0.  0.
          2    1    3    3  502    0  0.43189879922E+01  0.16932860274E+03  0.36465254042E+03  0.40207251161E+03  0.00000000000E+00 0. -1.
         -1    1    3    3    0  502  0.27184799683E+02  0.53582829172E+02  0.57427287897E+02  0.83114537303E+02  0.00000000000E+00 0.  1.
         11    1    5    5    0    0 -0.14917913229E+02 -0.23381021097E+03  0.10363508153E+03  0.25618350652E+03  0.00000000000E+00 0. -1.
        -11    1    5    5    0    0 -0.12133915689E+03 -0.31731574481E+03  0.16984237147E+03  0.37981430205E+03  0.00000000000E+00 0.  1.
          1    1    6    6  503    0  0.73641038755E+01  0.17178326326E+03  0.59895696073E+02  0.18207474831E+03  0.00000000000E+00 0. -1.
         -1    1    6    6    0  503  0.97389178570E+02  0.15643126061E+03  0.82020531977E+02  0.20169967542E+03  0.00000000000E+00 0.  1.
<mgrwt>
<rscale>  0 0.12504162E+04</rscale>
<asrwt>0</asrwt>
<pdfrwt beam="1">  1        2 0.18018714E+00 0.12504162E+04</pdfrwt>
<pdfrwt beam="2">  1       -1 0.51345060E-01 0.12504162E+04</pdfrwt>
<totfact> 0.84303281E+01</totfact>
</mgrwt>
</event>
<event>
12    6  0.1553355E-007  0.1602684E+04  0.7818608E-02  0.8818901E-01
         -1   -1    0    0    0  501 -0.00000000000E+00  0.00000000000E+00  0.23321012314E+03  0.23321012314E+03  0.00000000000E+00 0.  1.
          2   -1    0    0  501    0  0.00000000000E+00 -0.00000000000E+00 -0.27535201230E+04  0.27535201230E+04  0.00000000000E+00 0. -1.
         24    2    1    2    0    0  0.77382610741E+02  0.29776006371E+03 -0.16701333737E+04  0.17002536117E+04  0.82871794011E+02 0.  0.
        254    2    1    2    0    0 -0.77382610741E+02 -0.29776006371E+03 -0.85017662619E+03  0.12864766345E+04  0.91518998644E+03 0.  0.
         23    2    4    4    0    0  0.36541538706E+03 -0.49394844053E+02 -0.13060685916E+03  0.40106949211E+03  0.88489152575E+02 0.  0.
         23    2    4    4    0    0 -0.44279799780E+03 -0.24836521966E+03 -0.71956976703E+03  0.88540714234E+03  0.91705010180E+02 0.  0.
          4    1    3    3  502    0  0.39332991315E+02  0.26292696794E+03 -0.13405014319E+04  0.13666095871E+04  0.00000000000E+00 0. -1.
         -3    1    3    3    0  502  0.38049619426E+02  0.34833095768E+02 -0.32963194181E+03  0.33364402461E+03  0.00000000000E+00 0.  1.
         11    1    5    5    0    0  0.82101076342E+02 -0.33132153524E+02  0.33723864002E+00  0.88534965204E+02  0.00000000000E+00 0. -1.
        -11    1    5    5    0    0  0.28331431072E+03 -0.16262690529E+02 -0.13094409780E+03  0.31253452691E+03  0.00000000000E+00 0.  1.
          1    1    6    6  503    0 -0.25686493002E+03 -0.17726735597E+03 -0.49638908651E+03  0.58634924147E+03  0.00000000000E+00 0. -1.
         -1    1    6    6    0  503 -0.18593306778E+03 -0.71097863690E+02 -0.22318068052E+03  0.29905790087E+03  0.00000000000E+00 0.  1.
<mgrwt>
<rscale>  0 0.16026837E+04</rscale>
<asrwt>0</asrwt>
<pdfrwt beam="1">  1        2 0.42361846E+00 0.16026837E+04</pdfrwt>
<pdfrwt beam="2">  1       -1 0.35878482E-01 0.16026837E+04</pdfrwt>
<totfact> 0.20061973E+01</totfact>
</mgrwt>
</event>
<event>
12    6  0.1553355E-007  0.1195749E+04  0.7818608E-02  0.9116586E-01
          2   -1    0    0  501    0  0.00000000000E+00  0.00000000000E+00  0.18302240869E+03  0.18302240869E+03  0.00000000000E+00 0. -1.
         -1   -1    0    0    0  501 -0.00000000000E+00 -0.00000000000E+00 -0.19530595574E+04  0.19530595574E+04  0.00000000000E+00 0.  1.
         24    2    1    2    0    0  0.11678530306E+03  0.16011888372E+03 -0.12825703431E+03  0.25198289154E+03  0.88139927659E+02 0.  0.
        254    2    1    2    0    0 -0.11678530306E+03 -0.16011888372E+03 -0.16417801144E+04  0.18840990745E+04  0.90283471065E+03 0.  0.
         23    2    4    4    0    0  0.30017331132E+03 -0.21781830958E+03 -0.33503275443E+03  0.50830342526E+03  0.92609895677E+02 0.  0.
         23    2    4    4    0    0 -0.41695861438E+03  0.57699425868E+02 -0.13067473600E+04  0.13757956493E+04  0.89673273392E+02 0.  0.
          4    1    3    3  502    0  0.86185795924E+02  0.15646990817E+03 -0.82378831327E+02  0.19671577322E+03  0.00000000000E+00 0. -1.
         -3    1    3    3    0  502  0.30599507134E+02  0.36489755482E+01 -0.45878202981E+02  0.55267118327E+02  0.00000000000E+00 0.  1.
         11    1    5    5    0    0  0.14827909491E+03 -0.15830302797E+03 -0.21804144520E+03  0.30755261416E+03  0.00000000000E+00 0. -1.
        -11    1    5    5    0    0  0.15189421640E+03 -0.59515281612E+02 -0.11699130923E+03  0.20075081110E+03  0.00000000000E+00 0.  1.
          3    1    6    6  503    0 -0.20773805821E+03  0.72308712156E+02 -0.63010140858E+03  0.66739151611E+03  0.00000000000E+00 0. -1.
         -3    1    6    6    0  503 -0.20922055616E+03 -0.14609286288E+02 -0.67664595139E+03  0.70840413318E+03  0.00000000000E+00 0.  1.
<mgrwt>
<rscale>  0 0.11957486E+04</rscale>
<asrwt>0</asrwt>
<pdfrwt beam="1">  1        2 0.28157295E-01 0.11957486E+04</pdfrwt>
<pdfrwt beam="2">  1       -1 0.30047069E+00 0.11957486E+04</pdfrwt>
<totfact> 0.71580880E+00</totfact>
</mgrwt>
</event>
<event>
12    6  0.1553355E-007  0.2620478E+04  0.7818608E-02  0.8361278E-01
          2   -1    0    0  501    0  0.00000000000E+00  0.00000000000E+00  0.29891096432E+04  0.29891096432E+04  0.00000000000E+00 0. -1.
         -1   -1    0    0    0  501 -0.00000000000E+00 -0.00000000000E+00 -0.57432697726E+03  0.57432697726E+03  0.00000000000E+00 0.  1.
         24    2    1    2    0    0  0.77741234207E+03  0.18341516500E+03  0.21578069623E+04  0.23023247015E+04  0.80975751544E+02 0.  0.
        254    2    1    2    0    0 -0.77741234207E+03 -0.18341516500E+03  0.25697570370E+03  0.12611119190E+04  0.94146465019E+03 0.  0.
         23    2    4    4    0    0 -0.68026562634E+03 -0.22480068959E+03  0.56888113555E+03  0.91937396967E+03  0.91247341415E+02 0.  0.
         23    2    4    4    0    0 -0.97146715730E+02  0.41385524595E+02 -0.31190543185E+03  0.34173794931E+03  0.91376044776E+02 0.  0.
          2    1    3    3  502    0  0.35312908861E+03  0.43268936868E+02  0.98509483661E+03  0.10473701310E+04  0.00000000000E+00 0. -1.
         -1    1    3    3    0  502  0.42428325346E+03  0.14014622813E+03  0.11727121257E+04  0.12549545705E+04  0.00000000000E+00 0.  1.
         11    1    5    5    0    0 -0.18337447799E+02 -0.23014750839E+02  0.15147198378E+02  0.33096500822E+02  0.00000000000E+00 0.  1.
        -11    1    5    5    0    0 -0.66192817854E+03 -0.20178593875E+03  0.55373393717E+03  0.88627746885E+03  0.00000000000E+00 0. -1.
          1    1    6    6  503    0 -0.73644500707E+02  0.33605251223E+02 -0.30567144547E+03  0.31620856720E+03  0.00000000000E+00 0. -1.
         -1    1    6    6    0  503 -0.23502215023E+02  0.77802733723E+01 -0.62339863758E+01  0.25529382109E+02  0.00000000000E+00 0.  1.
<mgrwt>
<rscale>  0 0.26204781E+04</rscale>
<asrwt>0</asrwt>
<pdfrwt beam="1">  1        2 0.45986301E+00 0.26204781E+04</pdfrwt>
<pdfrwt beam="2">  1       -1 0.88357998E-01 0.26204781E+04</pdfrwt>
<totfact> 0.22336226E+00</totfact>
</mgrwt>
</event>
<event>
12    6  0.1553355E-007  0.1503621E+04  0.7818608E-02  0.8882049E-01
         -1   -1    0    0    0  501 -0.00000000000E+00  0.00000000000E+00  0.78197069955E+03  0.78197069955E+03  0.00000000000E+00 0.  1.
          2   -1    0    0  501    0  0.00000000000E+00 -0.00000000000E+00 -0.72281363346E+03  0.72281363346E+03  0.00000000000E+00 0. -1.
         24    2    1    2    0    0 -0.43424983667E+03  0.12957431769E+03  0.13234678469E+03  0.47880946894E+03  0.79877479158E+02 0.  0.
        254    2    1    2    0    0  0.43424983667E+03 -0.12957431769E+03 -0.73189718597E+02  0.10259748641E+04  0.91755395609E+03 0.  0.
         23    2    4    4    0    0  0.68133202129E+02 -0.37503686648E+03  0.25578622424E+03  0.46814428763E+03  0.91856938116E+02 0.  0.
         23    2    4    4    0    0  0.36611663454E+03  0.24546254879E+03 -0.32897594284E+03  0.55783057644E+03  0.93040464821E+02 0.  0.
          4    1    3    3  502    0 -0.93614895320E+02  0.63469145932E+02  0.29127704726E+02  0.11679256951E+03  0.00000000000E+00 0. -1.
         -3    1    3    3    0  502 -0.34063494135E+03  0.66105171759E+02  0.10321907996E+03  0.36201689943E+03  0.00000000000E+00 0.  1.
         11    1    5    5    0    0  0.75417248241E+02 -0.37701211294E+03  0.25194196672E+03  0.45967450356E+03  0.00000000000E+00 0.  1.
        -11    1    5    5    0    0 -0.72840461113E+01  0.19752464539E+01  0.38442575249E+01  0.84697840718E+01  0.00000000000E+00 0. -1.
          2    1    6    6  503    0  0.14742667589E+03  0.15215370233E+03 -0.13771651491E+03  0.25268797434E+03  0.00000000000E+00 0. -1.
         -2    1    6    6    0  503  0.21868995865E+03  0.93308846459E+02 -0.19125942793E+03  0.30514260210E+03  0.00000000000E+00 0.  1.
<mgrwt>
<rscale>  0 0.15036211E+04</rscale>
<asrwt>0</asrwt>
<pdfrwt beam="1">  1        2 0.11120210E+00 0.15036211E+04</pdfrwt>
<pdfrwt beam="2">  1       -1 0.12030318E+00 0.15036211E+04</pdfrwt>
<totfact> 0.26702494E+01</totfact>
</mgrwt>
</event>
<event>
12    6  0.1553355E-007  0.1482307E+04  0.7818608E-02  0.8896304E-01
          2   -1    0    0  501    0  0.00000000000E+00  0.00000000000E+00  0.12530400253E+04  0.12530400253E+04  0.00000000000E+00 0. -1.
         -1   -1    0    0    0  501 -0.00000000000E+00 -0.00000000000E+00 -0.43838070570E+03  0.43838070570E+03  0.00000000000E+00 0.  1.
         24    2    1    2    0    0 -0.18612067272E+03 -0.42908274170E+03  0.29504540463E+03  0.55877684458E+03  0.80167744202E+02 0.  0.
        254    2    1    2    0    0  0.18612067272E+03  0.42908274170E+03  0.51961391493E+03  0.11326438864E+04  0.89114008366E+03 0.  0.
         23    2    4    4    0    0  0.27773242120E+03  0.59010963217E+03  0.10244125734E+03  0.66640999134E+03  0.90793114188E+02 0.  0.
         23    2    4    4    0    0 -0.91611748482E+02 -0.16102689047E+03  0.41717265759E+03  0.46623389503E+03  0.94966555818E+02 0.  0.
          2    1    3    3  502    0 -0.14194675974E+03 -0.39109976989E+03  0.26417114568E+03  0.49284308539E+03  0.00000000000E+00 0. -1.
         -1    1    3    3    0  502 -0.44173912977E+02 -0.37982971811E+02  0.30874258946E+02  0.65933759189E+02  0.00000000000E+00 0.  1.
         11    1    5    5    0    0  0.53090029439E+02  0.20539425601E+03  0.48869513655E+02  0.21770066834E+03  0.00000000000E+00 0. -1.
        -11    1    5    5    0    0  0.22464239176E+03  0.38471537616E+03  0.53571743687E+02  0.44870932300E+03  0.00000000000E+00 0.  1.
          3    1    6    6  503    0  0.34577897205E+01 -0.64246668404E+02  0.20072804476E+03  0.21078742530E+03  0.00000000000E+00 0. -1.
         -3    1    6    6    0  503 -0.95069538202E+02 -0.96780222067E+02  0.21644461283E+03  0.25544646973E+03  0.00000000000E+00 0.  1.
<mgrwt>
<rscale>  0 0.14823071E+04</rscale>
<asrwt>0</asrwt>
<pdfrwt beam="1">  1        2 0.19277539E+00 0.14823071E+04</pdfrwt>
<pdfrwt beam="2">  1       -1 0.67443186E-01 0.14823071E+04</pdfrwt>
<totfact> 0.43262000E+01</totfact>
</mgrwt>
</event>
<event>
12    6  0.1553355E-007  0.1278559E+04  0.7818608E-02  0.9046743E-01
         -1   -1    0    0    0  501 -0.00000000000E+00  0.00000000000E+00  0.59588473017E+03  0.59588473017E+03  0.00000000000E+00 0.  1.
          2   -1    0    0  501    0  0.00000000000E+00 -0.00000000000E+00 -0.68583467007E+03  0.68583467007E+03  0.00000000000E+00 0. -1.
         24    2    1    2    0    0  0.34970303200E+02 -0.87230758128E+02  0.27984950787E+03  0.30587420625E+03  0.80069692910E+02 0.  0.
        254    2    1    2    0    0 -0.34970303200E+02  0.87230758128E+02 -0.36979944778E+03  0.97584519398E+03  0.89815927528E+03 0.  0.
         23    2    4    4    0    0  0.80438774601E+02  0.30645600743E+03 -0.56072309656E+03  0.65037890541E+03  0.90535344697E+02 0.  0.
         23    2    4    4    0    0 -0.11540907780E+03 -0.21922524931E+03  0.19092364878E+03  0.32546628857E+03  0.89986110922E+02 0.  0.
          2    1    3    3  502    0 -0.18418691759E+02 -0.45454186918E+02  0.70955584135E+02  0.86255586685E+02  0.00000000000E+00 0. -1.
         -1    1    3    3    0  502  0.53388994958E+02 -0.41776571210E+02  0.20889392374E+03  0.21961861957E+03  0.00000000000E+00 0.  1.
         11    1    5    5    0    0  0.98552704812E+02  0.25616514470E+03 -0.49120423272E+03  0.56268536077E+03  0.00000000000E+00 0.  1.
        -11    1    5    5    0    0 -0.18113930211E+02  0.50290862733E+02 -0.69518863840E+02  0.87693544641E+02  0.00000000000E+00 0. -1.
          1    1    6    6  503    0  0.14336409413E+02 -0.37826607134E+02  0.32733569249E+02  0.52037211665E+02  0.00000000000E+00 0. -1.
         -1    1    6    6    0  503 -0.12974548721E+03 -0.18139864217E+03  0.15819007954E+03  0.27342907691E+03  0.00000000000E+00 0.  1.
<mgrwt>
<rscale>  0 0.12785592E+04</rscale>
<asrwt>0</asrwt>
<pdfrwt beam="1">  1        2 0.10551303E+00 0.12785592E+04</pdfrwt>
<pdfrwt beam="2">  1       -1 0.91674574E-01 0.12785592E+04</pdfrwt>
<totfact> 0.54697046E+01</totfact>
</mgrwt>
</event>
<event>
12    6  0.1553355E-007  0.1566001E+04  0.7818608E-02  0.8841711E-01
         -1   -1    0    0    0  501 -0.00000000000E+00  0.00000000000E+00  0.63399782569E+03  0.63399782569E+03  0.00000000000E+00 0.  1.
          2   -1    0    0  501    0  0.00000000000E+00 -0.00000000000E+00 -0.96702219594E+03  0.96702219594E+03  0.00000000000E+00 0. -1.
         24    2    1    2    0    0  0.30607466145E+03 -0.34701431640E+03 -0.43626438472E+03  0.64111716932E+03  0.81264858706E+02 0.  0.
        254    2    1    2    0    0 -0.30607466145E+03  0.34701431640E+03  0.10324001447E+03  0.95990285230E+03  0.83465822413E+03 0.  0.
         23    2    4    4    0    0  0.23973234568E+03 -0.63538011030E+02  0.34073296607E+02  0.26720835120E+03  0.93437877761E+02 0.  0.
         23    2    4    4    0    0 -0.54580700712E+03  0.41055232743E+03  0.69166717865E+02  0.69269450110E+03  0.92645207202E+02 0.  0.
          2    1    3    3  502    0  0.58691680151E+02 -0.75397138000E+02 -0.13825522094E+03  0.16805935812E+03  0.00000000000E+00 0. -1.
         -1    1    3    3    0  502  0.24738298130E+03 -0.27161717840E+03 -0.29800916379E+03  0.47305781120E+03  0.00000000000E+00 0.  1.
         11    1    5    5    0    0  0.21350989619E+03 -0.67121307820E+02  0.58351420401E+02  0.23129339376E+03  0.00000000000E+00 0. -1.
        -11    1    5    5    0    0  0.26222449490E+02  0.35832967900E+01 -0.24278123795E+02  0.35914957443E+02  0.00000000000E+00 0.  1.
          3    1    6    6  503    0 -0.52070364111E+03  0.38939356396E+03  0.85892722456E+02  0.65584844995E+03  0.00000000000E+00 0. -1.
         -3    1    6    6    0  503 -0.25103366010E+02  0.21158763463E+02 -0.16726004591E+02  0.36846051158E+02  0.00000000000E+00 0.  1.
<mgrwt>
<rscale>  0 0.15660012E+04</rscale>
<asrwt>0</asrwt>
<pdfrwt beam="1">  1        2 0.14877265E+00 0.15660012E+04</pdfrwt>
<pdfrwt beam="2">  1       -1 0.97538127E-01 0.15660012E+04</pdfrwt>
<totfact> 0.29291094E+01</totfact>
</mgrwt>
</event>
<event>
12    6  0.1553355E-007  0.2030323E+04  0.7818608E-02  0.8592573E-01
         -1   -1    0    0    0  501 -0.00000000000E+00  0.00000000000E+00  0.49420482392E+03  0.49420482392E+03  0.00000000000E+00 0.  1.
          2   -1    0    0  501    0  0.00000000000E+00 -0.00000000000E+00 -0.20852752561E+04  0.20852752561E+04  0.00000000000E+00 0. -1.
         24    2    1    2    0    0  0.32722018338E+03  0.55298873329E+03 -0.10018891105E+02  0.64908077528E+03  0.91301079405E+02 0.  0.
        254    2    1    2    0    0 -0.32722018338E+03 -0.55298873329E+03 -0.15810515411E+04  0.19303993048E+04  0.90213519647E+03 0.  0.
         23    2    4    4    0    0 -0.47612861771E+03 -0.13078827880E+03 -0.33544710924E+03  0.60391412594E+03  0.91561312455E+02 0.  0.
         23    2    4    4    0    0  0.14890843432E+03 -0.42220045449E+03 -0.12456044319E+04  0.13264851788E+04  0.87209996087E+02 0.  0.
          4    1    3    3  502    0 -0.40144804410E+01 -0.12304248037E+00  0.14505244686E+01  0.42702709395E+01  0.00000000000E+00 0. -1.
         -3    1    3    3    0  502  0.33123466383E+03  0.55311177577E+03 -0.11469415574E+02  0.64481050434E+03  0.00000000000E+00 0.  1.
         11    1    5    5    0    0 -0.12068397781E+03 -0.12090402109E+02 -0.43423904089E+02  0.12882715462E+03  0.00000000000E+00 0.  1.
        -11    1    5    5    0    0 -0.35544463990E+03 -0.11869787669E+03 -0.29202320515E+03  0.47508697132E+03  0.00000000000E+00 0. -1.
          1    1    6    6  503    0  0.14665987075E+03 -0.40739591013E+03 -0.11334961190E+04  0.12133812250E+04  0.00000000000E+00 0. -1.
         -1    1    6    6    0  503  0.22485635784E+01 -0.14804544358E+02 -0.11210831285E+03  0.11310395387E+03  0.00000000000E+00 0.  1.
<mgrwt>
<rscale>  0 0.20303232E+04</rscale>
<asrwt>0</asrwt>
<pdfrwt beam="1">  1        2 0.32081157E+00 0.20303232E+04</pdfrwt>
<pdfrwt beam="2">  1       -1 0.76031513E-01 0.20303232E+04</pdfrwt>
<totfact> 0.10976683E+01</totfact>
</mgrwt>
</event>
<event>
12    6  0.1553355E-007  0.2115945E+04  0.7818608E-02  0.8554252E-01
          2   -1    0    0  501    0  0.00000000000E+00  0.00000000000E+00  0.18536372581E+04  0.18536372581E+04  0.00000000000E+00 0. -1.
         -1   -1    0    0    0  501 -0.00000000000E+00 -0.00000000000E+00 -0.60384308133E+03  0.60384308133E+03  0.00000000000E+00 0.  1.
         24    2    1    2    0    0  0.46259424122E+03 -0.59458137405E+03  0.22328358542E+02  0.75766842226E+03  0.77733134007E+02 0.  0.
        254    2    1    2    0    0 -0.46259424122E+03  0.59458137405E+03  0.12274658182E+04  0.16998119172E+04  0.90286642228E+03 0.  0.
         23    2    4    4    0    0 -0.67711527730E+03  0.30996136904E+03  0.10509439860E+04  0.12912592189E+04  0.91137038519E+02 0.  0.
         23    2    4    4    0    0  0.21452103608E+03  0.28462000501E+03  0.17652183226E+03  0.40855269824E+03  0.93421238484E+02 0.  0.
          4    1    3    3  502    0  0.22783793127E+03 -0.29401901580E+03 -0.27847599965E+02  0.37300508495E+03  0.00000000000E+00 0. -1.
         -1    1    3    3    0  502  0.23475630995E+03 -0.30056235826E+03  0.50175958507E+02  0.38466333732E+03  0.00000000000E+00 0.  1.
         11    1    5    5    0    0 -0.49601114418E+03  0.18478699230E+03  0.71500525154E+03  0.88960991306E+03  0.00000000000E+00 0. -1.
        -11    1    5    5    0    0 -0.18110413312E+03  0.12517437674E+03  0.33593873444E+03  0.40164930589E+03  0.00000000000E+00 0.  1.
          3    1    6    6  503    0  0.15357982211E+03  0.21029376973E+03  0.17249331918E+03  0.31235264767E+03  0.00000000000E+00 0. -1.
         -3    1    6    6    0  503  0.60941213975E+02  0.74326235279E+02  0.40285130820E+01  0.96200050567E+02  0.00000000000E+00 0.  1.
<mgrwt>
<rscale>  0 0.21159452E+04</rscale>
<asrwt>0</asrwt>
<pdfrwt beam="1">  1        2 0.28517496E+00 0.21159452E+04</pdfrwt>
<pdfrwt beam="2">  1       -1 0.92898937E-01 0.21159452E+04</pdfrwt>
<totfact> 0.95044253E+00</totfact>
</mgrwt>
</event>
<event>
12    6  0.1553355E-007  0.1765665E+04  0.7818608E-02  0.8724775E-01
         -1   -1    0    0    0  501 -0.00000000000E+00  0.00000000000E+00  0.14019326946E+04  0.14019326946E+04  0.00000000000E+00 0.  1.
          2   -1    0    0  501    0  0.00000000000E+00 -0.00000000000E+00 -0.55594184152E+03  0.55594184152E+03  0.00000000000E+00 0. -1.
         24    2    1    2    0    0  0.52538112068E+03  0.26358151916E+03  0.55078643867E+02  0.59567664215E+03  0.79350272753E+02 0.  0.
        254    2    1    2    0    0 -0.52538112068E+03 -0.26358151916E+03  0.79091220926E+03  0.13621978940E+04  0.94050010127E+03 0.  0.
         23    2    4    4    0    0 -0.46275303831E+03 -0.23208938085E+03  0.99655199281E+03  0.11266376044E+04  0.90501724940E+02 0.  0.
         23    2    4    4    0    0 -0.62628082369E+02 -0.31492138315E+02 -0.20563978355E+03  0.23556028957E+03  0.91032400646E+02 0.  0.
          4    1    3    3  502    0  0.30777230289E+02  0.11433745448E+02  0.22004634544E+02  0.39524326442E+02  0.00000000000E+00 0. -1.
         -3    1    3    3    0  502  0.49460389039E+03  0.25214777372E+03  0.33074009323E+02  0.55615231571E+03  0.00000000000E+00 0.  1.
         11    1    5    5    0    0 -0.31983035504E+03 -0.15090721363E+03  0.58652070138E+03  0.68488756470E+03  0.00000000000E+00 0. -1.
        -11    1    5    5    0    0 -0.14292268326E+03 -0.81182167215E+02  0.41003129143E+03  0.44175003975E+03  0.00000000000E+00 0.  1.
          4    1    6    6  503    0 -0.55761013910E+02  0.13929983306E+02 -0.61047405458E+02  0.83845815759E+02  0.00000000000E+00 0.  1.
         -4    1    6    6    0  503 -0.68670684588E+01 -0.45422121621E+02 -0.14459237809E+03  0.15171447381E+03  0.00000000000E+00 0. -1.
<mgrwt>
<rscale>  0 0.17656648E+04</rscale>
<asrwt>0</asrwt>
<pdfrwt beam="1">  1        2 0.85529515E-01 0.17656648E+04</pdfrwt>
<pdfrwt beam="2">  1       -1 0.21568195E+00 0.17656648E+04</pdfrwt>
<totfact> 0.69157611E+00</totfact>
</mgrwt>
</event>
<event>
12    6  0.1553355E-007  0.1615682E+04  0.7818608E-02  0.8810971E-01
          2   -1    0    0  501    0  0.00000000000E+00  0.00000000000E+00  0.69756984454E+03  0.69756984454E+03  0.00000000000E+00 0. -1.
         -1   -1    0    0    0  501 -0.00000000000E+00 -0.00000000000E+00 -0.93554379804E+03  0.93554379804E+03  0.00000000000E+00 0.  1.
         24    2    1    2    0    0 -0.35730008986E+03  0.41709571095E+03 -0.82859974463E+01  0.55509498274E+03  0.80184760438E+02 0.  0.
        254    2    1    2    0    0  0.35730008986E+03 -0.41709571095E+03 -0.22968795605E+03  0.10780186598E+04  0.89874105698E+03 0.  0.
         23    2    4    4    0    0  0.61754097633E+03 -0.10291621434E+03 -0.10303644486E+03  0.64089668478E+03  0.90462406421E+02 0.  0.
         23    2    4    4    0    0 -0.26024088646E+03 -0.31417949661E+03 -0.12665151119E+03  0.43712197506E+03  0.92741256815E+02 0.  0.
          4    1    3    3  502    0 -0.18997660673E+03  0.16793475011E+03 -0.23014126074E+02  0.25460330202E+03  0.00000000000E+00 0. -1.
         -3    1    3    3    0  502 -0.16732348313E+03  0.24916096083E+03  0.14728128628E+02  0.30049168073E+03  0.00000000000E+00 0.  1.
         11    1    5    5    0    0  0.33795891065E+03 -0.73996855362E+02 -0.14733677966E+02  0.34627856006E+03  0.00000000000E+00 0. -1.
        -11    1    5    5    0    0  0.27958206568E+03 -0.28919358975E+02 -0.88302766894E+02  0.29461812472E+03  0.00000000000E+00 0.  1.
          2    1    6    6  503    0 -0.22646271557E+03 -0.24048131326E+03 -0.68508937089E+02  0.33735752257E+03  0.00000000000E+00 0. -1.
         -2    1    6    6    0  503 -0.33778170889E+02 -0.73698183345E+02 -0.58142574101E+02  0.99764452488E+02  0.00000000000E+00 0.  1.
<mgrwt>
<rscale>  0 0.16156821E+04</rscale>
<asrwt>0</asrwt>
<pdfrwt beam="1">  1        2 0.10731844E+00 0.16156821E+04</pdfrwt>
<pdfrwt beam="2">  1       -1 0.14392981E+00 0.16156821E+04</pdfrwt>
<totfact> 0.17543773E+01</totfact>
</mgrwt>
</event>
<event>
12    6  0.1553355E-007  0.2693931E+04  0.7818608E-02  0.8336977E-01
         -1   -1    0    0    0  501 -0.00000000000E+00  0.00000000000E+00  0.84608589049E+03  0.84608589049E+03  0.00000000000E+00 0.  1.
          2   -1    0    0  501    0  0.00000000000E+00 -0.00000000000E+00 -0.21443639159E+04  0.21443639159E+04  0.00000000000E+00 0. -1.
         24    2    1    2    0    0 -0.81722626985E+03 -0.20788627936E+03  0.36420663921E+03  0.92233141310E+03  0.83506157000E+02 0.  0.
        254    2    1    2    0    0  0.81722626985E+03  0.20788627936E+03 -0.16624846646E+04  0.20681183933E+04  0.89564666431E+03 0.  0.
         23    2    4    4    0    0  0.96353827123E+03  0.32493875275E+03 -0.13454900218E+04  0.16889759270E+04  0.91132266368E+02 0.  0.
         23    2    4    4    0    0 -0.14631200138E+03 -0.11705247339E+03 -0.31699464277E+03  0.37914246627E+03  0.90304611800E+02 0.  0.
          4    1    3    3  502    0 -0.17548895291E+03 -0.37581624524E+02  0.41942539274E+02  0.18430390039E+03  0.00000000000E+00 0. -1.
         -3    1    3    3    0  502 -0.64173731694E+03 -0.17030465483E+03  0.32226409994E+03  0.73802751271E+03  0.00000000000E+00 0.  1.
         11    1    5    5    0    0  0.16478631699E+03  0.83491028156E+02 -0.20720161479E+03  0.27759285153E+03  0.00000000000E+00 0. -1.
        -11    1    5    5    0    0  0.79875195425E+03  0.24144772459E+03 -0.11382884070E+04  0.14113830755E+04  0.00000000000E+00 0.  1.
          4    1    6    6  503    0 -0.84618936312E-01 -0.44911259324E+02 -0.71248646057E+02  0.84222312598E+02  0.00000000000E+00 0. -1.
         -4    1    6    6    0  503 -0.14622738245E+03 -0.72141214069E+02 -0.24574599671E+03  0.29492015368E+03  0.00000000000E+00 0.  1.
<mgrwt>
<rscale>  0 0.26939310E+04</rscale>
<asrwt>0</asrwt>
<pdfrwt beam="1">  1        2 0.32990214E+00 0.26939310E+04</pdfrwt>
<pdfrwt beam="2">  1       -1 0.13016706E+00 0.26939310E+04</pdfrwt>
<totfact> 0.28002655E+00</totfact>
</mgrwt>
</event>
<event>
12    6  0.1553355E-007  0.1470493E+04  0.7818608E-02  0.8904315E-01
         -1   -1    0    0    0  501 -0.00000000000E+00  0.00000000000E+00  0.19699116048E+03  0.19699116048E+03  0.00000000000E+00 0.  1.
          2   -1    0    0  501    0  0.00000000000E+00 -0.00000000000E+00 -0.27442217208E+04  0.27442217208E+04  0.00000000000E+00 0. -1.
         24    2    1    2    0    0  0.22738940334E+03 -0.13691682043E+03 -0.73764554752E+02  0.28791895317E+03  0.83689650442E+02 0.  0.
        254    2    1    2    0    0 -0.22738940334E+03  0.13691682043E+03 -0.24734660055E+04  0.26532939281E+04  0.92275805702E+03 0.  0.
         23    2    4    4    0    0 -0.22645137409E+03  0.32663203505E+03 -0.23933201909E+04  0.24278187948E+04  0.91399416525E+02 0.  0.
         23    2    4    4    0    0 -0.93802924724E+00 -0.18971521462E+03 -0.80145814688E+02  0.22547513328E+03  0.91776585016E+02 0.  0.
          4    1    3    3  502    0  0.52914743271E+02 -0.36644500169E+01  0.80125710675E+01  0.53643261874E+02  0.00000000000E+00 0. -1.
         -3    1    3    3    0  502  0.17447466007E+03 -0.13325237041E+03 -0.81777125820E+02  0.23427569130E+03  0.00000000000E+00 0.  1.
         11    1    5    5    0    0 -0.14312793213E+03  0.14269709233E+03 -0.13622904456E+04  0.13772012646E+04  0.00000000000E+00 0. -1.
        -11    1    5    5    0    0 -0.83323441967E+02  0.18393494272E+03 -0.10310297453E+04  0.10506175302E+04  0.00000000000E+00 0.  1.
          3    1    6    6  503    0  0.38855594902E+02 -0.13945803250E+03 -0.41406647409E+02  0.15057493328E+03  0.00000000000E+00 0. -1.
         -3    1    6    6    0  503 -0.39793624149E+02 -0.50257182121E+02 -0.38739167278E+02  0.74900199993E+02  0.00000000000E+00 0.  1.
<mgrwt>
<rscale>  0 0.14704930E+04</rscale>
<asrwt>0</asrwt>
<pdfrwt beam="1">  1        2 0.42218796E+00 0.14704930E+04</pdfrwt>
<pdfrwt beam="2">  1       -1 0.30306332E-01 0.14704930E+04</pdfrwt>
<totfact> 0.27757737E+01</totfact>
</mgrwt>
</event>
<event>
12    6  0.1553355E-007  0.2093196E+04  0.7818608E-02  0.8564247E-01
         -1   -1    0    0    0  501 -0.00000000000E+00  0.00000000000E+00  0.88950618529E+03  0.88950618529E+03  0.00000000000E+00 0.  1.
          2   -1    0    0  501    0  0.00000000000E+00 -0.00000000000E+00 -0.12314329387E+04  0.12314329387E+04  0.00000000000E+00 0. -1.
         24    2    1    2    0    0 -0.16064419390E+03  0.84283727604E+02  0.70794933611E+03  0.73482490301E+03  0.76583756828E+02 0.  0.
        254    2    1    2    0    0  0.16064419390E+03 -0.84283727604E+02 -0.10498760895E+04  0.13861142210E+04  0.88665806626E+03 0.  0.
         23    2    4    4    0    0 -0.87888743396E+02  0.21709463265E+03  0.10738883147E+02  0.25215111919E+03  0.92791985416E+02 0.  0.
         23    2    4    4    0    0  0.24853293729E+03 -0.30137836025E+03 -0.10606149726E+04  0.11339631018E+04  0.91491305716E+02 0.  0.
          2    1    3    3  502    0 -0.34476331744E+02 -0.11815114544E+02  0.17612026665E+03  0.17985150182E+03  0.00000000000E+00 0. -1.
         -1    1    3    3    0  502 -0.12616786215E+03  0.96098842148E+02  0.53182906946E+03  0.55497340119E+03  0.00000000000E+00 0.  1.
         11    1    5    5    0    0 -0.77448139556E+02  0.22376311182E+03  0.18538665197E+02  0.23751174000E+03  0.00000000000E+00 0. -1.
        -11    1    5    5    0    0 -0.10440603840E+02 -0.66684791706E+01 -0.77997820505E+01  0.14639379189E+02  0.00000000000E+00 0.  1.
          3    1    6    6  503    0  0.11242325203E+03 -0.12974581704E+03 -0.59716698054E+03  0.62135446187E+03  0.00000000000E+00 0.  1.
         -3    1    6    6    0  503  0.13610968526E+03 -0.17163254322E+03 -0.46344799211E+03  0.51260863990E+03  0.00000000000E+00 0. -1.
<mgrwt>
<rscale>  0 0.20931958E+04</rscale>
<asrwt>0</asrwt>
<pdfrwt beam="1">  1        2 0.18945122E+00 0.20931958E+04</pdfrwt>
<pdfrwt beam="2">  1       -1 0.13684711E+00 0.20931958E+04</pdfrwt>
<totfact> 0.84825393E+00</totfact>
</mgrwt>
</event>
<event>
12    6  0.1553355E-007  0.1297394E+04  0.7818608E-02  0.9031634E-01
         -1   -1    0    0    0  501 -0.00000000000E+00  0.00000000000E+00  0.26224400307E+03  0.26224400307E+03  0.00000000000E+00 0.  1.
          2   -1    0    0  501    0  0.00000000000E+00 -0.00000000000E+00 -0.16046429451E+04  0.16046429451E+04  0.00000000000E+00 0. -1.
         24    2    1    2    0    0 -0.25401514379E+03  0.21429065108E+03 -0.35315456401E+03  0.49105904246E+03  0.77308865523E+02 0.  0.
        254    2    1    2    0    0  0.25401514379E+03 -0.21429065108E+03 -0.98924437805E+03  0.13758279057E+04  0.89657894815E+03 0.  0.
         23    2    4    4    0    0  0.31933943635E+03  0.21855680947E+03 -0.79399764448E+03  0.88800883838E+03  0.91556993368E+02 0.  0.
         23    2    4    4    0    0 -0.65324292564E+02 -0.43284746056E+03 -0.19524673357E+03  0.48781906735E+03  0.90675069288E+02 0.  0.
          2    1    3    3  502    0 -0.17891056059E+03  0.16868349474E+03 -0.21136263113E+03  0.32424878092E+03  0.00000000000E+00 0. -1.
         -1    1    3    3    0  502 -0.75104583197E+02  0.45607156342E+02 -0.14179193288E+03  0.16681026154E+03  0.00000000000E+00 0.  1.
         11    1    5    5    0    0  0.15836269085E+03  0.16288256277E+03 -0.46550582320E+03  0.51798179750E+03  0.00000000000E+00 0. -1.
        -11    1    5    5    0    0  0.16097674550E+03  0.55674246700E+02 -0.32849182128E+03  0.37002704089E+03  0.00000000000E+00 0.  1.
          1    1    6    6  503    0 -0.24998657291E+02 -0.20831514877E+03 -0.14264595709E+03  0.25370850035E+03  0.00000000000E+00 0. -1.
         -1    1    6    6    0  503 -0.40325635273E+02 -0.22453231179E+03 -0.52600776481E+02  0.23411056700E+03  0.00000000000E+00 0.  1.
<mgrwt>
<rscale>  0 0.12973943E+04</rscale>
<asrwt>0</asrwt>
<pdfrwt beam="1">  1        2 0.24686814E+00 0.12973943E+04</pdfrwt>
<pdfrwt beam="2">  1       -1 0.40345231E-01 0.12973943E+04</pdfrwt>
<totfact> 0.74220262E+01</totfact>
</mgrwt>
</event>
<event>
12    6  0.1553355E-007  0.1448697E+04  0.7818608E-02  0.8919304E-01
          2   -1    0    0  501    0  0.00000000000E+00  0.00000000000E+00  0.20127511557E+04  0.20127511557E+04  0.00000000000E+00 0. -1.
         -1   -1    0    0    0  501 -0.00000000000E+00 -0.00000000000E+00 -0.26067856251E+03  0.26067856251E+03  0.00000000000E+00 0.  1.
         24    2    1    2    0    0  0.19119555038E+03  0.88316901467E+02 -0.71445195171E+02  0.23875426278E+03  0.86853719050E+02 0.  0.
        254    2    1    2    0    0 -0.19119555038E+03 -0.88316901467E+02  0.18235177884E+04  0.20346754554E+04  0.87768529147E+03 0.  0.
         23    2    4    4    0    0  0.31129921969E+03 -0.12751204027E+03  0.45288117320E+03  0.57154531720E+03  0.91630606133E+02 0.  0.
         23    2    4    4    0    0 -0.50249477007E+03  0.39195138799E+02  0.13706366152E+04  0.14631301382E+04  0.89821031582E+02 0.  0.
          4    1    3    3  502    0  0.79286170286E+02  0.58297093311E+02  0.72693147369E+01  0.98679738670E+02  0.00000000000E+00 0. -1.
         -3    1    3    3    0  502  0.11190938009E+03  0.30019808156E+02 -0.78714509908E+02  0.14007452411E+03  0.00000000000E+00 0.  1.
         11    1    5    5    0    0  0.12125915698E+03 -0.96371779334E+02  0.22552884557E+03  0.27359561982E+03  0.00000000000E+00 0. -1.
        -11    1    5    5    0    0  0.19004006271E+03 -0.31140260932E+02  0.22735232763E+03  0.29794969737E+03  0.00000000000E+00 0.  1.
          3    1    6    6  503    0 -0.35190093080E+03  0.65558426743E+02  0.91486580523E+03  0.98240094361E+03  0.00000000000E+00 0. -1.
         -3    1    6    6    0  503 -0.15059383926E+03 -0.26363287944E+02  0.45577080993E+03  0.48072919462E+03  0.00000000000E+00 0.  1.
<mgrwt>
<rscale>  0 0.14486975E+04</rscale>
<asrwt>0</asrwt>
<pdfrwt beam="1">  1        2 0.30965401E+00 0.14486975E+04</pdfrwt>
<pdfrwt beam="2">  1       -1 0.40104395E-01 0.14486975E+04</pdfrwt>
<totfact> 0.44042405E+01</totfact>
</mgrwt>
</event>
<event>
12    6  0.1553355E-007  0.3549221E+04  0.7818608E-02  0.8102223E-01
         -1   -1    0    0    0  501 -0.00000000000E+00  0.00000000000E+00  0.16284497830E+04  0.16284497830E+04  0.00000000000E+00 0.  1.
          2   -1    0    0  501    0  0.00000000000E+00 -0.00000000000E+00 -0.19338902004E+04  0.19338902004E+04  0.00000000000E+00 0. -1.
         24    2    1    2    0    0  0.41421829620E+03 -0.13851020129E+04  0.66748782008E+03  0.15943205878E+04  0.78954186575E+02 0.  0.
        254    2    1    2    0    0 -0.41421829620E+03  0.13851020129E+04 -0.97292823747E+03  0.19680193956E+04  0.91456361342E+03 0.  0.
         23    2    4    4    0    0 -0.44170806717E+03  0.14359920427E+04 -0.67247010571E+03  0.16487221147E+04  0.94283642850E+02 0.  0.
         23    2    4    4    0    0  0.27489770973E+02 -0.50890029729E+02 -0.30045813175E+03  0.31929728086E+03  0.91269830682E+02 0.  0.
          2    1    3    3  502    0  0.20146021532E+03 -0.60174771384E+03  0.32964766506E+03  0.71509028279E+03  0.00000000000E+00 0. -1.
         -1    1    3    3    0  502  0.21275808088E+03 -0.78335429911E+03  0.33784015502E+03  0.87923030502E+03  0.00000000000E+00 0.  1.
         11    1    5    5    0    0 -0.29478875790E+03  0.98535096929E+03 -0.41264983425E+03  0.11081953033E+04  0.00000000000E+00 0. -1.
        -11    1    5    5    0    0 -0.14691930927E+03  0.45064107339E+03 -0.25982027147E+03  0.54052681148E+03  0.00000000000E+00 0.  1.
          2    1    6    6  503    0  0.54935263145E+02 -0.10032504049E+02 -0.19641209286E+03  0.20419658297E+03  0.00000000000E+00 0. -1.
         -2    1    6    6    0  503 -0.27445492172E+02 -0.40857525680E+02 -0.10404603889E+03  0.11510069788E+03  0.00000000000E+00 0.  1.
<mgrwt>
<rscale>  0 0.35492214E+04</rscale>
<asrwt>0</asrwt>
<pdfrwt beam="1">  1        2 0.29752157E+00 0.35492214E+04</pdfrwt>
<pdfrwt beam="2">  1       -1 0.25053074E+00 0.35492214E+04</pdfrwt>
<totfact> 0.46825659E-01</totfact>
</mgrwt>
</event>
<event>
12    6  0.1553355E-007  0.2826489E+04  0.7818608E-02  0.8295091E-01
          2   -1    0    0  501    0  0.00000000000E+00  0.00000000000E+00  0.10207324648E+04  0.10207324648E+04  0.00000000000E+00 0. -1.
         -1   -1    0    0    0  501 -0.00000000000E+00 -0.00000000000E+00 -0.19566936379E+04  0.19566936379E+04  0.00000000000E+00 0.  1.
         24    2    1    2    0    0  0.81208645073E+03 -0.14997685602E+03  0.59143378099E+03  0.10188702963E+04  0.79531771516E+02 0.  0.
        254    2    1    2    0    0 -0.81208645073E+03  0.14997685602E+03 -0.15273949541E+04  0.19585558063E+04  0.90610597602E+03 0.  0.
         23    2    4    4    0    0  0.17773347622E+03 -0.48996192234E+02 -0.34962244080E+03  0.40460264455E+03  0.86473310589E+02 0.  0.
         23    2    4    4    0    0 -0.98981992695E+03  0.19897304825E+03 -0.11777725133E+04  0.15539531617E+04  0.91041606372E+02 0.  0.
          2    1    3    3  502    0  0.44671041889E+03 -0.83487218688E+02  0.27661366526E+03  0.53201074598E+03  0.00000000000E+00 0. -1.
         -1    1    3    3    0  502  0.36537603184E+03 -0.66489637329E+02  0.31482011573E+03  0.48685955036E+03  0.00000000000E+00 0.  1.
         11    1    5    5    0    0  0.17938955703E+03 -0.62291966751E+02 -0.32024556823E+03  0.37231455285E+03  0.00000000000E+00 0. -1.
        -11    1    5    5    0    0 -0.16560808105E+01  0.13295774517E+02 -0.29376872573E+02  0.32288091703E+02  0.00000000000E+00 0.  1.
          1    1    6    6  503    0 -0.95892164854E+03  0.17560286449E+03 -0.11282829910E+04  0.14911034846E+04  0.00000000000E+00 0. -1.
         -1    1    6    6    0  503 -0.30898278413E+02  0.23370183761E+02 -0.49489522255E+02  0.62849677095E+02  0.00000000000E+00 0.  1.
<mgrwt>
<rscale>  0 0.28264895E+04</rscale>
<asrwt>0</asrwt>
<pdfrwt beam="1">  1        2 0.15703577E+00 0.28264895E+04</pdfrwt>
<pdfrwt beam="2">  1       -1 0.30102979E+00 0.28264895E+04</pdfrwt>
<totfact> 0.78617114E-01</totfact>
</mgrwt>
</event>
<event>
12    6  0.1553355E-007  0.1532794E+04  0.7818608E-02  0.8862933E-01
         -1   -1    0    0    0  501 -0.00000000000E+00  0.00000000000E+00  0.69633987711E+03  0.69633987711E+03  0.00000000000E+00 0.  1.
          2   -1    0    0  501    0  0.00000000000E+00 -0.00000000000E+00 -0.84350235253E+03  0.84350235253E+03  0.00000000000E+00 0. -1.
         24    2    1    2    0    0 -0.26402523774E+03  0.24029524294E+03  0.30163484186E+03  0.47153559765E+03  0.62538884613E+02 0.  0.
        254    2    1    2    0    0  0.26402523774E+03 -0.24029524294E+03 -0.44879731727E+03  0.10683066320E+04  0.90133728317E+03 0.  0.
         23    2    4    4    0    0  0.25984129936E+03  0.20820846353E+03  0.94297822727E+02  0.35800839980E+03  0.91704251919E+02 0.  0.
         23    2    4    4    0    0  0.41839383773E+01 -0.44850370646E+03 -0.54309514000E+03  0.71029823219E+03  0.91641516288E+02 0.  0.
          4    1    3    3  502    0 -0.95342583454E+02  0.10979579414E+03  0.89621248327E+02  0.17081362001E+03  0.00000000000E+00 0. -1.
         -3    1    3    3    0  502 -0.16868265429E+03  0.13049944880E+03  0.21201359353E+03  0.30072197764E+03  0.00000000000E+00 0.  1.
         11    1    5    5    0    0  0.92994969699E+01  0.20703864806E+02 -0.14228535035E+02  0.26787718660E+02  0.00000000000E+00 0. -1.
        -11    1    5    5    0    0  0.25054180239E+03  0.18750459872E+03  0.10852635776E+03  0.33122068114E+03  0.00000000000E+00 0.  1.
          1    1    6    6  503    0  0.18066411246E+01 -0.11195149894E+03 -0.79081039302E+02  0.13707739728E+03  0.00000000000E+00 0. -1.
         -1    1    6    6    0  503  0.23772972526E+01 -0.33655220752E+03 -0.46401410070E+03  0.57322083491E+03  0.00000000000E+00 0.  1.
<mgrwt>
<rscale>  0 0.15327940E+04</rscale>
<asrwt>0</asrwt>
<pdfrwt beam="1">  1        2 0.12976959E+00 0.15327940E+04</pdfrwt>
<pdfrwt beam="2">  1       -1 0.10712921E+00 0.15327940E+04</pdfrwt>
<totfact> 0.28672376E+01</totfact>
</mgrwt>
</event>
<event>
12    6  0.1553355E-007  0.2164011E+04  0.7818608E-02  0.8533559E-01
         -1   -1    0    0    0  501 -0.00000000000E+00  0.00000000000E+00  0.91994068652E+03  0.91994068652E+03  0.00000000000E+00 0.  1.
          2   -1    0    0  501    0  0.00000000000E+00 -0.00000000000E+00 -0.12726209115E+04  0.12726209115E+04  0.00000000000E+00 0. -1.
         24    2    1    2    0    0  0.63767226389E+03  0.61911984069E+03 -0.19769992413E+03  0.91397384534E+03  0.79546443661E+02 0.  0.
        254    2    1    2    0    0 -0.63767226389E+03 -0.61911984069E+03 -0.15498030080E+03  0.12785877526E+04  0.90599804321E+03 0.  0.
         23    2    4    4    0    0  0.20984783807E+03 -0.20110276916E+03  0.47210258357E+02  0.30792444579E+03  0.90056742768E+02 0.  0.
         23    2    4    4    0    0 -0.84752010195E+03 -0.41801707152E+03 -0.20219055916E+03  0.97066330685E+03  0.90981524197E+02 0.  0.
          2    1    3    3  502    0  0.53873327523E+03  0.55884774007E+03 -0.17920888121E+03  0.79665561036E+03  0.00000000000E+00 0. -1.
         -1    1    3    3    0  502  0.98938988655E+02  0.60272100618E+02 -0.18491042922E+02  0.11731823497E+03  0.00000000000E+00 0.  1.
         11    1    5    5    0    0  0.15812443387E+03 -0.11410592638E+03 -0.28336135718E+01  0.19501673874E+03  0.00000000000E+00 0. -1.
        -11    1    5    5    0    0  0.51723404200E+02 -0.86996842779E+02  0.50043871929E+02  0.11290770706E+03  0.00000000000E+00 0.  1.
          1    1    6    6  503    0 -0.45817893050E+03 -0.18821908142E+03 -0.13666637330E+03  0.51384049330E+03  0.00000000000E+00 0. -1.
         -1    1    6    6    0  503 -0.38934117146E+03 -0.22979799010E+03 -0.65524185862E+02  0.45682281355E+03  0.00000000000E+00 0.  1.
<mgrwt>
<rscale>  0 0.21640109E+04</rscale>
<asrwt>0</asrwt>
<pdfrwt beam="1">  1        2 0.19578783E+00 0.21640109E+04</pdfrwt>
<pdfrwt beam="2">  1       -1 0.14152934E+00 0.21640109E+04</pdfrwt>
<totfact> 0.73022237E+00</totfact>
</mgrwt>
</event>
<event>
12    6  0.1553355E-007  0.1576719E+04  0.7818608E-02  0.8834979E-01
         -1   -1    0    0    0  501 -0.00000000000E+00  0.00000000000E+00  0.85338196351E+03  0.85338196351E+03  0.00000000000E+00 0.  1.
          2   -1    0    0  501    0  0.00000000000E+00 -0.00000000000E+00 -0.72829167487E+03  0.72829167487E+03  0.00000000000E+00 0. -1.
         24    2    1    2    0    0 -0.24956924492E+03 -0.11996671933E+03 -0.40951690889E+03  0.50085139102E+03  0.80443740999E+02 0.  0.
        254    2    1    2    0    0  0.24956924492E+03  0.11996671933E+03  0.53460719752E+03  0.10808222474E+04  0.89760517656E+03 0.  0.
         23    2    4    4    0    0  0.43578289194E+03  0.35103998103E+03  0.52180380268E+03  0.77040671084E+03  0.90063835329E+02 0.  0.
         23    2    4    4    0    0 -0.18621364702E+03 -0.23107326170E+03  0.12803394846E+02  0.31041553652E+03  0.90130481979E+02 0.  0.
          2    1    3    3  502    0 -0.83017958691E+02 -0.60087297273E+02 -0.93893185823E+02  0.13899062955E+03  0.00000000000E+00 0. -1.
         -1    1    3    3    0  502 -0.16655128623E+03 -0.59879422054E+02 -0.31562372307E+03  0.36186076147E+03  0.00000000000E+00 0.  1.
         11    1    5    5    0    0  0.37028431854E+03  0.32458547421E+03  0.48327735543E+03  0.68994435202E+03  0.00000000000E+00 0.  1.
        -11    1    5    5    0    0  0.65498573401E+02  0.26454506817E+02  0.38526447252E+02  0.80462358816E+02  0.00000000000E+00 0. -1.
          3    1    6    6  503    0  0.29795127749E+01 -0.16270976013E+02  0.17574178545E+02  0.24134496231E+02  0.00000000000E+00 0. -1.
         -3    1    6    6    0  503 -0.18919315980E+03 -0.21480228569E+03 -0.47707836989E+01  0.28628104028E+03  0.00000000000E+00 0.  1.
<mgrwt>
<rscale>  0 0.15767194E+04</rscale>
<asrwt>0</asrwt>
<pdfrwt beam="1">  1        2 0.11204487E+00 0.15767194E+04</pdfrwt>
<pdfrwt beam="2">  1       -1 0.13128953E+00 0.15767194E+04</pdfrwt>
<totfact> 0.21139404E+01</totfact>
</mgrwt>
</event>
<event>
12    6  0.1553355E-007  0.1724145E+04  0.7818608E-02  0.8747712E-01
         -1   -1    0    0    0  501 -0.00000000000E+00  0.00000000000E+00  0.10416144590E+04  0.10416144590E+04  0.00000000000E+00 0.  1.
          2   -1    0    0  501    0  0.00000000000E+00 -0.00000000000E+00 -0.71347758395E+03  0.71347758395E+03  0.00000000000E+00 0. -1.
         24    2    1    2    0    0  0.46789968388E+03  0.37455796954E+03  0.29105002173E+03  0.67102022419E+03  0.79587935014E+02 0.  0.
        254    2    1    2    0    0 -0.46789968388E+03 -0.37455796954E+03  0.37086853276E+02  0.10840718187E+04  0.90255885499E+03 0.  0.
         23    2    4    4    0    0  0.16476256990E+03 -0.32766932444E+03 -0.16472173270E+03  0.41227424798E+03  0.91230015385E+02 0.  0.
         23    2    4    4    0    0 -0.63266225378E+03 -0.46888645105E+02  0.20180858597E+03  0.67179757073E+03  0.90139881732E+02 0.  0.
          2    1    3    3  502    0  0.14868479606E+03  0.12348309856E+03  0.13589207997E+03  0.23626659012E+03  0.00000000000E+00 0. -1.
         -1    1    3    3    0  502  0.31921488781E+03  0.25107487098E+03  0.15515794177E+03  0.43475363407E+03  0.00000000000E+00 0.  1.
         11    1    5    5    0    0  0.15934986786E+03 -0.32740605818E+03 -0.17240040102E+03  0.40287591836E+03  0.00000000000E+00 0. -1.
        -11    1    5    5    0    0  0.54127020426E+01 -0.26326625245E+00  0.76786683190E+01  0.93983296215E+01  0.00000000000E+00 0.  1.
          3    1    6    6  503    0 -0.29867089200E+03 -0.41064550696E+00  0.13621849259E+03  0.32826810397E+03  0.00000000000E+00 0. -1.
         -3    1    6    6    0  503 -0.33399136177E+03 -0.46477999598E+02  0.65590093380E+02  0.34352946676E+03  0.00000000000E+00 0.  1.
<mgrwt>
<rscale>  0 0.17241445E+04</rscale>
<asrwt>0</asrwt>
<pdfrwt beam="1">  1        2 0.10976578E+00 0.17241445E+04</pdfrwt>
<pdfrwt beam="2">  1       -1 0.16024838E+00 0.17241445E+04</pdfrwt>
<totfact> 0.12619770E+01</totfact>
</mgrwt>
</event>
<event>
12    6  0.1553355E-007  0.1090589E+04  0.7818608E-02  0.9214413E-01
          2   -1    0    0  501    0  0.00000000000E+00  0.00000000000E+00  0.28028089286E+04  0.28028089286E+04  0.00000000000E+00 0. -1.
         -1   -1    0    0    0  501 -0.00000000000E+00 -0.00000000000E+00 -0.10608859464E+03  0.10608859464E+03  0.00000000000E+00 0.  1.
         24    2    1    2    0    0 -0.79817581555E+01  0.14313789706E+03  0.50859789663E+03  0.53436907397E+03  0.79538171439E+02 0.  0.
        254    2    1    2    0    0  0.79817581555E+01 -0.14313789706E+03  0.21881224373E+04  0.23745284493E+04  0.91101777679E+03 0.  0.
         23    2    4    4    0    0 -0.17694077801E+03  0.18496310747E+03  0.17337029846E+03  0.32236263661E+03  0.91329179596E+02 0.  0.
         23    2    4    4    0    0  0.18492253617E+03 -0.32810100452E+03  0.20147521389E+04  0.20521658127E+04  0.10154667910E+03 0.  0.
          2    1    3    3  502    0  0.25413395022E+02  0.95737363569E+02  0.38962474490E+03  0.40201856333E+03  0.00000000000E+00 0. -1.
         -1    1    3    3    0  502 -0.33395153177E+02  0.47400533487E+02  0.11897315174E+03  0.13235051063E+03  0.00000000000E+00 0.  1.
         11    1    5    5    0    0 -0.75063964511E+02  0.21920918446E+02  0.36084366092E+02  0.86123207732E+02  0.00000000000E+00 0.  1.
        -11    1    5    5    0    0 -0.10187681350E+03  0.16304218902E+03  0.13728593237E+03  0.23623942888E+03  0.00000000000E+00 0. -1.
          4    1    6    6  503    0  0.19522841775E+03 -0.32526349049E+03  0.19635532932E+04  0.19998629974E+04  0.00000000000E+00 0. -1.
         -4    1    6    6    0  503 -0.10305881586E+02 -0.28375140315E+01  0.51198845680E+02  0.52302815221E+02  0.00000000000E+00 0.  1.
<mgrwt>
<rscale>  0 0.10905889E+04</rscale>
<asrwt>0</asrwt>
<pdfrwt beam="1">  1        2 0.43120132E+00 0.10905889E+04</pdfrwt>
<pdfrwt beam="2">  1       -1 0.16321324E-01 0.10905889E+04</pdfrwt>
<totfact> 0.75810125E+01</totfact>
</mgrwt>
</event>
<event>
12    6  0.1553355E-007  0.2299053E+04  0.7818608E-02  0.8478295E-01
          2   -1    0    0  501    0  0.00000000000E+00  0.00000000000E+00  0.59611945916E+03  0.59611945916E+03  0.00000000000E+00 0. -1.
         -1   -1    0    0    0  501 -0.00000000000E+00 -0.00000000000E+00 -0.22166889686E+04  0.22166889686E+04  0.00000000000E+00 0.  1.
         24    2    1    2    0    0  0.17022571147E+03 -0.68441277354E+03 -0.14930294202E+04  0.16535687510E+04  0.88063200396E+02 0.  0.
        254    2    1    2    0    0 -0.17022571147E+03  0.68441277354E+03 -0.12754008933E+03  0.11592396769E+04  0.91113803377E+03 0.  0.
         23    2    4    4    0    0 -0.33480378287E+03  0.46783959490E+02  0.21483634025E+03  0.41097079653E+03  0.91978424748E+02 0.  0.
         23    2    4    4    0    0  0.16457807140E+03  0.63762881405E+03 -0.34237642958E+03  0.74826888032E+03  0.95017112301E+02 0.  0.
          2    1    3    3  502    0  0.10906887559E+03 -0.42897599771E+03 -0.83513181525E+03  0.94517806527E+03  0.00000000000E+00 0. -1.
         -1    1    3    3    0  502  0.61156835873E+02 -0.25543677583E+03 -0.65789760491E+03  0.70839068569E+03  0.00000000000E+00 0.  1.
         11    1    5    5    0    0 -0.60308223389E+02  0.17694643449E+02  0.85564704674E+02  0.10616732502E+03  0.00000000000E+00 0. -1.
        -11    1    5    5    0    0 -0.27449555948E+03  0.29089316041E+02  0.12927163558E+03  0.30480347152E+03  0.00000000000E+00 0.  1.
          1    1    6    6  503    0  0.90444629942E+01  0.18472255150E+03 -0.72962793329E+02  0.19881597661E+03  0.00000000000E+00 0. -1.
         -1    1    6    6    0  503  0.15553360841E+03  0.45290626255E+03 -0.26941363625E+03  0.54945290372E+03  0.00000000000E+00 0.  1.
<mgrwt>
<rscale>  0 0.22990532E+04</rscale>
<asrwt>0</asrwt>
<pdfrwt beam="1">  1        2 0.91710688E-01 0.22990532E+04</pdfrwt>
<pdfrwt beam="2">  1       -1 0.34102907E+00 0.22990532E+04</pdfrwt>
<totfact> 0.92206944E-01</totfact>
</mgrwt>
</event>
<event>
12    6  0.1553355E-007  0.2519732E+04  0.7818608E-02  0.8395989E-01
         -1   -1    0    0    0  501 -0.00000000000E+00  0.00000000000E+00  0.40415755887E+03  0.40415755887E+03  0.00000000000E+00 0.  1.
          2   -1    0    0  501    0  0.00000000000E+00 -0.00000000000E+00 -0.39273363554E+04  0.39273363554E+04  0.00000000000E+00 0. -1.
         24    2    1    2    0    0 -0.87012370947E+03 -0.41181977034E+03 -0.24405653975E+04  0.26247170608E+04  0.77906333371E+02 0.  0.
        254    2    1    2    0    0  0.87012370947E+03  0.41181977034E+03 -0.10826133991E+04  0.17067768535E+04  0.90239939202E+03 0.  0.
         23    2    4    4    0    0  0.14973133463E+03 -0.18683404171E+03 -0.59395437458E+03  0.64660905771E+03  0.89415002768E+02 0.  0.
         23    2    4    4    0    0  0.72039237484E+03  0.59865381205E+03 -0.48865902448E+03  0.10601677958E+04  0.88411269464E+02 0.  0.
          2    1    3    3  502    0 -0.23130813927E+03 -0.14029456975E+03 -0.62817198444E+03  0.68394887501E+03  0.00000000000E+00 0. -1.
         -1    1    3    3    0  502 -0.63881557021E+03 -0.27152520060E+03 -0.18123934130E+04  0.19407681858E+04  0.00000000000E+00 0.  1.
         11    1    5    5    0    0  0.13843625560E+03 -0.11063819093E+03 -0.44316017500E+03  0.47728015553E+03  0.00000000000E+00 0. -1.
        -11    1    5    5    0    0  0.11295079024E+02 -0.76195850782E+02 -0.15079419958E+03  0.16932890218E+03  0.00000000000E+00 0.  1.
          1    1    6    6  503    0  0.10050309279E+03  0.52931511732E+02 -0.78271209267E+02  0.13794563710E+03  0.00000000000E+00 0. -1.
         -1    1    6    6    0  503  0.61988928206E+03  0.54572230032E+03 -0.41038781521E+03  0.92222215867E+03  0.00000000000E+00 0.  1.
<mgrwt>
<rscale>  0 0.25197323E+04</rscale>
<asrwt>0</asrwt>
<pdfrwt beam="1">  1        2 0.60420556E+00 0.25197323E+04</pdfrwt>
<pdfrwt beam="2">  1       -1 0.62178090E-01 0.25197323E+04</pdfrwt>
<totfact> 0.10422218E+00</totfact>
</mgrwt>
</event>
<event>
12    6  0.1553355E-007  0.2537734E+04  0.7818608E-02  0.8389664E-01
          2   -1    0    0  501    0  0.00000000000E+00  0.00000000000E+00  0.16472785315E+04  0.16472785315E+04  0.00000000000E+00 0. -1.
         -1   -1    0    0    0  501 -0.00000000000E+00 -0.00000000000E+00 -0.97738424435E+03  0.97738424435E+03  0.00000000000E+00 0.  1.
         24    2    1    2    0    0 -0.33622321305E+03 -0.87347249997E+03 -0.31085244325E+03  0.98944430879E+03  0.79815672150E+02 0.  0.
        254    2    1    2    0    0  0.33622321305E+03  0.87347249997E+03  0.98074673041E+03  0.16352184671E+04  0.91437138440E+03 0.  0.
         23    2    4    4    0    0  0.52511234996E+03  0.17537069654E+03  0.56447502107E+03  0.79566692037E+03  0.89196061974E+02 0.  0.
         23    2    4    4    0    0 -0.18888913691E+03  0.69810180344E+03  0.41627170934E+03  0.83955154669E+03  0.92409033953E+02 0.  0.
          4    1    3    3  502    0 -0.13367875806E+03 -0.35706815177E+03 -0.16797967300E+03  0.41663514723E+03  0.00000000000E+00 0. -1.
         -3    1    3    3    0  502 -0.20254445499E+03 -0.51640434821E+03 -0.14287277025E+03  0.57280916157E+03  0.00000000000E+00 0.  1.
         11    1    5    5    0    0  0.45658980696E+02  0.34414293640E+02  0.32465556612E+02  0.65750273696E+02  0.00000000000E+00 0.  1.
        -11    1    5    5    0    0  0.47945336927E+03  0.14095640290E+03  0.53200946446E+03  0.72991664668E+03  0.00000000000E+00 0. -1.
          1    1    6    6  503    0 -0.93993316059E+02  0.37448096760E+03  0.16951518578E+03  0.42167064964E+03  0.00000000000E+00 0. -1.
         -1    1    6    6    0  503 -0.94895820852E+02  0.32362083584E+03  0.24675652356E+03  0.41788089705E+03  0.00000000000E+00 0.  1.
<mgrwt>
<rscale>  0 0.25377345E+04</rscale>
<asrwt>0</asrwt>
<pdfrwt beam="1">  1        2 0.25342747E+00 0.25377345E+04</pdfrwt>
<pdfrwt beam="2">  1       -1 0.15036681E+00 0.25377345E+04</pdfrwt>
<totfact> 0.36821555E+00</totfact>
</mgrwt>
</event>
<event>
12    6  0.1553355E-007  0.1467691E+04  0.7818608E-02  0.8906227E-01
         -1   -1    0    0    0  501 -0.00000000000E+00  0.00000000000E+00  0.55176331925E+03  0.55176331925E+03  0.00000000000E+00 0.  1.
          2   -1    0    0  501    0  0.00000000000E+00 -0.00000000000E+00 -0.97601456984E+03  0.97601456984E+03  0.00000000000E+00 0. -1.
         24    2    1    2    0    0  0.18932887883E+02 -0.18985795913E+03 -0.55163198390E+03  0.58906600316E+03  0.79349930842E+02 0.  0.
        254    2    1    2    0    0 -0.18932887883E+02  0.18985795913E+03  0.12738073331E+03  0.93871188594E+03  0.91024702949E+03 0.  0.
         23    2    4    4    0    0  0.24275713661E+03  0.31707825160E+03  0.36832445252E+03  0.55100225073E+03  0.92037671475E+02 0.  0.
         23    2    4    4    0    0 -0.26169002449E+03 -0.12722029247E+03 -0.24094371921E+03  0.38770963521E+03  0.87167732963E+02 0.  0.
          2    1    3    3  502    0 -0.15794582178E+02 -0.15961765234E+03 -0.43898580924E+03  0.46737116351E+03  0.00000000000E+00 0. -1.
         -1    1    3    3    0  502  0.34727470060E+02 -0.30240306791E+02 -0.11264617466E+03  0.12169483965E+03  0.00000000000E+00 0.  1.
         11    1    5    5    0    0  0.20445009952E+03  0.26129473252E+03  0.25277955776E+03  0.41709985046E+03  0.00000000000E+00 0.  1.
        -11    1    5    5    0    0  0.38307037094E+02  0.55783519081E+02  0.11554489476E+03  0.13390240027E+03  0.00000000000E+00 0. -1.
          4    1    6    6  503    0 -0.15139214589E+03 -0.10110220701E+03 -0.10298266144E+03  0.20915703827E+03  0.00000000000E+00 0. -1.
         -4    1    6    6    0  503 -0.11029787860E+03 -0.26118085459E+02 -0.13796105777E+03  0.17855259694E+03  0.00000000000E+00 0.  1.
<mgrwt>
<rscale>  0 0.14676908E+04</rscale>
<asrwt>0</asrwt>
<pdfrwt beam="1">  1        2 0.15015609E+00 0.14676908E+04</pdfrwt>
<pdfrwt beam="2">  1       -1 0.84886666E-01 0.14676908E+04</pdfrwt>
<totfact> 0.39620896E+01</totfact>
</mgrwt>
</event>
<event>
12    6  0.1553355E-007  0.2263584E+04  0.7818608E-02  0.8492419E-01
         -1   -1    0    0    0  501 -0.00000000000E+00  0.00000000000E+00  0.54034158194E+03  0.54034158194E+03  0.00000000000E+00 0.  1.
          2   -1    0    0  501    0  0.00000000000E+00 -0.00000000000E+00 -0.23706358960E+04  0.23706358960E+04  0.00000000000E+00 0. -1.
         24    2    1    2    0    0 -0.76398169485E+03 -0.37479580366E+03 -0.13164555762E+04  0.15696287321E+04  0.80864999107E+02 0.  0.
        254    2    1    2    0    0  0.76398169485E+03  0.37479580366E+03 -0.51383873790E+03  0.13413487459E+04  0.90058108183E+03 0.  0.
         23    2    4    4    0    0 -0.84263918887E+02  0.10170031630E+03 -0.40699078213E+03  0.43899724344E+03  0.98151518846E+02 0.  0.
         23    2    4    4    0    0  0.84824561374E+03  0.27309548736E+03 -0.10684795577E+03  0.90235150242E+03  0.93380842859E+02 0.  0.
          2    1    3    3  502    0 -0.75215003689E+03 -0.37879042202E+03 -0.13006625965E+04  0.15494950957E+04  0.00000000000E+00 0. -1.
         -1    1    3    3    0  502 -0.11831657967E+02  0.39946183557E+01 -0.15792979729E+02  0.20133636403E+02  0.00000000000E+00 0.  1.
         11    1    5    5    0    0 -0.72745827827E+02  0.17306911790E+02 -0.24242326426E+03  0.25369375971E+03  0.00000000000E+00 0.  1.
        -11    1    5    5    0    0 -0.11518091061E+02  0.84393404505E+02 -0.16456751787E+03  0.18530348373E+03  0.00000000000E+00 0. -1.
          4    1    6    6  503    0  0.61695718601E+02  0.34030217810E+02  0.12799612096E+02  0.71611783163E+02  0.00000000000E+00 0. -1.
         -4    1    6    6    0  503  0.78654989514E+03  0.23906526955E+03 -0.11964756786E+03  0.83073971925E+03  0.00000000000E+00 0.  1.
<mgrwt>
<rscale>  0 0.22635840E+04</rscale>
<asrwt>0</asrwt>
<pdfrwt beam="1">  1        2 0.36471322E+00 0.22635840E+04</pdfrwt>
<pdfrwt beam="2">  1       -1 0.83129473E-01 0.22635840E+04</pdfrwt>
<totfact> 0.61423157E+00</totfact>
</mgrwt>
</event>
<event>
12    6  0.1553355E-007  0.1999404E+04  0.7818608E-02  0.8606899E-01
          2   -1    0    0  501    0  0.00000000000E+00  0.00000000000E+00  0.14331262848E+04  0.14331262848E+04  0.00000000000E+00 0. -1.
         -1   -1    0    0    0  501 -0.00000000000E+00 -0.00000000000E+00 -0.69735931378E+03  0.69735931378E+03  0.00000000000E+00 0.  1.
         24    2    1    2    0    0  0.62504841197E+03 -0.43562312866E+03  0.47117757560E+02  0.76735446080E+03  0.78484125161E+02 0.  0.
        254    2    1    2    0    0 -0.62504841197E+03  0.43562312866E+03  0.68864921346E+03  0.13631311378E+04  0.89634576593E+03 0.  0.
         23    2    4    4    0    0 -0.65914695164E+03  0.60773052883E+02  0.12619393651E+03  0.67989363498E+03  0.90345876844E+02 0.  0.
         23    2    4    4    0    0  0.34098539669E+02  0.37485007577E+03  0.56245527695E+03  0.68323750281E+03  0.93713696792E+02 0.  0.
          4    1    3    3  502    0  0.41760234020E+03 -0.31913567018E+03  0.60551529778E+02  0.52906122357E+03  0.00000000000E+00 0. -1.
         -3    1    3    3    0  502  0.20744607177E+03 -0.11648745848E+03 -0.13433772218E+02  0.23829323723E+03  0.00000000000E+00 0.  1.
         11    1    5    5    0    0 -0.43028627970E+03  0.94291173138E+01  0.11298404690E+03  0.44497256725E+03  0.00000000000E+00 0. -1.
        -11    1    5    5    0    0 -0.22886067194E+03  0.51343935569E+02  0.13209889613E+02  0.23492106773E+03  0.00000000000E+00 0.  1.
          3    1    6    6  503    0  0.19672099298E+02  0.30885135405E+03  0.38898740938E+03  0.49707882177E+03  0.00000000000E+00 0. -1.
         -3    1    6    6    0  503  0.14426440370E+02  0.65998721720E+02  0.17346786756E+03  0.18615868104E+03  0.00000000000E+00 0.  1.
<mgrwt>
<rscale>  0 0.19994039E+04</rscale>
<asrwt>0</asrwt>
<pdfrwt beam="1">  1        2 0.22048097E+00 0.19994039E+04</pdfrwt>
<pdfrwt beam="2">  1       -1 0.10728605E+00 0.19994039E+04</pdfrwt>
<totfact> 0.11873479E+01</totfact>
</mgrwt>
</event>
<event>
12    6  0.1553355E-007  0.2743900E+04  0.7818608E-02  0.8320900E-01
          2   -1    0    0  501    0  0.00000000000E+00  0.00000000000E+00  0.25010784758E+04  0.25010784758E+04  0.00000000000E+00 0. -1.
         -1   -1    0    0    0  501 -0.00000000000E+00 -0.00000000000E+00 -0.75257416665E+03  0.75257416665E+03  0.00000000000E+00 0.  1.
         24    2    1    2    0    0  0.10823237504E+04 -0.27584054392E+03  0.18460638571E+03  0.11348718182E+04  0.79635543664E+02 0.  0.
        254    2    1    2    0    0 -0.10823237504E+04  0.27584054392E+03  0.15638979234E+04  0.21187808242E+04  0.89215624171E+03 0.  0.
         23    2    4    4    0    0 -0.73349525746E+03 -0.24322614803E+03  0.10328824509E+04  0.12932961149E+04  0.92706157647E+02 0.  0.
         23    2    4    4    0    0 -0.34882849296E+03  0.51906669195E+03  0.53101547251E+03  0.82548470926E+03  0.91301834511E+02 0.  0.
          2    1    3    3  502    0  0.65976729690E+01  0.66444887725E+00  0.77261154732E+01  0.10181534326E+02  0.00000000000E+00 0. -1.
         -1    1    3    3    0  502  0.10757260774E+04 -0.27650499280E+03  0.17688027023E+03  0.11246902839E+04  0.00000000000E+00 0.  1.
         11    1    5    5    0    0 -0.19051701827E+03 -0.83862954007E+02  0.22029158504E+03  0.30308103165E+03  0.00000000000E+00 0.  1.
        -11    1    5    5    0    0 -0.54297823919E+03 -0.15936319402E+03  0.81259086585E+03  0.99021508325E+03  0.00000000000E+00 0. -1.
          1    1    6    6  503    0 -0.26054695353E+03  0.43524163293E+03  0.39479701795E+03  0.64279443013E+03  0.00000000000E+00 0. -1.
         -1    1    6    6    0  503 -0.88281539431E+02  0.83825059016E+02  0.13621845457E+03  0.18269027913E+03  0.00000000000E+00 0.  1.
<mgrwt>
<rscale>  0 0.27439002E+04</rscale>
<asrwt>0</asrwt>
<pdfrwt beam="1">  1        2 0.38478130E+00 0.27439002E+04</pdfrwt>
<pdfrwt beam="2">  1       -1 0.11578064E+00 0.27439002E+04</pdfrwt>
<totfact> 0.23325073E+00</totfact>
</mgrwt>
</event>
<event>
12    6  0.1553355E-007  0.1901167E+04  0.7818608E-02  0.8654275E-01
         -1   -1    0    0    0  501 -0.00000000000E+00  0.00000000000E+00  0.61140428119E+03  0.61140428119E+03  0.00000000000E+00 0.  1.
          2   -1    0    0  501    0  0.00000000000E+00 -0.00000000000E+00 -0.14779246575E+04  0.14779246575E+04  0.00000000000E+00 0. -1.
         24    2    1    2    0    0  0.20676868595E+03 -0.49097795073E+03  0.22115759017E+03  0.58240232666E+03  0.80431043825E+02 0.  0.
        254    2    1    2    0    0 -0.20676868595E+03  0.49097795073E+03 -0.10876779664E+04  0.15069266120E+04  0.89664475555E+03 0.  0.
         23    2    4    4    0    0 -0.51364775234E+03  0.39268396319E+03 -0.93098408676E+03  0.11370636360E+04  0.90264246233E+02 0.  0.
         23    2    4    4    0    0  0.30687906639E+03  0.98293987542E+02 -0.15669387968E+03  0.36986297596E+03  0.91701579515E+02 0.  0.
          2    1    3    3  502    0  0.14317350089E+03 -0.28528437936E+03  0.95779044237E+02  0.33325583833E+03  0.00000000000E+00 0. -1.
         -1    1    3    3    0  502  0.63595185060E+02 -0.20569357137E+03  0.12537854593E+03  0.24914648833E+03  0.00000000000E+00 0.  1.
         11    1    5    5    0    0 -0.48072497686E+03  0.33449698750E+03 -0.84607067478E+03  0.10289899537E+04  0.00000000000E+00 0.  1.
        -11    1    5    5    0    0 -0.32922775478E+02  0.58186975689E+02 -0.84913411980E+02  0.10807368236E+03  0.00000000000E+00 0. -1.
          3    1    6    6  503    0  0.93110496074E+01  0.43467692248E+01 -0.32370862903E+02  0.33962667925E+02  0.00000000000E+00 0. -1.
         -3    1    6    6    0  503  0.29756801678E+03  0.93947218317E+02 -0.12432301678E+03  0.33590030804E+03  0.00000000000E+00 0.  1.
<mgrwt>
<rscale>  0 0.19011675E+04</rscale>
<asrwt>0</asrwt>
<pdfrwt beam="1">  1        2 0.22737302E+00 0.19011675E+04</pdfrwt>
<pdfrwt beam="2">  1       -1 0.94062198E-01 0.19011675E+04</pdfrwt>
<totfact> 0.15263829E+01</totfact>
</mgrwt>
</event>
<event>
12    6  0.1553355E-007  0.1369461E+04  0.7818608E-02  0.8976226E-01
         -1   -1    0    0    0  501 -0.00000000000E+00  0.00000000000E+00  0.13051236815E+03  0.13051236815E+03  0.00000000000E+00 0.  1.
          2   -1    0    0  501    0  0.00000000000E+00 -0.00000000000E+00 -0.35924258660E+04  0.35924258660E+04  0.00000000000E+00 0. -1.
         24    2    1    2    0    0 -0.31046773553E+03 -0.10719744194E+03 -0.44214421019E+03  0.55640463510E+03  0.78823276934E+02 0.  0.
        254    2    1    2    0    0  0.31046773553E+03  0.10719744194E+03 -0.30197692877E+04  0.31665335991E+04  0.89445345147E+03 0.  0.
         23    2    4    4    0    0 -0.77065916974E+02  0.27524198584E+03 -0.23503995640E+04  0.23697940346E+04  0.99238851246E+02 0.  0.
         23    2    4    4    0    0  0.38753365251E+03 -0.16804454390E+03 -0.66936972368E+03  0.79673956447E+03  0.91196524387E+02 0.  0.
          4    1    3    3  502    0 -0.23098733235E+03 -0.78429334438E+02 -0.26533092593E+03  0.36042587096E+03  0.00000000000E+00 0. -1.
         -3    1    3    3    0  502 -0.79480403186E+02 -0.28768107500E+02 -0.17681328426E+03  0.19597876413E+03  0.00000000000E+00 0.  1.
         11    1    5    5    0    0 -0.63927693855E+02  0.19078519896E+03 -0.19511763074E+04  0.19615235723E+04  0.00000000000E+00 0. -1.
        -11    1    5    5    0    0 -0.13138223119E+02  0.84456786882E+02 -0.39922325663E+03  0.40827046231E+03  0.00000000000E+00 0.  1.
          3    1    6    6  503    0  0.30694321731E+03 -0.15501555226E+03 -0.47941638724E+03  0.58998646802E+03  0.00000000000E+00 0. -1.
         -3    1    6    6    0  503  0.80590435200E+02 -0.13028991640E+02 -0.18995333643E+03  0.20675309645E+03  0.00000000000E+00 0.  1.
<mgrwt>
<rscale>  0 0.13694612E+04</rscale>
<asrwt>0</asrwt>
<pdfrwt beam="1">  1        2 0.55268098E+00 0.13694612E+04</pdfrwt>
<pdfrwt beam="2">  1       -1 0.20078823E-01 0.13694612E+04</pdfrwt>
<totfact> 0.16102007E+01</totfact>
</mgrwt>
</event>
<event>
12    6  0.1553355E-007  0.2938073E+04  0.7818608E-02  0.8261639E-01
         -1   -1    0    0    0  501 -0.00000000000E+00  0.00000000000E+00  0.69656428794E+03  0.69656428794E+03  0.00000000000E+00 0.  1.
          2   -1    0    0  501    0  0.00000000000E+00 -0.00000000000E+00 -0.30981600582E+04  0.30981600582E+04  0.00000000000E+00 0. -1.
         24    2    1    2    0    0  0.48009819333E+03  0.10499194888E+04 -0.19396992760E+04  0.22586907612E+04  0.80159000105E+02 0.  0.
        254    2    1    2    0    0 -0.48009819333E+03 -0.10499194888E+04 -0.46189649425E+03  0.15360335849E+04  0.90179021633E+03 0.  0.
         23    2    4    4    0    0 -0.48332931006E+02 -0.30816733372E+03 -0.58012370582E+03  0.66489089828E+03  0.90737063924E+02 0.  0.
         23    2    4    4    0    0 -0.43176526233E+03 -0.74175215511E+03  0.11822721156E+03  0.87114268662E+03  0.91073626998E+02 0.  0.
          2    1    3    3  502    0  0.11116223564E+03  0.18716817856E+03 -0.32558762733E+03  0.39165836231E+03  0.00000000000E+00 0. -1.
         -1    1    3    3    0  502  0.36893595769E+03  0.86275131027E+03 -0.16141116486E+04  0.18670323989E+04  0.00000000000E+00 0.  1.
         11    1    5    5    0    0 -0.54619153343E+02 -0.18508011041E+03 -0.27625271068E+03  0.33697694186E+03  0.00000000000E+00 0.  1.
        -11    1    5    5    0    0  0.62862223377E+01 -0.12308722331E+03 -0.30387099513E+03  0.32791395642E+03  0.00000000000E+00 0. -1.
          4    1    6    6  503    0 -0.17306520140E+03 -0.34497605257E+03  0.91924974079E+02  0.39674959564E+03  0.00000000000E+00 0. -1.
         -4    1    6    6    0  503 -0.25870006093E+03 -0.39677610254E+03  0.26302237482E+02  0.47439309098E+03  0.00000000000E+00 0.  1.
<mgrwt>
<rscale>  0 0.29380726E+04</rscale>
<asrwt>0</asrwt>
<pdfrwt beam="1">  1        2 0.47664001E+00 0.29380726E+04</pdfrwt>
<pdfrwt beam="2">  1       -1 0.10716374E+00 0.29380726E+04</pdfrwt>
<totfact> 0.11966051E+00</totfact>
</mgrwt>
</event>
<event>
12    6  0.1553355E-007  0.2103229E+04  0.7818608E-02  0.8559822E-01
          2   -1    0    0  501    0  0.00000000000E+00  0.00000000000E+00  0.10099267897E+04  0.10099267897E+04  0.00000000000E+00 0. -1.
         -3   -1    0    0    0  501 -0.00000000000E+00 -0.00000000000E+00 -0.10950234118E+04  0.10950234118E+04  0.00000000000E+00 0.  1.
         24    2    1    2    0    0  0.14919579137E+03 -0.78805809009E+03  0.22897252464E+03  0.83795734505E+03  0.80306647017E+02 0.  0.
        254    2    1    2    0    0 -0.14919579137E+03  0.78805809009E+03 -0.31406914680E+03  0.12669928564E+04  0.92915904547E+03 0.  0.
         23    2    4    4    0    0 -0.43035072539E+03  0.71919299610E+03 -0.18382857096E+02  0.84349309827E+03  0.93286466898E+02 0.  0.
         23    2    4    4    0    0  0.28115493402E+03  0.68865093995E+02 -0.29568628970E+03  0.42349975817E+03  0.90172973533E+02 0.  0.
          4    1    3    3  502    0  0.74022639557E+02 -0.30201522068E+03  0.52044990957E+02  0.31527959936E+03  0.00000000000E+00 0. -1.
         -3    1    3    3    0  502  0.75173151812E+02 -0.48604286941E+03  0.17692753368E+03  0.52267774568E+03  0.00000000000E+00 0.  1.
         11    1    5    5    0    0 -0.21245674323E+03  0.44441567080E+03 -0.79494332147E+01  0.49265236190E+03  0.00000000000E+00 0.  1.
        -11    1    5    5    0    0 -0.21789398217E+03  0.27477732530E+03 -0.10433423881E+02  0.35084073637E+03  0.00000000000E+00 0. -1.
          4    1    6    6  503    0  0.23236836259E+03  0.61612087972E+02 -0.18842776252E+03  0.30544414711E+03  0.00000000000E+00 0. -1.
         -4    1    6    6    0  503  0.48786571432E+02  0.72530060227E+01 -0.10725852719E+03  0.11805561106E+03  0.00000000000E+00 0.  1.
<mgrwt>
<rscale>  0 0.21032294E+04</rscale>
<asrwt>0</asrwt>
<pdfrwt beam="1">  1        2 0.15537335E+00 0.21032294E+04</pdfrwt>
<pdfrwt beam="2">  1       -3 0.16846514E+00 0.21032294E+04</pdfrwt>
<totfact> 0.34192185E+00</totfact>
</mgrwt>
</event>
<event>
12    6  0.1553355E-007  0.1914251E+04  0.7818608E-02  0.8647795E-01
          2   -1    0    0  501    0  0.00000000000E+00  0.00000000000E+00  0.12678760976E+04  0.12678760976E+04  0.00000000000E+00 0. -1.
         -1   -1    0    0    0  501 -0.00000000000E+00 -0.00000000000E+00 -0.72253880893E+03  0.72253880893E+03  0.00000000000E+00 0.  1.
         24    2    1    2    0    0  0.15123624520E+02 -0.24859079815E+03  0.92896775994E+03  0.96488857350E+03  0.77477424603E+02 0.  0.
        254    2    1    2    0    0 -0.15123624520E+02  0.24859079815E+03 -0.38363047122E+03  0.10255263331E+04  0.91788115376E+03 0.  0.
         23    2    4    4    0    0  0.25351155414E+03  0.13599483044E+03 -0.58612142765E+03  0.65927974650E+03  0.91371517503E+02 0.  0.
         23    2    4    4    0    0 -0.26863517866E+03  0.11259596771E+03  0.20249095643E+03  0.36624658657E+03  0.91056375841E+02 0.  0.
          4    1    3    3  502    0 -0.24789988968E+02 -0.12041180893E+03  0.52482641041E+03  0.53903275257E+03  0.00000000000E+00 0. -1.
         -3    1    3    3    0  502  0.39913613489E+02 -0.12817898922E+03  0.40414134953E+03  0.42585582093E+03  0.00000000000E+00 0.  1.
         11    1    5    5    0    0  0.12077304206E+03  0.15664022761E+02 -0.21254458103E+03  0.24496262618E+03  0.00000000000E+00 0. -1.
        -11    1    5    5    0    0  0.13273851207E+03  0.12033080768E+03 -0.37357684662E+03  0.41431712032E+03  0.00000000000E+00 0.  1.
          3    1    6    6  503    0 -0.73638779444E+02  0.25661490480E+02  0.96973121634E+01  0.78582566737E+02  0.00000000000E+00 0. -1.
         -3    1    6    6    0  503 -0.19499639921E+03  0.86934477230E+02  0.19279364426E+03  0.28766401983E+03  0.00000000000E+00 0.  1.
<mgrwt>
<rscale>  0 0.19142515E+04</rscale>
<asrwt>0</asrwt>
<pdfrwt beam="1">  1        2 0.19505786E+00 0.19142515E+04</pdfrwt>
<pdfrwt beam="2">  1       -1 0.11115982E+00 0.19142515E+04</pdfrwt>
<totfact> 0.13707122E+01</totfact>
</mgrwt>
</event>
<event>
12    6  0.1553355E-007  0.1548128E+04  0.7818608E-02  0.8853064E-01
          2   -1    0    0  501    0  0.00000000000E+00  0.00000000000E+00  0.13841483060E+04  0.13841483060E+04  0.00000000000E+00 0. -1.
         -1   -1    0    0    0  501 -0.00000000000E+00 -0.00000000000E+00 -0.43288364112E+03  0.43288364112E+03  0.00000000000E+00 0.  1.
         24    2    1    2    0    0 -0.30568779429E+03 -0.40675911396E+03  0.25590591503E+03  0.57493925629E+03  0.78544934328E+02 0.  0.
        254    2    1    2    0    0  0.30568779429E+03  0.40675911396E+03  0.69535874983E+03  0.12420926908E+04  0.89463537670E+03 0.  0.
         23    2    4    4    0    0 -0.27983373900E+02  0.15684154036E+03  0.78469458088E+03  0.80589026116E+03  0.91275351415E+02 0.  0.
         23    2    4    4    0    0  0.33367116819E+03  0.24991757360E+03 -0.89335831051E+02  0.43620242965E+03  0.92176064408E+02 0.  0.
          4    1    3    3  502    0 -0.66894651440E+02 -0.43769267143E+02  0.31562921716E+02  0.85946850814E+02  0.00000000000E+00 0. -1.
         -3    1    3    3    0  502 -0.23879314285E+03 -0.36298984682E+03  0.22434299332E+03  0.48899240548E+03  0.00000000000E+00 0.  1.
         11    1    5    5    0    0 -0.28927176994E+02  0.12751877742E+02  0.69894604326E+02  0.76711457219E+02  0.00000000000E+00 0. -1.
        -11    1    5    5    0    0  0.94380309471E+00  0.14408966262E+03  0.71479997656E+03  0.72917880394E+03  0.00000000000E+00 0.  1.
          2    1    6    6  503    0  0.14926144900E+02  0.85670030685E+01  0.15189374968E+02  0.22954312341E+02  0.00000000000E+00 0. -1.
         -2    1    6    6    0  503  0.31874502329E+03  0.24135057053E+03 -0.10452520602E+03  0.41324811731E+03  0.00000000000E+00 0.  1.
<mgrwt>
<rscale>  0 0.15481281E+04</rscale>
<asrwt>0</asrwt>
<pdfrwt beam="1">  1        2 0.21294589E+00 0.15481281E+04</pdfrwt>
<pdfrwt beam="2">  1       -1 0.66597484E-01 0.15481281E+04</pdfrwt>
<totfact> 0.37040916E+01</totfact>
</mgrwt>
</event>
<event>
12    6  0.1553355E-007  0.1209649E+04  0.7818608E-02  0.9104452E-01
          2   -1    0    0  501    0  0.00000000000E+00  0.00000000000E+00  0.19936877024E+04  0.19936877024E+04  0.00000000000E+00 0. -1.
         -1   -1    0    0    0  501 -0.00000000000E+00 -0.00000000000E+00 -0.18348554980E+03  0.18348554980E+03  0.00000000000E+00 0.  1.
         24    2    1    2    0    0 -0.10476813384E+03  0.13080638728E+03  0.43805978095E+02  0.18987300037E+03  0.77756798622E+02 0.  0.
        254    2    1    2    0    0  0.10476813384E+03 -0.13080638728E+03  0.17663961745E+04  0.19873002518E+04  0.89505316759E+03 0.  0.
         23    2    4    4    0    0  0.19160087085E+03  0.23317164661E+02  0.35499709635E+01  0.21322147724E+03  0.90532934249E+02 0.  0.
         23    2    4    4    0    0 -0.86832737012E+02 -0.15412355194E+03  0.17628462035E+04  0.17740787746E+04  0.91840991065E+02 0.  0.
          2    1    3    3  502    0 -0.76592314246E+01  0.39869158827E+02 -0.16474166221E+02  0.43813374719E+02  0.00000000000E+00 0. -1.
         -1    1    3    3    0  502 -0.97108902418E+02  0.90937228448E+02  0.60280144316E+02  0.14605962565E+03  0.00000000000E+00 0.  1.
         11    1    5    5    0    0  0.19589349882E+03  0.10004680706E+02 -0.60742274596E+01  0.19624284128E+03  0.00000000000E+00 0.  1.
        -11    1    5    5    0    0 -0.42926279621E+01  0.13312483954E+02  0.96241984231E+01  0.16978635962E+02  0.00000000000E+00 0. -1.
          3    1    6    6  503    0 -0.58233039055E+02 -0.15827745221E+03  0.15780512266E+04  0.15870376531E+04  0.00000000000E+00 0.  1.
         -3    1    6    6    0  503 -0.28599697958E+02  0.41539002732E+01  0.18479497694E+03  0.18704112145E+03  0.00000000000E+00 0. -1.
<mgrwt>
<rscale>  0 0.12096493E+04</rscale>
<asrwt>0</asrwt>
<pdfrwt beam="1">  1        2 0.30672117E+00 0.12096493E+04</pdfrwt>
<pdfrwt beam="2">  1       -1 0.28228547E-01 0.12096493E+04</pdfrwt>
<totfact> 0.85996358E+01</totfact>
</mgrwt>
</event>
<event>
12    6  0.1553355E-007  0.1204390E+04  0.7818608E-02  0.9109022E-01
          4   -1    0    0  501    0  0.00000000000E+00  0.00000000000E+00  0.13476726902E+03  0.13476726902E+03  0.00000000000E+00 0. -1.
         -3   -1    0    0    0  501 -0.00000000000E+00 -0.00000000000E+00 -0.26908536386E+04  0.26908536386E+04  0.00000000000E+00 0.  1.
         24    2    1    2    0    0  0.56841485700E+02  0.22570299484E+03 -0.83092914793E+03  0.86657434032E+03  0.79592977345E+02 0.  0.
        254    2    1    2    0    0 -0.56841485700E+02 -0.22570299484E+03 -0.17251572216E+04  0.19590465673E+04  0.89862295601E+03 0.  0.
         23    2    4    4    0    0 -0.28207919380E+03  0.25444145635E+03 -0.73445609509E+03  0.83194575447E+03  0.91645275331E+02 0.  0.
         23    2    4    4    0    0  0.22523770810E+03 -0.48014445118E+03 -0.99070112653E+03  0.11271008128E+04  0.87159629165E+02 0.  0.
          4    1    3    3  502    0  0.25000363720E+02  0.18065933917E+02 -0.59037033385E+02  0.66609064439E+02  0.00000000000E+00 0. -1.
         -3    1    3    3    0  502  0.31841121980E+02  0.20763706092E+03 -0.77189211454E+03  0.79996527588E+03  0.00000000000E+00 0.  1.
         11    1    5    5    0    0 -0.22378383078E+03  0.14488741503E+03 -0.49289984115E+03  0.56037649787E+03  0.00000000000E+00 0. -1.
        -11    1    5    5    0    0 -0.58295363022E+02  0.10955404132E+03 -0.24155625393E+03  0.27156925660E+03  0.00000000000E+00 0.  1.
          2    1    6    6  503    0  0.18526488750E+03 -0.33946790752E+03 -0.78012884152E+03  0.87072530005E+03  0.00000000000E+00 0. -1.
         -2    1    6    6    0  503  0.39972820602E+02 -0.14067654366E+03 -0.21057228501E+03  0.25637551275E+03  0.00000000000E+00 0.  1.
<mgrwt>
<rscale>  0 0.12043903E+04</rscale>
<asrwt>0</asrwt>
<pdfrwt beam="1">  1        4 0.20733427E-01 0.12043903E+04</pdfrwt>
<pdfrwt beam="2">  1       -3 0.41397747E+00 0.12043903E+04</pdfrwt>
<totfact> 0.44243732E-01</totfact>
</mgrwt>
</event>
<event>
12    6  0.1553355E-007  0.1540702E+04  0.7818608E-02  0.8857829E-01
         -3   -1    0    0    0  501 -0.00000000000E+00  0.00000000000E+00  0.28019494223E+03  0.28019494223E+03  0.00000000000E+00 0.  1.
          4   -1    0    0  501    0  0.00000000000E+00 -0.00000000000E+00 -0.21179554210E+04  0.21179554210E+04  0.00000000000E+00 0. -1.
         24    2    1    2    0    0 -0.45208106273E+03 -0.89461480274E+02 -0.29492691934E+03  0.55293790783E+03  0.79861119662E+02 0.  0.
        254    2    1    2    0    0  0.45208106273E+03  0.89461480274E+02 -0.15428335594E+04  0.18452124554E+04  0.90116201080E+03 0.  0.
         23    2    4    4    0    0  0.33547553260E+03 -0.37688488083E+03 -0.91578548003E+03  0.10494712020E+04  0.90225894788E+02 0.  0.
         23    2    4    4    0    0  0.11660553013E+03  0.46634636110E+03 -0.62704807941E+03  0.79574125337E+03  0.94546656517E+02 0.  0.
          2    1    3    3  502    0 -0.37871726046E+02 -0.86113756804E+01 -0.13851435779E+01  0.38863119375E+02  0.00000000000E+00 0. -1.
         -1    1    3    3    0  502 -0.41420933668E+03 -0.80850104593E+02 -0.29354177576E+03  0.51407478846E+03  0.00000000000E+00 0.  1.
         11    1    5    5    0    0  0.28103688968E+03 -0.25681689811E+03 -0.68521070992E+03  0.78386884713E+03  0.00000000000E+00 0.  1.
        -11    1    5    5    0    0  0.54438642918E+02 -0.12006798271E+03 -0.23057477012E+03  0.26560235490E+03  0.00000000000E+00 0. -1.
          2    1    6    6  503    0  0.77262485871E+02  0.12969242241E+03 -0.19144440837E+03  0.24380438398E+03  0.00000000000E+00 0. -1.
         -2    1    6    6    0  503  0.39343044261E+02  0.33665393869E+03 -0.43560367104E+03  0.55193686939E+03  0.00000000000E+00 0.  1.
<mgrwt>
<rscale>  0 0.15407017E+04</rscale>
<asrwt>0</asrwt>
<pdfrwt beam="1">  1        4 0.32583929E+00 0.15407017E+04</pdfrwt>
<pdfrwt beam="2">  1       -3 0.43106915E-01 0.15407017E+04</pdfrwt>
<totfact> 0.25219747E-01</totfact>
</mgrwt>
</event>
<event>
12    6  0.1553355E-007  0.1627879E+04  0.7818608E-02  0.8803601E-01
         -1   -1    0    0    0  501 -0.00000000000E+00  0.00000000000E+00  0.45025113686E+03  0.45025113686E+03  0.00000000000E+00 0.  1.
          2   -1    0    0  501    0  0.00000000000E+00 -0.00000000000E+00 -0.14713961668E+04  0.14713961668E+04  0.00000000000E+00 0. -1.
         24    2    1    2    0    0  0.81223965165E+02 -0.54223284187E+03 -0.19933404530E+03  0.58923983935E+03  0.82799392174E+02 0.  0.
        254    2    1    2    0    0 -0.81223965165E+02  0.54223284187E+03 -0.82181098466E+03  0.13324074643E+04  0.89404841546E+03 0.  0.
         23    2    4    4    0    0 -0.40657982596E+03  0.41206092889E+03 -0.21156899644E+03  0.62283016782E+03  0.89747499661E+02 0.  0.
         23    2    4    4    0    0  0.32535586079E+03  0.13017191297E+03 -0.61024198822E+03  0.70957729651E+03  0.91123501134E+02 0.  0.
          4    1    3    3  502    0  0.79340537573E+01 -0.64791670809E+02  0.34503456476E+01  0.65366770612E+02  0.00000000000E+00 0. -1.
         -1    1    3    3    0  502  0.73289911407E+02 -0.47744117106E+03 -0.20278439095E+03  0.52387306874E+03  0.00000000000E+00 0.  1.
         11    1    5    5    0    0 -0.81411013988E+02  0.11469731341E+03 -0.85144433806E+02  0.16441654877E+03  0.00000000000E+00 0. -1.
        -11    1    5    5    0    0 -0.32516881197E+03  0.29736361548E+03 -0.12642456263E+03  0.45841361905E+03  0.00000000000E+00 0.  1.
          2    1    6    6  503    0  0.27684993819E+03  0.73820321717E+02 -0.45984913046E+03  0.54180859255E+03  0.00000000000E+00 0. -1.
         -2    1    6    6    0  503  0.48505922606E+02  0.56351591257E+02 -0.15039285776E+03  0.16776870396E+03  0.00000000000E+00 0.  1.
<mgrwt>
<rscale>  0 0.16278794E+04</rscale>
<asrwt>0</asrwt>
<pdfrwt beam="1">  1        2 0.22636864E+00 0.16278794E+04</pdfrwt>
<pdfrwt beam="2">  1       -1 0.69269405E-01 0.16278794E+04</pdfrwt>
<totfact> 0.30289703E+01</totfact>
</mgrwt>
</event>
<event>
12    6  0.1553355E-007  0.1782281E+04  0.7818608E-02  0.8715779E-01
          2   -1    0    0  501    0  0.00000000000E+00  0.00000000000E+00  0.10621568867E+04  0.10621568867E+04  0.00000000000E+00 0. -1.
         -1   -1    0    0    0  501 -0.00000000000E+00 -0.00000000000E+00 -0.74765917354E+03  0.74765917354E+03  0.00000000000E+00 0.  1.
         24    2    1    2    0    0 -0.16239446365E+03  0.31472307717E+03  0.68532744831E+03  0.77533717107E+03  0.77791004074E+02 0.  0.
        254    2    1    2    0    0  0.16239446365E+03 -0.31472307717E+03 -0.37082973513E+03  0.10344788892E+04  0.89844827486E+03 0.  0.
         23    2    4    4    0    0 -0.23968904562E+03 -0.21066973397E+03 -0.49112329269E+03  0.59265961672E+03  0.90613228965E+02 0.  0.
         23    2    4    4    0    0  0.40208350926E+03 -0.10405334320E+03  0.12029355756E+03  0.44181927247E+03  0.90749561339E+02 0.  0.
          2    1    3    3  502    0 -0.51809051196E+02  0.12711810902E+03  0.34490885469E+03  0.37122137529E+03  0.00000000000E+00 0. -1.
         -1    1    3    3    0  502 -0.11058541245E+03  0.18760496815E+03  0.34041859362E+03  0.40411579578E+03  0.00000000000E+00 0.  1.
         11    1    5    5    0    0 -0.22929966452E+03 -0.16891302349E+03 -0.45344763426E+03  0.53546680819E+03  0.00000000000E+00 0.  1.
        -11    1    5    5    0    0 -0.10389381099E+02 -0.41756710474E+02 -0.37675658431E+02  0.57192808529E+02  0.00000000000E+00 0. -1.
          1    1    6    6  503    0  0.56919277102E+02  0.67881950566E+01  0.41666391411E+02  0.70865872401E+02  0.00000000000E+00 0. -1.
         -1    1    6    6    0  503  0.34516423216E+03 -0.11084153826E+03  0.78627166152E+02  0.37095340007E+03  0.00000000000E+00 0.  1.
<mgrwt>
<rscale>  0 0.17822809E+04</rscale>
<asrwt>0</asrwt>
<pdfrwt beam="1">  1        2 0.16340875E+00 0.17822809E+04</pdfrwt>
<pdfrwt beam="2">  1       -1 0.11502449E+00 0.17822809E+04</pdfrwt>
<totfact> 0.17018800E+01</totfact>
</mgrwt>
</event>
<event>
12    6  0.1553355E-007  0.1928946E+04  0.7818608E-02  0.8640581E-01
         -1   -1    0    0    0  501 -0.00000000000E+00  0.00000000000E+00  0.73746903258E+03  0.73746903258E+03  0.00000000000E+00 0.  1.
          2   -1    0    0  501    0  0.00000000000E+00 -0.00000000000E+00 -0.12613515344E+04  0.12613515344E+04  0.00000000000E+00 0. -1.
         24    2    1    2    0    0  0.14169737867E+03 -0.61955936545E+03 -0.62484240071E+03  0.89503932288E+03  0.82069539685E+02 0.  0.
        254    2    1    2    0    0 -0.14169737867E+03  0.61955936545E+03  0.10095989884E+03  0.11037812441E+04  0.89677654926E+03 0.  0.
         23    2    4    4    0    0  0.31308628412E+03  0.33837761292E+02  0.13837850102E+03  0.35591164436E+03  0.91413749814E+02 0.  0.
         23    2    4    4    0    0 -0.45478366279E+03  0.58572160416E+03 -0.37418602178E+02  0.74786959978E+03  0.89503122657E+02 0.  0.
          2    1    3    3  502    0  0.12368245361E+03 -0.57793559781E+03 -0.60422285112E+03  0.84521722555E+03  0.00000000000E+00 0. -1.
         -1    1    3    3    0  502  0.18014925064E+02 -0.41623767642E+02 -0.20619549587E+02  0.49822097336E+02  0.00000000000E+00 0.  1.
         11    1    5    5    0    0  0.54952556253E+02  0.28185170304E+02  0.59941123511E+02  0.86064659132E+02  0.00000000000E+00 0. -1.
        -11    1    5    5    0    0  0.25813372786E+03  0.56525909880E+01  0.78437377509E+02  0.26984698523E+03  0.00000000000E+00 0.  1.
          4    1    6    6  503    0 -0.35519939909E+02  0.15315634909E+02 -0.69323078762E+01  0.39297476971E+02  0.00000000000E+00 0. -1.
         -4    1    6    6    0  503 -0.41926372288E+03  0.57040596925E+03 -0.30486294302E+02  0.70857212281E+03  0.00000000000E+00 0.  1.
<mgrwt>
<rscale>  0 0.19289455E+04</rscale>
<asrwt>0</asrwt>
<pdfrwt beam="1">  1        2 0.19405408E+00 0.19289455E+04</pdfrwt>
<pdfrwt beam="2">  1       -1 0.11345677E+00 0.19289455E+04</pdfrwt>
<totfact> 0.13155387E+01</totfact>
</mgrwt>
</event>
<event>
12    6  0.1606500E-007  0.1747861E+04  0.7818608E-02  0.8734529E-01
         -1   -1    0    0    0  501 -0.00000000000E+00  0.00000000000E+00  0.10373929795E+04  0.10373929795E+04  0.00000000000E+00 0.  1.
          2   -1    0    0  501    0  0.00000000000E+00 -0.00000000000E+00 -0.73622495595E+03  0.73622495595E+03  0.00000000000E+00 0. -1.
         24    2    1    2    0    0 -0.91921300401E+02 -0.27615911555E+03 -0.46766450421E+03  0.55663688389E+03  0.80132075045E+02 0.  0.
        254    2    1    2    0    0  0.91921300401E+02  0.27615911555E+03  0.76883252771E+03  0.12169810515E+04  0.89734388142E+03 0.  0.
         23    2    4    4    0    0  0.44641788510E+03 -0.17454258435E+02  0.49960284676E+03  0.67595346830E+03  0.87843653979E+02 0.  0.
         23    2    4    4    0    0 -0.35449658470E+03  0.29361337398E+03  0.26922968095E+03  0.54102758321E+03  0.91376051317E+02 0.  0.
          2    1    3    3  502    0 -0.89048454898E+02 -0.28177318293E+03 -0.45608058289E+03  0.54344756143E+03  0.00000000000E+00 0. -1.
         -1    1    3    3    0  502 -0.28728455031E+01  0.56140673863E+01 -0.11583921318E+02  0.13189322462E+02  0.00000000000E+00 0.  1.
         11    1    5    5    0    0  0.31544213778E+03  0.27321718729E+02  0.35826275861E+03  0.47812385718E+03  0.00000000000E+00 0.  1.
        -11    1    5    5    0    0  0.13097574732E+03 -0.44775977164E+02  0.14134008815E+03  0.19782961112E+03  0.00000000000E+00 0. -1.
          3    1    6    6  503    0 -0.33859034163E+03  0.26454000135E+03  0.22287099368E+03  0.48404164241E+03  0.00000000000E+00 0. -1.
         -3    1    6    6    0  503 -0.15906243061E+02  0.29073372629E+02  0.46358687263E+02  0.56985940802E+02  0.00000000000E+00 0.  1.
<mgrwt>
<rscale>  0 0.17478611E+04</rscale>
<asrwt>0</asrwt>
<pdfrwt beam="1">  1        2 0.11326538E+00 0.17478611E+04</pdfrwt>
<pdfrwt beam="2">  1       -1 0.15959892E+00 0.17478611E+04</pdfrwt>
<totfact> 0.12235676E+01</totfact>
</mgrwt>
</event>
<event>
12    6  0.1553355E-007  0.3324946E+04  0.7818608E-02  0.8156577E-01
         -1   -1    0    0    0  501 -0.00000000000E+00  0.00000000000E+00  0.72609550699E+03  0.72609550699E+03  0.00000000000E+00 0.  1.
          2   -1    0    0  501    0  0.00000000000E+00 -0.00000000000E+00 -0.38064096474E+04  0.38064096474E+04  0.00000000000E+00 0. -1.
         24    2    1    2    0    0  0.47815312693E+03 -0.72681705864E+03  0.30399701375E+03  0.92470640882E+03  0.75988871696E+02 0.  0.
        254    2    1    2    0    0 -0.47815312693E+03  0.72681705864E+03 -0.33843111542E+04  0.36077987456E+04  0.89763932118E+03 0.  0.
         23    2    4    4    0    0 -0.92119493732E+02  0.23243036884E+03 -0.13614768438E+03  0.29854580650E+03  0.89908448620E+02 0.  0.
         23    2    4    4    0    0 -0.38603363320E+03  0.49438668980E+03 -0.32481634698E+04  0.33092529391E+04  0.84551306192E+02 0.  0.
          2    1    3    3  502    0  0.19347242257E+03 -0.23432458618E+03  0.12200254669E+03  0.32745108243E+03  0.00000000000E+00 0. -1.
         -1    1    3    3    0  502  0.28468070436E+03 -0.49249247246E+03  0.18199446706E+03  0.59725532639E+03  0.00000000000E+00 0.  1.
         11    1    5    5    0    0 -0.77659891093E+02  0.20741363036E+03 -0.80149482475E+02  0.23553218949E+03  0.00000000000E+00 0. -1.
        -11    1    5    5    0    0 -0.14459602639E+02  0.25016738480E+02 -0.55998201905E+02  0.63013617015E+02  0.00000000000E+00 0.  1.
          4    1    6    6  503    0 -0.27817549191E+03  0.34118052960E+03 -0.20706850158E+04  0.21169606025E+04  0.00000000000E+00 0. -1.
         -4    1    6    6    0  503 -0.10785814129E+03  0.15320616020E+03 -0.11774784540E+04  0.11922923366E+04  0.00000000000E+00 0.  1.
<mgrwt>
<rscale>  0 0.33249463E+04</rscale>
<asrwt>0</asrwt>
<pdfrwt beam="1">  1        2 0.58560149E+00 0.33249463E+04</pdfrwt>
<pdfrwt beam="2">  1       -1 0.11170700E+00 0.33249463E+04</pdfrwt>
<totfact> 0.33749096E-01</totfact>
</mgrwt>
</event>
<event>
12    6  0.2208053E-007  0.2129824E+04  0.7818608E-02  0.8548218E-01
          2   -1    0    0  501    0  0.00000000000E+00  0.00000000000E+00  0.11957885030E+04  0.11957885030E+04  0.00000000000E+00 0. -1.
         -1   -1    0    0    0  501 -0.00000000000E+00 -0.00000000000E+00 -0.94835925724E+03  0.94835925724E+03  0.00000000000E+00 0.  1.
         24    2    1    2    0    0 -0.41965348316E+03  0.24512537119E+03  0.83226132435E+03  0.96657442060E+03  0.73564291804E+02 0.  0.
        254    2    1    2    0    0  0.41965348316E+03 -0.24512537119E+03 -0.58483207858E+03  0.11775733396E+04  0.89914121058E+03 0.  0.
         23    2    4    4    0    0  0.31429108797E+02 -0.44566477407E+03 -0.18385018073E+02  0.45633478374E+03  0.91096356875E+02 0.  0.
         23    2    4    4    0    0  0.38822437437E+03  0.20053940288E+03 -0.56644706051E+03  0.72123855590E+03  0.91589110706E+02 0.  0.
          2    1    3    3  502    0 -0.41730067614E+03  0.24970462323E+03  0.82159564774E+03  0.95473119859E+03  0.00000000000E+00 0. -1.
         -3    1    3    3    0  502 -0.23528070202E+01 -0.45792520460E+01  0.10665676614E+02  0.11843222019E+02  0.00000000000E+00 0.  1.
         11    1    5    5    0    0 -0.26401924071E+02 -0.16357649367E+03 -0.28864763830E+02  0.16818889816E+03  0.00000000000E+00 0. -1.
        -11    1    5    5    0    0  0.57831032868E+02 -0.28208828040E+03  0.10479745757E+02  0.28814588558E+03  0.00000000000E+00 0.  1.
          3    1    6    6  503    0  0.38545537548E+03  0.18152355999E+03 -0.55142508318E+03  0.69684738048E+03  0.00000000000E+00 0. -1.
         -3    1    6    6    0  503  0.27689988856E+01  0.19015842890E+02 -0.15021977325E+02  0.24391175421E+02  0.00000000000E+00 0.  1.
<mgrwt>
<rscale>  0 0.21298236E+04</rscale>
<asrwt>0</asrwt>
<pdfrwt beam="1">  1        2 0.18396746E+00 0.21298236E+04</pdfrwt>
<pdfrwt beam="2">  1       -1 0.14590142E+00 0.21298236E+04</pdfrwt>
<totfact> 0.75046092E+00</totfact>
</mgrwt>
</event>
<event>
12    6  0.1553355E-007  0.1381303E+04  0.7818608E-02  0.8967464E-01
          2   -1    0    0  501    0  0.00000000000E+00  0.00000000000E+00  0.20566626334E+04  0.20566626334E+04  0.00000000000E+00 0. -1.
         -1   -1    0    0    0  501 -0.00000000000E+00 -0.00000000000E+00 -0.23192902554E+03  0.23192902554E+03  0.00000000000E+00 0.  1.
         24    2    1    2    0    0 -0.11866464973E+03  0.56561808014E+02  0.12267586386E+04  0.12362909186E+04  0.78727001767E+02 0.  0.
        254    2    1    2    0    0  0.11866464973E+03 -0.56561808014E+02  0.59797496923E+03  0.10523007403E+04  0.85585176697E+03 0.  0.
         23    2    4    4    0    0  0.16076024784E+03 -0.41019240021E+03  0.15262529837E+03  0.47500720916E+03  0.90750782777E+02 0.  0.
         23    2    4    4    0    0 -0.42095598109E+02  0.35363059220E+03  0.44534967086E+03  0.57729353115E+03  0.90026977396E+02 0.  0.
          4    1    3    3  502    0 -0.12060779795E+03  0.40811864988E+02  0.11812976913E+04  0.11881397581E+04  0.00000000000E+00 0. -1.
         -3    1    3    3    0  502  0.19431482202E+01  0.15749943026E+02  0.45460947321E+02  0.48151160543E+02  0.00000000000E+00 0.  1.
         11    1    5    5    0    0  0.87220107101E+01 -0.13606994918E+03  0.47530635641E+02  0.14439621140E+03  0.00000000000E+00 0. -1.
        -11    1    5    5    0    0  0.15203823713E+03 -0.27412245103E+03  0.10509466273E+03  0.33061099776E+03  0.00000000000E+00 0.  1.
          1    1    6    6  503    0  0.43375352335E+01 -0.12680670002E+01  0.24092448532E+02  0.24512614754E+02  0.00000000000E+00 0. -1.
         -1    1    6    6    0  503 -0.46433133342E+02  0.35489865920E+03  0.42125722232E+03  0.55278091640E+03  0.00000000000E+00 0.  1.
<mgrwt>
<rscale>  0 0.13813034E+04</rscale>
<asrwt>0</asrwt>
<pdfrwt beam="1">  1        2 0.31640962E+00 0.13813034E+04</pdfrwt>
<pdfrwt beam="2">  1       -1 0.35681390E-01 0.13813034E+04</pdfrwt>
<totfact> 0.51743419E+01</totfact>
</mgrwt>
</event>
<event>
12    6  0.1553355E-007  0.2398935E+04  0.7818608E-02  0.8439902E-01
          2   -1    0    0  501    0  0.00000000000E+00  0.00000000000E+00  0.12524943709E+04  0.12524943709E+04  0.00000000000E+00 0. -1.
         -1   -1    0    0    0  501 -0.00000000000E+00 -0.00000000000E+00 -0.11486853558E+04  0.11486853558E+04  0.00000000000E+00 0.  1.
         24    2    1    2    0    0 -0.34245890881E+03 -0.96811343137E+03  0.55719446035E+01  0.10301338444E+04  0.81381635426E+02 0.  0.
        254    2    1    2    0    0  0.34245890881E+03  0.96811343137E+03  0.98237070430E+02  0.13710458823E+04  0.90310274560E+03 0.  0.
         23    2    4    4    0    0  0.48286724618E+03  0.13449367896E+03  0.10347271822E+03  0.52100345120E+03  0.97409782030E+02 0.  0.
         23    2    4    4    0    0 -0.14040833737E+03  0.83361975241E+03 -0.52356477850E+01  0.85004243108E+03  0.88928790780E+02 0.  0.
          4    1    3    3  502    0 -0.27097331550E+03 -0.76760779086E+03  0.37446009603E+02  0.81489291440E+03  0.00000000000E+00 0. -1.
         -1    1    3    3    0  502 -0.71485593309E+02 -0.20050564050E+03 -0.31874064999E+02  0.21524092999E+03  0.00000000000E+00 0.  1.
         11    1    5    5    0    0  0.57576713404E+02  0.48125923440E+02  0.30196524250E+02  0.80888889905E+02  0.00000000000E+00 0. -1.
        -11    1    5    5    0    0  0.42529053277E+03  0.86367755518E+02  0.73276193966E+02  0.44011456129E+03  0.00000000000E+00 0.  1.
          4    1    6    6  503    0 -0.12997302619E+03  0.82307284327E+03 -0.12839156310E+02  0.83337070791E+03  0.00000000000E+00 0.  1.
         -4    1    6    6    0  503 -0.10435311179E+02  0.10546909137E+02  0.76035085251E+01  0.16671723175E+02  0.00000000000E+00 0. -1.
<mgrwt>
<rscale>  0 0.23989347E+04</rscale>
<asrwt>0</asrwt>
<pdfrwt beam="1">  1        2 0.19269144E+00 0.23989347E+04</pdfrwt>
<pdfrwt beam="2">  1       -1 0.17672082E+00 0.23989347E+04</pdfrwt>
<totfact> 0.39707302E+00</totfact>
</mgrwt>
</event>
<event>
12    6  0.1553355E-007  0.1205921E+04  0.7818608E-02  0.9107690E-01
         -1   -1    0    0    0  501 -0.00000000000E+00  0.00000000000E+00  0.21676601395E+03  0.21676601395E+03  0.00000000000E+00 0.  1.
          2   -1    0    0  501    0  0.00000000000E+00 -0.00000000000E+00 -0.16772064055E+04  0.16772064055E+04  0.00000000000E+00 0. -1.
         24    2    1    2    0    0 -0.14246413523E+03  0.20145264549E+03 -0.31846519001E+03  0.41685423540E+03  0.10708957990E+03 0.  0.
        254    2    1    2    0    0  0.14246413523E+03 -0.20145264549E+03 -0.11419752016E+04  0.14771181841E+04  0.90382054109E+03 0.  0.
         23    2    4    4    0    0  0.62566575504E+02  0.20374329708E+03 -0.10086189750E+04  0.10348857363E+04  0.90831398696E+02 0.  0.
         23    2    4    4    0    0  0.79897559730E+02 -0.40519594257E+03 -0.13335622657E+03  0.44223244776E+03  0.84960477648E+02 0.  0.
          4    1    3    3  502    0 -0.10324918216E+03  0.16962280683E+03 -0.17473519947E+03  0.26450837444E+03  0.00000000000E+00 0. -1.
         -3    1    3    3    0  502 -0.39214953074E+02  0.31829838662E+02 -0.14372999054E+03  0.15234586097E+03  0.00000000000E+00 0.  1.
         11    1    5    5    0    0 -0.11775365747E+02  0.60370394910E+01 -0.15337992027E+03  0.15394968343E+03  0.00000000000E+00 0. -1.
        -11    1    5    5    0    0  0.74341941251E+02  0.19770625759E+03 -0.85523905474E+03  0.88093605288E+03  0.00000000000E+00 0.  1.
          3    1    6    6  503    0  0.45220699662E+02 -0.16254121167E+03 -0.96484301312E+02  0.19435477244E+03  0.00000000000E+00 0. -1.
         -3    1    6    6    0  503  0.34676860068E+02 -0.24265473090E+03 -0.36871925254E+02  0.24787767532E+03  0.00000000000E+00 0.  1.
<mgrwt>
<rscale>  0 0.12059210E+04</rscale>
<asrwt>0</asrwt>
<pdfrwt beam="1">  1        2 0.25803174E+00 0.12059210E+04</pdfrwt>
<pdfrwt beam="2">  1       -1 0.33348619E-01 0.12059210E+04</pdfrwt>
<totfact> 0.95990312E+01</totfact>
</mgrwt>
</event>
<event>
12    6  0.1553355E-007  0.1637349E+04  0.7818608E-02  0.8797926E-01
         -1   -1    0    0    0  501 -0.00000000000E+00  0.00000000000E+00  0.88585908802E+03  0.88585908802E+03  0.00000000000E+00 0.  1.
          2   -1    0    0  501    0  0.00000000000E+00 -0.00000000000E+00 -0.75658558470E+03  0.75658558470E+03  0.00000000000E+00 0. -1.
         24    2    1    2    0    0 -0.21986398804E+03  0.48988174034E+03 -0.11269495866E+03  0.55559114028E+03  0.87504678179E+02 0.  0.
        254    2    1    2    0    0  0.21986398804E+03 -0.48988174034E+03  0.24196846198E+03  0.10868535324E+04  0.91344270298E+03 0.  0.
         23    2    4    4    0    0 -0.12973253925E+03 -0.51740698367E+03 -0.14106352137E+03  0.56129083606E+03  0.10299498575E+03 0.  0.
         23    2    4    4    0    0  0.34959652729E+03  0.27525243333E+02  0.38303198335E+03  0.52556269638E+03  0.80791562927E+02 0.  0.
          4    1    3    3  502    0 -0.15542938098E+03  0.26976934147E+03 -0.95216618971E+02  0.32557640362E+03  0.00000000000E+00 0. -1.
         -3    1    3    3    0  502 -0.64434607056E+02  0.22011239887E+03 -0.17478339690E+02  0.23001473666E+03  0.00000000000E+00 0.  1.
         11    1    5    5    0    0 -0.88391499648E+02 -0.26011337278E+03 -0.12018919093E+03  0.29986241099E+03  0.00000000000E+00 0. -1.
        -11    1    5    5    0    0 -0.41341039604E+02 -0.25729361089E+03 -0.20874330438E+02  0.26142842507E+03  0.00000000000E+00 0.  1.
          3    1    6    6  503    0  0.32546671326E+03  0.47004446773E+02  0.34890115015E+03  0.47944761135E+03  0.00000000000E+00 0. -1.
         -3    1    6    6    0  503  0.24129814032E+02 -0.19479203440E+02  0.34130833208E+02  0.46115085031E+02  0.00000000000E+00 0.  1.
<mgrwt>
<rscale>  0 0.16373493E+04</rscale>
<asrwt>0</asrwt>
<pdfrwt beam="1">  1        2 0.11639778E+00 0.16373493E+04</pdfrwt>
<pdfrwt beam="2">  1       -1 0.13628601E+00 0.16373493E+04</pdfrwt>
<totfact> 0.18199741E+01</totfact>
</mgrwt>
</event>
<event>
12    6  0.1553355E-007  0.1247629E+04  0.7818608E-02  0.9072159E-01
          2   -1    0    0  501    0  0.00000000000E+00  0.00000000000E+00  0.23426071686E+04  0.23426071686E+04  0.00000000000E+00 0. -1.
         -1   -1    0    0    0  501 -0.00000000000E+00 -0.00000000000E+00 -0.16611606194E+03  0.16611606194E+03  0.00000000000E+00 0.  1.
         24    2    1    2    0    0 -0.53162632839E+02 -0.66409581760E+02 -0.39514377617E+02  0.11981367899E+03  0.74548196180E+02 0.  0.
        254    2    1    2    0    0  0.53162632839E+02  0.66409581760E+02  0.22160054843E+04  0.23889095516E+04  0.88824098145E+03 0.  0.
         23    2    4    4    0    0 -0.28947751368E+02  0.20053449229E+03  0.66968780970E+02  0.23221088773E+03  0.91569775849E+02 0.  0.
         23    2    4    4    0    0  0.82110384207E+02 -0.13412491053E+03  0.21490367033E+04  0.21566986639E+04  0.90877761865E+02 0.  0.
          2    1    3    3  502    0  0.14376331858E+02 -0.36527250775E+02 -0.13432986995E+02  0.41489325211E+02  0.00000000000E+00 0. -1.
         -1    1    3    3    0  502 -0.67538964697E+02 -0.29882330985E+02 -0.26081390622E+02  0.78324353774E+02  0.00000000000E+00 0.  1.
         11    1    5    5    0    0 -0.56653409417E+02  0.77024744237E+02  0.24610062463E+02  0.98732341195E+02  0.00000000000E+00 0.  1.
        -11    1    5    5    0    0  0.27705658049E+02  0.12350974805E+03  0.42358718507E+02  0.13347854654E+03  0.00000000000E+00 0. -1.
          1    1    6    6  503    0 -0.71791724255E+01 -0.71535942931E+02  0.76329354368E+03  0.76667200644E+03  0.00000000000E+00 0. -1.
         -1    1    6    6    0  503  0.89289556633E+02 -0.62588967597E+02  0.13857431597E+04  0.13900266574E+04  0.00000000000E+00 0.  1.
<mgrwt>
<rscale>  0 0.12476292E+04</rscale>
<asrwt>0</asrwt>
<pdfrwt beam="1">  1        2 0.36040108E+00 0.12476292E+04</pdfrwt>
<pdfrwt beam="2">  1       -1 0.25556319E-01 0.12476292E+04</pdfrwt>
<totfact> 0.65034763E+01</totfact>
</mgrwt>
</event>
<event>
12    6  0.1553355E-007  0.2011958E+04  0.7818608E-02  0.8601050E-01
          2   -1    0    0  501    0  0.00000000000E+00  0.00000000000E+00  0.62613127754E+03  0.62613127754E+03  0.00000000000E+00 0. -1.
         -1   -1    0    0    0  501 -0.00000000000E+00 -0.00000000000E+00 -0.16162649889E+04  0.16162649889E+04  0.00000000000E+00 0.  1.
         24    2    1    2    0    0  0.76084443393E+03  0.85367156991E+02 -0.10760058588E+03  0.77756895709E+03  0.82848010335E+02 0.  0.
        254    2    1    2    0    0 -0.76084443393E+03 -0.85367156991E+02 -0.88253312546E+03  0.14648273093E+04  0.88356240553E+03 0.  0.
         23    2    4    4    0    0 -0.44235815997E+03  0.22484265455E+03 -0.37512938966E+02  0.50566707960E+03  0.89760870060E+02 0.  0.
         23    2    4    4    0    0 -0.31848627395E+03 -0.31020981155E+03 -0.84502018650E+03  0.95916022973E+03  0.90915327793E+02 0.  0.
          2    1    3    3  502    0  0.65488817800E+03  0.99495363409E+02 -0.10476992653E+03  0.67063745088E+03  0.00000000000E+00 0. -1.
         -1    1    3    3    0  502  0.10595625593E+03 -0.14128206418E+02 -0.28306593470E+01  0.10693150621E+03  0.00000000000E+00 0.  1.
         11    1    5    5    0    0 -0.27062446153E+03  0.18522171821E+03 -0.19875440598E+02  0.32854180436E+03  0.00000000000E+00 0. -1.
        -11    1    5    5    0    0 -0.17173369844E+03  0.39620936348E+02 -0.17637498367E+02  0.17712527523E+03  0.00000000000E+00 0.  1.
          4    1    6    6  503    0 -0.28359504606E+03 -0.30724170377E+03 -0.79252062197E+03  0.89605387725E+03  0.00000000000E+00 0. -1.
         -4    1    6    6    0  503 -0.34891227894E+02 -0.29681077779E+01 -0.52499564526E+02  0.63106352479E+02  0.00000000000E+00 0.  1.
<mgrwt>
<rscale>  0 0.20119583E+04</rscale>
<asrwt>0</asrwt>
<pdfrwt beam="1">  1        2 0.96327890E-01 0.20119583E+04</pdfrwt>
<pdfrwt beam="2">  1       -1 0.24865615E+00 0.20119583E+04</pdfrwt>
<totfact> 0.35500800E+00</totfact>
</mgrwt>
</event>
<event>
12    6  0.1553355E-007  0.1609594E+04  0.7818608E-02  0.8814675E-01
          2   -1    0    0  501    0  0.00000000000E+00  0.00000000000E+00  0.22613906705E+04  0.22613906705E+04  0.00000000000E+00 0. -1.
         -1   -1    0    0    0  501 -0.00000000000E+00 -0.00000000000E+00 -0.28641603421E+03  0.28641603421E+03  0.00000000000E+00 0.  1.
         24    2    1    2    0    0 -0.27694904899E+03  0.27399932331E+03  0.12807198119E+04  0.13410465189E+04  0.79913230294E+02 0.  0.
        254    2    1    2    0    0  0.27694904899E+03 -0.27399932331E+03  0.69425482438E+03  0.12067601858E+04  0.90692005156E+03 0.  0.
         23    2    4    4    0    0  0.60121990051E+03 -0.19309406358E+03  0.42692145996E+03  0.76777203311E+03  0.91985192789E+02 0.  0.
         23    2    4    4    0    0 -0.32427085151E+03 -0.80905259727E+02  0.26733336443E+03  0.43898815269E+03  0.97704781204E+02 0.  0.
          2    1    3    3  502    0 -0.10665019526E+03  0.76958325350E+02  0.54318714217E+03  0.55888202638E+03  0.00000000000E+00 0. -1.
         -1    1    3    3    0  502 -0.17029885373E+03  0.19704099796E+03  0.73753266974E+03  0.78216449254E+03  0.00000000000E+00 0.  1.
         11    1    5    5    0    0  0.57938957174E+03 -0.20058450671E+03  0.42158477356E+03  0.74408342373E+03  0.00000000000E+00 0. -1.
        -11    1    5    5    0    0  0.21830328769E+02  0.74904431331E+01  0.53366863986E+01  0.23688609377E+02  0.00000000000E+00 0.  1.
          2    1    6    6  503    0 -0.32845830402E+03 -0.69605640079E+02  0.25392552647E+03  0.42096077680E+03  0.00000000000E+00 0. -1.
         -2    1    6    6    0  503  0.41874525068E+01 -0.11299619648E+02  0.13407837953E+02  0.18027375884E+02  0.00000000000E+00 0.  1.
<mgrwt>
<rscale>  0 0.16095944E+04</rscale>
<asrwt>0</asrwt>
<pdfrwt beam="1">  1        2 0.34790625E+00 0.16095944E+04</pdfrwt>
<pdfrwt beam="2">  1       -1 0.44064007E-01 0.16095944E+04</pdfrwt>
<totfact> 0.26527897E+01</totfact>
</mgrwt>
</event>
<event>
12    6  0.1553355E-007  0.1583393E+04  0.7818608E-02  0.8830816E-01
          2   -1    0    0  501    0  0.00000000000E+00  0.00000000000E+00  0.18847070271E+04  0.18847070271E+04  0.00000000000E+00 0. -1.
         -1   -1    0    0    0  501 -0.00000000000E+00 -0.00000000000E+00 -0.33256266085E+03  0.33256266085E+03  0.00000000000E+00 0.  1.
         24    2    1    2    0    0  0.17583915538E+03 -0.35358481310E+03  0.10257910382E+04  0.11021735237E+04  0.81225571950E+02 0.  0.
        254    2    1    2    0    0 -0.17583915538E+03  0.35358481310E+03  0.52635332804E+03  0.11150961643E+04  0.90024996588E+03 0.  0.
         23    2    4    4    0    0 -0.26887085049E+02 -0.22651663011E+03 -0.79808507385E+02  0.25850459098E+03  0.91774324546E+02 0.  0.
         23    2    4    4    0    0 -0.14895207033E+03  0.58010144321E+03  0.60616183543E+03  0.85659157332E+03  0.87249923089E+02 0.  0.
          2    1    3    3  502    0  0.13153237610E+03 -0.20695069251E+03  0.54632869603E+03  0.59883587000E+03  0.00000000000E+00 0. -1.
         -1    1    3    3    0  502  0.44306779287E+02 -0.14663412059E+03  0.47946234220E+03  0.50333765367E+03  0.00000000000E+00 0.  1.
         11    1    5    5    0    0 -0.42118992887E+02 -0.16180378541E+03 -0.18759087989E+02  0.16824499373E+03  0.00000000000E+00 0.  1.
        -11    1    5    5    0    0  0.15231907838E+02 -0.64712844704E+02 -0.61049419396E+02  0.90259597244E+02  0.00000000000E+00 0. -1.
          1    1    6    6  503    0 -0.26220961028E+02  0.46200244385E+02  0.27774127507E+02  0.59945004272E+02  0.00000000000E+00 0. -1.
         -1    1    6    6    0  503 -0.12273110931E+03  0.53390119883E+03  0.57838770792E+03  0.79664656905E+03  0.00000000000E+00 0.  1.
<mgrwt>
<rscale>  0 0.15833928E+04</rscale>
<asrwt>0</asrwt>
<pdfrwt beam="1">  1        2 0.28995492E+00 0.15833928E+04</pdfrwt>
<pdfrwt beam="2">  1       -1 0.51163487E-01 0.15833928E+04</pdfrwt>
<totfact> 0.32533550E+01</totfact>
</mgrwt>
</event>
<event>
12    6  0.1553355E-007  0.1306376E+04  0.7818608E-02  0.9024524E-01
          2   -1    0    0  501    0  0.00000000000E+00  0.00000000000E+00  0.20083718048E+04  0.20083718048E+04  0.00000000000E+00 0. -1.
         -1   -1    0    0    0  501 -0.00000000000E+00 -0.00000000000E+00 -0.21243800369E+03  0.21243800369E+03  0.00000000000E+00 0.  1.
         24    2    1    2    0    0 -0.14481677030E+03 -0.85480151159E+02 -0.77882319724E+01  0.18650003979E+03  0.80267397392E+02 0.  0.
        254    2    1    2    0    0  0.14481677030E+03  0.85480151159E+02  0.18037220331E+04  0.20343097687E+04  0.92559403045E+03 0.  0.
         23    2    4    4    0    0  0.42086186392E+03 -0.24387296657E+03  0.10387214004E+04  0.11515695436E+04  0.10281796373E+03 0.  0.
         23    2    4    4    0    0 -0.27604509362E+03  0.32935311773E+03  0.76500063269E+03  0.88274022515E+03  0.96591755426E+02 0.  0.
          4    1    3    3  502    0 -0.17380615258E+02 -0.48549423275E+02  0.10323664471E+02  0.52590021251E+02  0.00000000000E+00 0. -1.
         -3    1    3    3    0  502 -0.12743615504E+03 -0.36930727884E+02 -0.18111896443E+02  0.13391001854E+03  0.00000000000E+00 0.  1.
         11    1    5    5    0    0  0.79386597399E+02 -0.42209736580E+01  0.14829740490E+03  0.16826220243E+03  0.00000000000E+00 0.  1.
        -11    1    5    5    0    0  0.34147526652E+03 -0.23965199291E+03  0.89042399551E+03  0.98330734114E+03  0.00000000000E+00 0. -1.
          2    1    6    6  503    0 -0.20149826196E+03  0.27864232744E+03  0.66104738684E+03  0.74513538627E+03  0.00000000000E+00 0. -1.
         -2    1    6    6    0  503 -0.74546831666E+02  0.50710790285E+02  0.10395324585E+03  0.13760483889E+03  0.00000000000E+00 0.  1.
<mgrwt>
<rscale>  0 0.13063759E+04</rscale>
<asrwt>0</asrwt>
<pdfrwt beam="1">  1        2 0.30898026E+00 0.13063759E+04</pdfrwt>
<pdfrwt beam="2">  1       -1 0.32682771E-01 0.13063759E+04</pdfrwt>
<totfact> 0.64755885E+01</totfact>
</mgrwt>
</event>
<event>
12    6  0.1553355E-007  0.1983422E+04  0.7818608E-02  0.8614411E-01
          2   -1    0    0  501    0  0.00000000000E+00  0.00000000000E+00  0.13418409188E+04  0.13418409188E+04  0.00000000000E+00 0. -1.
         -1   -1    0    0    0  501 -0.00000000000E+00 -0.00000000000E+00 -0.73294120574E+03  0.73294120574E+03  0.00000000000E+00 0.  1.
         24    2    1    2    0    0 -0.27839174604E+03  0.12583416423E+03 -0.51927755280E+03  0.60769535712E+03  0.79424612569E+02 0.  0.
        254    2    1    2    0    0  0.27839174604E+03 -0.12583416423E+03  0.11281772659E+04  0.14670867674E+04  0.88669241499E+03 0.  0.
         23    2    4    4    0    0  0.44320224135E+03 -0.16016605904E+03  0.20175581507E+03  0.52056803245E+03  0.90577449141E+02 0.  0.
         23    2    4    4    0    0 -0.16481049531E+03  0.34331894803E+02  0.92642145082E+03  0.94651873500E+03  0.96435640651E+02 0.  0.
          2    1    3    3  502    0 -0.25358266388E+02  0.32691646586E+01 -0.13227461272E+02  0.28787060348E+02  0.00000000000E+00 0. -1.
         -1    1    3    3    0  502 -0.25303347965E+03  0.12256499958E+03 -0.50605009152E+03  0.57890829678E+03  0.00000000000E+00 0.  1.
         11    1    5    5    0    0  0.29252584944E+03 -0.88194552360E+02  0.86060028482E+02  0.31742082502E+03  0.00000000000E+00 0. -1.
        -11    1    5    5    0    0  0.15067639191E+03 -0.71971506677E+02  0.11569578658E+03  0.20314720743E+03  0.00000000000E+00 0.  1.
          3    1    6    6  503    0 -0.11106541114E+03 -0.14884301287E+02  0.69251898343E+03  0.70152662842E+03  0.00000000000E+00 0. -1.
         -3    1    6    6    0  503 -0.53745084172E+02  0.49216196090E+02  0.23390246739E+03  0.24499210657E+03  0.00000000000E+00 0.  1.
<mgrwt>
<rscale>  0 0.19834218E+04</rscale>
<asrwt>0</asrwt>
<pdfrwt beam="1">  1        2 0.20643706E+00 0.19834218E+04</pdfrwt>
<pdfrwt beam="2">  1       -1 0.11276019E+00 0.19834218E+04</pdfrwt>
<totfact> 0.11926024E+01</totfact>
</mgrwt>
</event>
<event>
12    6  0.1553355E-007  0.1424829E+04  0.7818608E-02  0.8936039E-01
          2   -1    0    0  501    0  0.00000000000E+00  0.00000000000E+00  0.21795742789E+04  0.21795742789E+04  0.00000000000E+00 0. -1.
         -1   -1    0    0    0  501 -0.00000000000E+00 -0.00000000000E+00 -0.23285954774E+03  0.23285954774E+03  0.00000000000E+00 0.  1.
         24    2    1    2    0    0 -0.13486748896E+03  0.12013119655E+03  0.12542250105E+04  0.12697062215E+04  0.80329122166E+02 0.  0.
        254    2    1    2    0    0  0.13486748896E+03 -0.12013119655E+03  0.69248972062E+03  0.11427276051E+04  0.89087800648E+03 0.  0.
         23    2    4    4    0    0 -0.86931934782E+02  0.16055849682E+03 -0.12870436649E+03  0.24260864742E+03  0.94646445580E+02 0.  0.
         23    2    4    4    0    0  0.22179942374E+03 -0.28068969337E+03  0.82119408711E+03  0.90011895773E+03  0.88728355169E+02 0.  0.
          4    1    3    3  502    0 -0.22913668074E+02  0.47857421946E+02  0.58113108556E+03  0.58354837642E+03  0.00000000000E+00 0. -1.
         -3    1    3    3    0  502 -0.11195382088E+03  0.72273774601E+02  0.67309392495E+03  0.68615784504E+03  0.00000000000E+00 0.  1.
         11    1    5    5    0    0 -0.74948528878E+02  0.13592392992E+03 -0.14357441856E+03  0.21143843163E+03  0.00000000000E+00 0. -1.
        -11    1    5    5    0    0 -0.11983405905E+02  0.24634566907E+02  0.14870052069E+02  0.31170215789E+02  0.00000000000E+00 0.  1.
          1    1    6    6  503    0  0.10627710394E+03 -0.18113735386E+03  0.55396772254E+03  0.59244054673E+03  0.00000000000E+00 0. -1.
         -1    1    6    6    0  503  0.11552231980E+03 -0.99552339506E+02  0.26722636457E+03  0.30767841100E+03  0.00000000000E+00 0.  1.
<mgrwt>
<rscale>  0 0.14248294E+04</rscale>
<asrwt>0</asrwt>
<pdfrwt beam="1">  1        2 0.33531911E+00 0.14248294E+04</pdfrwt>
<pdfrwt beam="2">  1       -1 0.35824547E-01 0.14248294E+04</pdfrwt>
<totfact> 0.43721731E+01</totfact>
</mgrwt>
</event>
<event>
12    6  0.1553355E-007  0.2440212E+04  0.7818608E-02  0.8424600E-01
          2   -1    0    0  501    0  0.00000000000E+00  0.00000000000E+00  0.25768689466E+04  0.25768689466E+04  0.00000000000E+00 0. -1.
         -1   -1    0    0    0  501 -0.00000000000E+00 -0.00000000000E+00 -0.57770067323E+03  0.57770067323E+03  0.00000000000E+00 0.  1.
         24    2    1    2    0    0 -0.87727036775E+03 -0.46177830996E+03  0.13195115960E+04  0.16523841823E+04  0.80125701883E+02 0.  0.
        254    2    1    2    0    0  0.87727036775E+03  0.46177830996E+03  0.67965667734E+03  0.15021854376E+04  0.90099133406E+03 0.  0.
         23    2    4    4    0    0  0.48054710030E+03  0.14238245461E+03 -0.14308240448E+03  0.53014337593E+03  0.96856314130E+02 0.  0.
         23    2    4    4    0    0  0.39672326745E+03  0.31939585534E+03  0.82273908182E+03  0.97204206162E+03  0.92537070698E+02 0.  0.
          4    1    3    3  502    0 -0.68117208283E+03 -0.37645947321E+03  0.10812642052E+04  0.13322347477E+04  0.00000000000E+00 0. -1.
         -3    1    3    3    0  502 -0.19609828493E+03 -0.85318836743E+02  0.23824739077E+03  0.32014943458E+03  0.00000000000E+00 0.  1.
         11    1    5    5    0    0  0.26079725796E+03  0.12614618481E+03 -0.70633365848E+02  0.29818977527E+03  0.00000000000E+00 0. -1.
        -11    1    5    5    0    0  0.21974984234E+03  0.16236269807E+02 -0.72449038631E+02  0.23195360067E+03  0.00000000000E+00 0.  1.
          3    1    6    6  503    0  0.27447230302E+03  0.24178753146E+03  0.65696056520E+03  0.75192648558E+03  0.00000000000E+00 0. -1.
         -3    1    6    6    0  503  0.12225096443E+03  0.77608323884E+02  0.16577851662E+03  0.22011557604E+03  0.00000000000E+00 0.  1.
<mgrwt>
<rscale>  0 0.24402122E+04</rscale>
<asrwt>0</asrwt>
<pdfrwt beam="1">  1        2 0.39644137E+00 0.24402122E+04</pdfrwt>
<pdfrwt beam="2">  1       -1 0.88877028E-01 0.24402122E+04</pdfrwt>
<totfact> 0.39747493E+00</totfact>
</mgrwt>
</event>
<event>
12    6  0.1553355E-007  0.1883611E+04  0.7818608E-02  0.8663058E-01
         -1   -1    0    0    0  501 -0.00000000000E+00  0.00000000000E+00  0.52274842578E+03  0.52274842578E+03  0.00000000000E+00 0.  1.
          2   -1    0    0  501    0  0.00000000000E+00 -0.00000000000E+00 -0.16967957761E+04  0.16967957761E+04  0.00000000000E+00 0. -1.
         24    2    1    2    0    0  0.28561791722E+03  0.64235894098E+03 -0.64009789532E+03  0.95489735905E+03  0.88887834019E+02 0.  0.
        254    2    1    2    0    0 -0.28561791722E+03 -0.64235894098E+03 -0.53394945501E+03  0.12646468428E+04  0.90555342906E+03 0.  0.
         23    2    4    4    0    0 -0.26972329165E+03 -0.86003723759E+03 -0.44048451734E+03  0.10072476754E+04  0.90036467766E+02 0.  0.
         23    2    4    4    0    0 -0.15894625570E+02  0.21767829662E+03 -0.93464937670E+02  0.25739916740E+03  0.99409038156E+02 0.  0.
          2    1    3    3  502    0  0.21418600447E+02  0.13037849850E+03 -0.13107772328E+03  0.18611469275E+03  0.00000000000E+00 0. -1.
         -1    1    3    3    0  502  0.26419931678E+03  0.51198044247E+03 -0.50902017204E+03  0.76878266630E+03  0.00000000000E+00 0.  1.
         11    1    5    5    0    0 -0.41035742176E+02 -0.10417862948E+03 -0.24226634529E+02  0.11456024091E+03  0.00000000000E+00 0. -1.
        -11    1    5    5    0    0 -0.22868754948E+03 -0.75585860811E+03 -0.41625788281E+03  0.89268743452E+03  0.00000000000E+00 0.  1.
          4    1    6    6  503    0  0.58470907576E+00  0.22213574190E+03 -0.91391904391E+02  0.24020222710E+03  0.00000000000E+00 0. -1.
         -4    1    6    6    0  503 -0.16479334645E+02 -0.44574452875E+01 -0.20730332791E+01  0.17196940304E+02  0.00000000000E+00 0.  1.
<mgrwt>
<rscale>  0 0.18836107E+04</rscale>
<asrwt>0</asrwt>
<pdfrwt beam="1">  1        2 0.26104551E+00 0.18836107E+04</pdfrwt>
<pdfrwt beam="2">  1       -1 0.80422833E-01 0.18836107E+04</pdfrwt>
<totfact> 0.16223851E+01</totfact>
</mgrwt>
</event>
<event>
12    6  0.1553355E-007  0.2105447E+04  0.7818608E-02  0.8558848E-01
          4   -1    0    0  501    0  0.00000000000E+00  0.00000000000E+00  0.60897471080E+03  0.60897471080E+03  0.00000000000E+00 0. -1.
         -3   -1    0    0    0  501 -0.00000000000E+00 -0.00000000000E+00 -0.18198237048E+04  0.18198237048E+04  0.00000000000E+00 0.  1.
         24    2    1    2    0    0  0.27877859036E+03 -0.47334671215E+03 -0.12473436157E+04  0.13652892224E+04  0.79837040144E+02 0.  0.
        254    2    1    2    0    0 -0.27877859036E+03  0.47334671215E+03  0.36494621687E+02  0.10635091932E+04  0.90991501480E+03 0.  0.
         23    2    4    4    0    0 -0.51608912541E+03  0.22351356644E+03  0.27561638060E+03  0.63280052205E+03  0.90364880928E+02 0.  0.
         23    2    4    4    0    0  0.23731053505E+03  0.24983314571E+03 -0.23912175891E+03  0.43070867110E+03  0.97968632909E+02 0.  0.
          2    1    3    3  502    0  0.29060145071E+02 -0.10032575834E+03 -0.19520982226E+03  0.22139698400E+03  0.00000000000E+00 0. -1.
         -1    1    3    3    0  502  0.24971844529E+03 -0.37302095381E+03 -0.10521337934E+04  0.11438922384E+04  0.00000000000E+00 0.  1.
         11    1    5    5    0    0 -0.49754909395E+03  0.20428044140E+03  0.27893710318E+03  0.60588076976E+03  0.00000000000E+00 0.  1.
        -11    1    5    5    0    0 -0.18540031454E+02  0.19233125041E+02 -0.33207225751E+01  0.26919752295E+02  0.00000000000E+00 0. -1.
          3    1    6    6  503    0  0.33810751458E+02  0.27630658570E+02  0.35786629944E+01  0.43811266085E+02  0.00000000000E+00 0. -1.
         -3    1    6    6    0  503  0.20349978359E+03  0.22220248714E+03 -0.24270042191E+03  0.38689740501E+03  0.00000000000E+00 0.  1.
<mgrwt>
<rscale>  0 0.21054469E+04</rscale>
<asrwt>0</asrwt>
<pdfrwt beam="1">  1        4 0.93688417E-01 0.21054469E+04</pdfrwt>
<pdfrwt beam="2">  1       -3 0.27997288E+00 0.21054469E+04</pdfrwt>
<totfact> 0.10009730E-01</totfact>
</mgrwt>
</event>
<event>
12    6  0.1553355E-007  0.1720262E+04  0.7818608E-02  0.8749892E-01
          2   -1    0    0  501    0  0.00000000000E+00  0.00000000000E+00  0.16045703338E+04  0.16045703338E+04  0.00000000000E+00 0. -1.
         -1   -1    0    0    0  501 -0.00000000000E+00 -0.00000000000E+00 -0.46107369796E+03  0.46107369796E+03  0.00000000000E+00 0.  1.
         24    2    1    2    0    0 -0.14090319141E+03 -0.50303887230E+03  0.77744822964E+03  0.94009802693E+03  0.80353805569E+02 0.  0.
        254    2    1    2    0    0  0.14090319141E+03  0.50303887230E+03  0.36604840618E+03  0.11255460048E+04  0.92734058300E+03 0.  0.
         23    2    4    4    0    0 -0.28513302904E+03  0.54942977581E+03  0.23577695312E+03  0.66831289528E+03  0.88754896060E+02 0.  0.
         23    2    4    4    0    0  0.42603622045E+03 -0.46390903509E+02  0.13027145306E+03  0.45723310953E+03  0.91828578917E+02 0.  0.
          2    1    3    3  502    0 -0.53685759644E+02 -0.33072218541E+03  0.50975430560E+03  0.61000719405E+03  0.00000000000E+00 0. -1.
         -3    1    3    3    0  502 -0.87217431764E+02 -0.17231668689E+03  0.26769392404E+03  0.33009083288E+03  0.00000000000E+00 0.  1.
         11    1    5    5    0    0 -0.71060037702E+02  0.19390815288E+03  0.44035111844E+02  0.21116105651E+03  0.00000000000E+00 0. -1.
        -11    1    5    5    0    0 -0.21407299134E+03  0.35552162293E+03  0.19174184128E+03  0.45715183876E+03  0.00000000000E+00 0.  1.
          2    1    6    6  503    0  0.26697431532E+02 -0.10171494146E+02 -0.13053065616E+02  0.31410104514E+02  0.00000000000E+00 0. -1.
         -2    1    6    6    0  503  0.39933878892E+03 -0.36219409363E+02  0.14332451868E+03  0.42582300502E+03  0.00000000000E+00 0.  1.
<mgrwt>
<rscale>  0 0.17202618E+04</rscale>
<asrwt>0</asrwt>
<pdfrwt beam="1">  1        2 0.24685697E+00 0.17202618E+04</pdfrwt>
<pdfrwt beam="2">  1       -1 0.70934416E-01 0.17202618E+04</pdfrwt>
<totfact> 0.24089884E+01</totfact>
</mgrwt>
</event>
<event>
12    6  0.1553355E-007  0.1146249E+04  0.7818608E-02  0.9161251E-01
         -1   -1    0    0    0  501 -0.00000000000E+00  0.00000000000E+00  0.67867340987E+03  0.67867340987E+03  0.00000000000E+00 0.  1.
          2   -1    0    0  501    0  0.00000000000E+00 -0.00000000000E+00 -0.48399094175E+03  0.48399094175E+03  0.00000000000E+00 0. -1.
         24    2    1    2    0    0 -0.13381572930E+03  0.10045701020E+03 -0.33566249501E+02  0.18804476630E+03  0.78967592843E+02 0.  0.
        254    2    1    2    0    0  0.13381572930E+03 -0.10045701020E+03  0.22824871763E+03  0.97461958532E+03  0.93262403930E+03 0.  0.
         23    2    4    4    0    0  0.32184056937E+03 -0.43292981892E+03  0.19687638912E+03  0.58156491756E+03  0.91912243692E+02 0.  0.
         23    2    4    4    0    0 -0.18802484007E+03  0.33247280872E+03  0.31372328506E+02  0.39305466776E+03  0.87271070982E+02 0.  0.
          4    1    3    3  502    0 -0.48716464333E+02  0.57707571509E+02 -0.51134948406E+02  0.91204389450E+02  0.00000000000E+00 0. -1.
         -3    1    3    3    0  502 -0.85099264970E+02  0.42749438691E+02  0.17568698905E+02  0.96840376848E+02  0.00000000000E+00 0.  1.
         11    1    5    5    0    0  0.32160735776E+03 -0.41057553710E+03  0.20081498356E+03  0.55886511955E+03  0.00000000000E+00 0. -1.
        -11    1    5    5    0    0  0.23321160903E+00 -0.22354281824E+02 -0.39385944392E+01  0.22699798009E+02  0.00000000000E+00 0.  1.
          3    1    6    6  503    0 -0.18683052878E+03  0.28189996159E+03  0.10566346703E+02  0.33835614744E+03  0.00000000000E+00 0. -1.
         -3    1    6    6    0  503 -0.11943112915E+01  0.50572847132E+02  0.20805981804E+02  0.54698520321E+02  0.00000000000E+00 0.  1.
<mgrwt>
<rscale>  0 0.11462492E+04</rscale>
<asrwt>0</asrwt>
<pdfrwt beam="1">  1        2 0.74460145E-01 0.11462492E+04</pdfrwt>
<pdfrwt beam="2">  1       -1 0.10441129E+00 0.11462492E+04</pdfrwt>
<totfact> 0.62505006E+01</totfact>
</mgrwt>
</event>
<event>
12    6  0.1553355E-007  0.1469316E+04  0.7818608E-02  0.8905117E-01
         -1   -1    0    0    0  501 -0.00000000000E+00  0.00000000000E+00  0.12465577021E+04  0.12465577021E+04  0.00000000000E+00 0.  1.
          2   -1    0    0  501    0  0.00000000000E+00 -0.00000000000E+00 -0.43297044380E+03  0.43297044380E+03  0.00000000000E+00 0. -1.
         24    2    1    2    0    0  0.94558987902E+02  0.36809242724E+03 -0.27689347694E+02  0.38943849150E+03  0.80387819356E+02 0.  0.
        254    2    1    2    0    0 -0.94558987902E+02 -0.36809242724E+03  0.84127660599E+03  0.12900896544E+04  0.90119451363E+03 0.  0.
         23    2    4    4    0    0  0.17425353430E+03 -0.26647821688E+02  0.82148933604E+03  0.84535141436E+03  0.93273168285E+02 0.  0.
         23    2    4    4    0    0 -0.26881252221E+03 -0.34144460555E+03  0.19787269951E+02  0.44473824003E+03  0.92498515300E+02 0.  0.
          2    1    3    3  502    0  0.10693164149E+03  0.34001019011E+03 -0.16619287529E+02  0.35681578728E+03  0.00000000000E+00 0. -1.
         -1    1    3    3    0  502 -0.12372653583E+02  0.28082237125E+02 -0.11070060165E+02  0.32622704221E+02  0.00000000000E+00 0.  1.
         11    1    5    5    0    0  0.19253070521E+02 -0.11189256251E+02  0.23791579006E+02  0.32587104988E+02  0.00000000000E+00 0. -1.
        -11    1    5    5    0    0  0.15500046378E+03 -0.15458565437E+02  0.79769775703E+03  0.81276430937E+03  0.00000000000E+00 0.  1.
          1    1    6    6  503    0 -0.66894778046E+02 -0.32238786160E+02  0.12956039681E+02  0.75379769349E+02  0.00000000000E+00 0. -1.
         -1    1    6    6    0  503 -0.20191774416E+03 -0.30920581939E+03  0.68312302699E+01  0.36935847068E+03  0.00000000000E+00 0.  1.
<mgrwt>
<rscale>  0 0.14693164E+04</rscale>
<asrwt>0</asrwt>
<pdfrwt beam="1">  1        2 0.66610838E-01 0.14693164E+04</pdfrwt>
<pdfrwt beam="2">  1       -1 0.19177811E+00 0.14693164E+04</pdfrwt>
<totfact> 0.13821195E+01</totfact>
</mgrwt>
</event>
<event>
12    6  0.1553355E-007  0.1481306E+04  0.7818608E-02  0.8896980E-01
         -1   -1    0    0    0  501 -0.00000000000E+00  0.00000000000E+00  0.29160058500E+03  0.29160058500E+03  0.00000000000E+00 0.  1.
          2   -1    0    0  501    0  0.00000000000E+00 -0.00000000000E+00 -0.18812281341E+04  0.18812281341E+04  0.00000000000E+00 0. -1.
         24    2    1    2    0    0 -0.48376677466E+02  0.91150523296E+02  0.13216012638E+03  0.18554476638E+03  0.79447092494E+02 0.  0.
        254    2    1    2    0    0  0.48376677466E+02 -0.91150523296E+02 -0.17217876755E+04  0.19872839527E+04  0.98696301270E+03 0.  0.
         23    2    4    4    0    0 -0.33501812614E+03 -0.14628254482E+03 -0.14675630408E+04  0.15151465888E+04  0.91061402040E+02 0.  0.
         23    2    4    4    0    0  0.38339480361E+03  0.55132021527E+02 -0.25422463469E+03  0.47213736396E+03  0.90842778089E+02 0.  0.
          2    1    3    3  502    0  0.19861168971E+02  0.23091504083E+02  0.51664293380E+02  0.59974017742E+02  0.00000000000E+00 0. -1.
         -1    1    3    3    0  502 -0.68237846437E+02  0.68059019213E+02  0.80495833005E+02  0.12557074864E+03  0.00000000000E+00 0.  1.
         11    1    5    5    0    0 -0.31976483179E+03 -0.11493787000E+03 -0.12777597431E+04  0.13221687573E+04  0.00000000000E+00 0.  1.
        -11    1    5    5    0    0 -0.15253294348E+02 -0.31344674826E+02 -0.18980329774E+03  0.19297783153E+03  0.00000000000E+00 0. -1.
          4    1    6    6  503    0 -0.17484474935E+01 -0.46615477428E+01  0.23546473947E+01  0.55074005074E+01  0.00000000000E+00 0. -1.
         -4    1    6    6    0  503  0.38514325110E+03  0.59793569270E+02 -0.25657928209E+03  0.46662996345E+03  0.00000000000E+00 0.  1.
<mgrwt>
<rscale>  0 0.14813065E+04</rscale>
<asrwt>0</asrwt>
<pdfrwt beam="1">  1        2 0.28941971E+00 0.14813065E+04</pdfrwt>
<pdfrwt beam="2">  1       -1 0.44861628E-01 0.14813065E+04</pdfrwt>
<totfact> 0.42232375E+01</totfact>
</mgrwt>
</event>
<event>
12    6  0.1553355E-007  0.2197291E+04  0.7818608E-02  0.8519556E-01
          2   -1    0    0  501    0  0.00000000000E+00  0.00000000000E+00  0.23391958087E+04  0.23391958087E+04  0.00000000000E+00 0. -1.
         -1   -1    0    0    0  501 -0.00000000000E+00 -0.00000000000E+00 -0.51599877377E+03  0.51599877377E+03  0.00000000000E+00 0.  1.
         24    2    1    2    0    0 -0.39134862151E+02  0.17790510634E+03  0.19183272996E+04  0.19285955770E+04  0.79495326632E+02 0.  0.
        254    2    1    2    0    0  0.39134862151E+02 -0.17790510634E+03 -0.95130264677E+02  0.92659900547E+03  0.90352320688E+03 0.  0.
         23    2    4    4    0    0 -0.10281845848E+02 -0.23564631029E+02 -0.48572570978E+03  0.49526054165E+03  0.93233742728E+02 0.  0.
         23    2    4    4    0    0  0.49416707999E+02 -0.15434047531E+03  0.39059544510E+03  0.43133846382E+03  0.85000442842E+02 0.  0.
          2    1    3    3  502    0 -0.53089275824E+01  0.15560445868E+03  0.13827143428E+04  0.13914524376E+04  0.00000000000E+00 0. -1.
         -1    1    3    3    0  502 -0.33825934569E+02  0.22300647660E+02  0.53561295680E+03  0.53714313942E+03  0.00000000000E+00 0.  1.
         11    1    5    5    0    0 -0.34973149648E+02 -0.46702452089E+02 -0.22907085252E+03  0.23638463508E+03  0.00000000000E+00 0. -1.
        -11    1    5    5    0    0  0.24691303800E+02  0.23137821060E+02 -0.25665485726E+03  0.25887590657E+03  0.00000000000E+00 0.  1.
          3    1    6    6  503    0 -0.28752075778E+01 -0.94262676095E+02  0.14342528196E+03  0.17165235340E+03  0.00000000000E+00 0. -1.
         -3    1    6    6    0  503  0.52291915577E+02 -0.60077799215E+02  0.24717016315E+03  0.25968611042E+03  0.00000000000E+00 0.  1.
<mgrwt>
<rscale>  0 0.21972912E+04</rscale>
<asrwt>0</asrwt>
<pdfrwt beam="1">  1        2 0.35987627E+00 0.21972912E+04</pdfrwt>
<pdfrwt beam="2">  1       -1 0.79384428E-01 0.21972912E+04</pdfrwt>
<totfact> 0.71054126E+00</totfact>
</mgrwt>
</event>
<event>
12    6  0.1553355E-007  0.2323953E+04  0.7818608E-02  0.8468536E-01
          2   -1    0    0  501    0  0.00000000000E+00  0.00000000000E+00  0.27323313979E+04  0.27323313979E+04  0.00000000000E+00 0. -1.
         -1   -1    0    0    0  501 -0.00000000000E+00 -0.00000000000E+00 -0.49415297644E+03  0.49415297644E+03  0.00000000000E+00 0.  1.
         24    2    1    2    0    0  0.53680469299E+03 -0.31934226054E+03  0.20656545689E+04  0.21594989068E+04  0.79799577799E+02 0.  0.
        254    2    1    2    0    0 -0.53680469299E+03  0.31934226054E+03  0.17252385250E+03  0.10669854675E+04  0.84767608813E+03 0.  0.
         23    2    4    4    0    0 -0.37899798847E+03 -0.24469786753E+03  0.78262899232E+02  0.46646304697E+03  0.89141298826E+02 0.  0.
         23    2    4    4    0    0 -0.15780670452E+03  0.56404012807E+03  0.94260953267E+02  0.60052242052E+03  0.93262147597E+02 0.  0.
          2    1    3    3  502    0  0.44127508038E+03 -0.29464250223E+03  0.17693504815E+04  0.18471976145E+04  0.00000000000E+00 0. -1.
         -1    1    3    3    0  502  0.95529612611E+02 -0.24699758315E+02  0.29630408747E+03  0.31230129234E+03  0.00000000000E+00 0.  1.
         11    1    5    5    0    0 -0.25981419490E+03 -0.11687290436E+03  0.55035519561E+02  0.29015788815E+03  0.00000000000E+00 0.  1.
        -11    1    5    5    0    0 -0.11918379357E+03 -0.12782496317E+03  0.23227379672E+02  0.17630515882E+03  0.00000000000E+00 0. -1.
          1    1    6    6  503    0 -0.72181154523E+02  0.11375104139E+03  0.21809147016E+02  0.13647365086E+03  0.00000000000E+00 0. -1.
         -1    1    6    6    0  503 -0.85625549996E+02  0.45028908668E+03  0.72451806251E+02  0.46404876966E+03  0.00000000000E+00 0.  1.
<mgrwt>
<rscale>  0 0.23239533E+04</rscale>
<asrwt>0</asrwt>
<pdfrwt beam="1">  1        2 0.42035867E+00 0.23239533E+04</pdfrwt>
<pdfrwt beam="2">  1       -1 0.76023536E-01 0.23239533E+04</pdfrwt>
<totfact> 0.45444931E+00</totfact>
</mgrwt>
</event>
<event>
12    6  0.1553355E-007  0.1530557E+04  0.7818608E-02  0.8864384E-01
         -1   -1    0    0    0  501 -0.00000000000E+00  0.00000000000E+00  0.60644923629E+03  0.60644923629E+03  0.00000000000E+00 0.  1.
          2   -1    0    0  501    0  0.00000000000E+00 -0.00000000000E+00 -0.96570481390E+03  0.96570481390E+03  0.00000000000E+00 0. -1.
         24    2    1    2    0    0 -0.35012371772E+03 -0.35186237360E+03 -0.94458029638E+02  0.51185401582E+03  0.81721885002E+02 0.  0.
        254    2    1    2    0    0  0.35012371772E+03  0.35186237360E+03 -0.26479754796E+03  0.10603000344E+04  0.89873504094E+03 0.  0.
         23    2    4    4    0    0  0.62042982136E+03  0.27275697635E+03 -0.32730129055E+03  0.75833424612E+03  0.92817900556E+02 0.  0.
         23    2    4    4    0    0 -0.27030610364E+03  0.79105397249E+02  0.62503742588E+02  0.30196578825E+03  0.89182766797E+02 0.  0.
          2    1    3    3  502    0 -0.26310437578E+03 -0.26038250389E+03 -0.33580310851E+02  0.37168615546E+03  0.00000000000E+00 0. -1.
         -1    1    3    3    0  502 -0.87019341939E+02 -0.91479869715E+02 -0.60877718787E+02  0.14016786036E+03  0.00000000000E+00 0.  1.
         11    1    5    5    0    0  0.28389446712E+03  0.76969273027E+02 -0.12547230931E+03  0.31978686316E+03  0.00000000000E+00 0.  1.
        -11    1    5    5    0    0  0.33653535424E+03  0.19578770333E+03 -0.20182898124E+03  0.43854738296E+03  0.00000000000E+00 0. -1.
          1    1    6    6  503    0 -0.25849162263E+03  0.92901387679E+02  0.68033827850E+02  0.28297913092E+03  0.00000000000E+00 0. -1.
         -1    1    6    6    0  503 -0.11814481011E+02 -0.13795990429E+02 -0.55300852629E+01  0.18986657329E+02  0.00000000000E+00 0.  1.
<mgrwt>
<rscale>  0 0.15305567E+04</rscale>
<asrwt>0</asrwt>
<pdfrwt beam="1">  1        2 0.14856997E+00 0.15305567E+04</pdfrwt>
<pdfrwt beam="2">  1       -1 0.93299882E-01 0.15305567E+04</pdfrwt>
<totfact> 0.32525202E+01</totfact>
</mgrwt>
</event>
<event>
12    6  0.1553355E-007  0.1538336E+04  0.7818608E-02  0.8859352E-01
         -1   -1    0    0    0  501 -0.00000000000E+00  0.00000000000E+00  0.35691151349E+03  0.35691151349E+03  0.00000000000E+00 0.  1.
          2   -1    0    0  501    0  0.00000000000E+00 -0.00000000000E+00 -0.16576090139E+04  0.16576090139E+04  0.00000000000E+00 0. -1.
         24    2    1    2    0    0  0.39832896226E+03  0.29622252487E+03 -0.33773641012E+03  0.60580421815E+03  0.80741077406E+02 0.  0.
        254    2    1    2    0    0 -0.39832896226E+03 -0.29622252487E+03 -0.96296109034E+03  0.14087163093E+04  0.90042980412E+03 0.  0.
         23    2    4    4    0    0  0.56343450212E+02 -0.48010743585E+03 -0.29019868676E+03  0.57119033309E+03  0.91462475797E+02 0.  0.
         23    2    4    4    0    0 -0.45467241248E+03  0.18388491098E+03 -0.67276240357E+03  0.83752597620E+03  0.91103490581E+02 0.  0.
          4    1    3    3  502    0  0.41267630679E+02  0.62068636268E+02 -0.66954711563E+02  0.10019214715E+03  0.00000000000E+00 0. -1.
         -3    1    3    3    0  502  0.35706133158E+03  0.23415388861E+03 -0.27078169856E+03  0.50561207100E+03  0.00000000000E+00 0.  1.
         11    1    5    5    0    0 -0.13787272021E+02 -0.26232228725E+02 -0.36300980352E+01  0.29856260741E+02  0.00000000000E+00 0.  1.
        -11    1    5    5    0    0  0.70130722233E+02 -0.45387520713E+03 -0.28656858873E+03  0.54133407235E+03  0.00000000000E+00 0. -1.
          4    1    6    6  503    0 -0.32110999790E+03  0.16903496782E+03 -0.51949130892E+03  0.63368420459E+03  0.00000000000E+00 0. -1.
         -4    1    6    6    0  503 -0.13356241457E+03  0.14849943160E+02 -0.15327109465E+03  0.20384177161E+03  0.00000000000E+00 0.  1.
<mgrwt>
<rscale>  0 0.15383364E+04</rscale>
<asrwt>0</asrwt>
<pdfrwt beam="1">  1        2 0.25501678E+00 0.15383364E+04</pdfrwt>
<pdfrwt beam="2">  1       -1 0.54909462E-01 0.15383364E+04</pdfrwt>
<totfact> 0.38093653E+01</totfact>
</mgrwt>
</event>
<event>
12    6  0.1553355E-007  0.1691076E+04  0.7818608E-02  0.8766470E-01
          2   -1    0    0  501    0  0.00000000000E+00  0.00000000000E+00  0.34521484149E+04  0.34521484149E+04  0.00000000000E+00 0. -1.
         -1   -1    0    0    0  501 -0.00000000000E+00 -0.00000000000E+00 -0.20709843412E+03  0.20709843412E+03  0.00000000000E+00 0.  1.
         24    2    1    2    0    0 -0.31136225199E+03  0.12984425735E+03  0.88857236889E+02  0.35779232139E+03  0.79459131399E+02 0.  0.
        254    2    1    2    0    0  0.31136225199E+03 -0.12984425735E+03  0.31561927439E+04  0.33014545276E+04  0.90787850415E+03 0.  0.
         23    2    4    4    0    0  0.11953731514E+03  0.11174935064E+03  0.28546101340E+04  0.28607441843E+04  0.91001008580E+02 0.  0.
         23    2    4    4    0    0  0.19182493685E+03 -0.24159360799E+03  0.30158260984E+03  0.44071034332E+03  0.90051420493E+02 0.  0.
          4    1    3    3  502    0 -0.49056504425E+02 -0.83023074312E+01  0.70446978208E+01  0.50250340322E+02  0.00000000000E+00 0. -1.
         -3    1    3    3    0  502 -0.26230574756E+03  0.13814656479E+03  0.81812539068E+02  0.30754198106E+03  0.00000000000E+00 0.  1.
         11    1    5    5    0    0  0.31453407065E+02  0.86664484927E+02  0.17054423582E+04  0.17079325768E+04  0.00000000000E+00 0.  1.
        -11    1    5    5    0    0  0.88083908076E+02  0.25084865713E+02  0.11491677759E+04  0.11528116075E+04  0.00000000000E+00 0. -1.
          1    1    6    6  503    0  0.10118108305E+03 -0.14659840380E+03  0.11308854137E+03  0.21099223150E+03  0.00000000000E+00 0. -1.
         -1    1    6    6    0  503  0.90643853796E+02 -0.94995204199E+02  0.18849406847E+03  0.22971811183E+03  0.00000000000E+00 0.  1.
<mgrwt>
<rscale>  0 0.16910760E+04</rscale>
<asrwt>0</asrwt>
<pdfrwt beam="1">  1        2 0.53109971E+00 0.16910760E+04</pdfrwt>
<pdfrwt beam="2">  1       -1 0.31861300E-01 0.16910760E+04</pdfrwt>
<totfact> 0.88156919E+00</totfact>
</mgrwt>
</event>
<event>
12    6  0.1553355E-007  0.2055295E+04  0.7818608E-02  0.8581196E-01
          2   -1    0    0  501    0  0.00000000000E+00  0.00000000000E+00  0.49818506816E+04  0.49818506816E+04  0.00000000000E+00 0. -1.
         -1   -1    0    0    0  501 -0.00000000000E+00 -0.00000000000E+00 -0.21198129090E+03  0.21198129090E+03  0.00000000000E+00 0.  1.
         24    2    1    2    0    0 -0.66977187959E+03 -0.34946961029E+03  0.13575467660E+04  0.15555871439E+04  0.78706804941E+02 0.  0.
        254    2    1    2    0    0  0.66977187959E+03  0.34946961029E+03  0.34123226246E+04  0.36382448285E+04  0.10110174869E+04 0.  0.
         23    2    4    4    0    0  0.52920736380E+02  0.53459450144E+03  0.21546044212E+04  0.22223399533E+04  0.88784969118E+02 0.  0.
         23    2    4    4    0    0  0.61685114321E+03 -0.18512489115E+03  0.12577182034E+04  0.14159048753E+04  0.90304919072E+02 0.  0.
          2    1    3    3  502    0 -0.13791477461E+02  0.20594049047E+01  0.40184599654E+02  0.42535256534E+02  0.00000000000E+00 0. -1.
         -1    1    3    3    0  502 -0.65598040213E+03 -0.35152901519E+03  0.13173621664E+04  0.15130518874E+04  0.00000000000E+00 0.  1.
         11    1    5    5    0    0  0.12696428135E+02  0.10124652707E+03  0.56977086490E+03  0.57883581179E+03  0.00000000000E+00 0.  1.
        -11    1    5    5    0    0  0.40224308245E+02  0.43334797437E+03  0.15848335563E+04  0.16435041415E+04  0.00000000000E+00 0. -1.
          4    1    6    6  503    0  0.41405563592E+03 -0.16789926056E+03  0.86183792944E+03  0.97077126449E+03  0.00000000000E+00 0. -1.
         -4    1    6    6    0  503  0.20279550729E+03 -0.17225630598E+02  0.39588027398E+03  0.44513361078E+03  0.00000000000E+00 0.  1.
<mgrwt>
<rscale>  0 0.20552948E+04</rscale>
<asrwt>0</asrwt>
<pdfrwt beam="1">  1        2 0.76643847E+00 0.20552948E+04</pdfrwt>
<pdfrwt beam="2">  1       -1 0.32612510E-01 0.20552948E+04</pdfrwt>
<totfact> 0.34309291E-01</totfact>
</mgrwt>
</event>
<event>
12    6  0.1553355E-007  0.1386122E+04  0.7818608E-02  0.8963926E-01
         -1   -1    0    0    0  501 -0.00000000000E+00  0.00000000000E+00  0.27838457509E+03  0.27838457509E+03  0.00000000000E+00 0.  1.
          2   -1    0    0  501    0  0.00000000000E+00 -0.00000000000E+00 -0.17254307652E+04  0.17254307652E+04  0.00000000000E+00 0. -1.
         24    2    1    2    0    0 -0.19208534712E+03  0.34369430036E+03 -0.50163132089E+03  0.64244544088E+03  0.77971852173E+02 0.  0.
        254    2    1    2    0    0  0.19208534712E+03 -0.34369430036E+03 -0.94541486917E+03  0.13613698994E+04  0.89693710782E+03 0.  0.
         23    2    4    4    0    0  0.14107169904E+03 -0.25755106006E+03  0.87990834909E+02  0.31941716944E+03  0.89728302662E+02 0.  0.
         23    2    4    4    0    0  0.51013648074E+02 -0.86143240299E+02 -0.10334057041E+04  0.10419527299E+04  0.87835596664E+02 0.  0.
          2    1    3    3  502    0 -0.13202847070E+03  0.24738998539E+03 -0.40925434381E+03  0.49610728665E+03  0.00000000000E+00 0. -1.
         -1    1    3    3    0  502 -0.60056876421E+02  0.96304314965E+02 -0.92376977082E+02  0.14633815422E+03  0.00000000000E+00 0.  1.
         11    1    5    5    0    0  0.13920893958E+03 -0.25970512589E+03  0.72209706904E+02  0.30338115143E+03  0.00000000000E+00 0.  1.
        -11    1    5    5    0    0  0.18627594592E+01  0.21540658345E+01  0.15781128005E+02  0.16036018007E+02  0.00000000000E+00 0. -1.
          3    1    6    6  503    0  0.56368115205E+02 -0.95590161106E+02 -0.73317725481E+03  0.74152797000E+03  0.00000000000E+00 0. -1.
         -3    1    6    6    0  503 -0.53544671310E+01  0.94469208066E+01 -0.30022844926E+03  0.30042475993E+03  0.00000000000E+00 0.  1.
<mgrwt>
<rscale>  0 0.13861217E+04</rscale>
<asrwt>0</asrwt>
<pdfrwt beam="1">  1        2 0.26545089E+00 0.13861217E+04</pdfrwt>
<pdfrwt beam="2">  1       -1 0.42828396E-01 0.13861217E+04</pdfrwt>
<totfact> 0.56577677E+01</totfact>
</mgrwt>
</event>
<event>
12    6  0.1553355E-007  0.1354453E+04  0.7818608E-02  0.8987464E-01
         -1   -1    0    0    0  501 -0.00000000000E+00  0.00000000000E+00  0.17597496058E+03  0.17597496058E+03  0.00000000000E+00 0.  1.
          2   -1    0    0  501    0  0.00000000000E+00 -0.00000000000E+00 -0.26062545695E+04  0.26062545695E+04  0.00000000000E+00 0. -1.
         24    2    1    2    0    0 -0.68942800978E+02  0.29777326484E+03 -0.23641656963E+03  0.39497143599E+03  0.81777831932E+02 0.  0.
        254    2    1    2    0    0  0.68942800978E+02 -0.29777326484E+03 -0.21938630393E+04  0.23872580940E+04  0.89024948497E+03 0.  0.
         23    2    4    4    0    0  0.10726729399E+03 -0.60309225022E+03 -0.13903362338E+04  0.15218619957E+04  0.88332080416E+02 0.  0.
         23    2    4    4    0    0 -0.38324493007E+02  0.30531898538E+03 -0.80352680548E+03  0.86539609832E+03  0.92556092532E+02 0.  0.
          4    1    3    3  502    0  0.14370038155E+02  0.11973186458E+02 -0.14209310741E+02  0.23489565817E+02  0.00000000000E+00 0. -1.
         -3    1    3    3    0  502 -0.83312839133E+02  0.28580007838E+03 -0.22220725889E+03  0.37148187018E+03  0.00000000000E+00 0.  1.
         11    1    5    5    0    0  0.18967894549E+02 -0.12344531102E+03 -0.20410018612E+03  0.23928103103E+03  0.00000000000E+00 0.  1.
        -11    1    5    5    0    0  0.88299399436E+02 -0.47964693920E+03 -0.11862360477E+04  0.12825809647E+04  0.00000000000E+00 0. -1.
          3    1    6    6  503    0 -0.24820881986E+02  0.22276451413E+03 -0.45825083060E+03  0.51013128574E+03  0.00000000000E+00 0.  1.
         -3    1    6    6    0  503 -0.13503611020E+02  0.82554471257E+02 -0.34527597488E+03  0.35526481259E+03  0.00000000000E+00 0. -1.
<mgrwt>
<rscale>  0 0.13544527E+04</rscale>
<asrwt>0</asrwt>
<pdfrwt beam="1">  1        2 0.40096224E+00 0.13544527E+04</pdfrwt>
<pdfrwt beam="2">  1       -1 0.27073071E-01 0.13544527E+04</pdfrwt>
<totfact> 0.41180814E+01</totfact>
</mgrwt>
</event>
<event>
12    6  0.1553355E-007  0.2086749E+04  0.7818608E-02  0.8567103E-01
         -1   -1    0    0    0  501 -0.00000000000E+00  0.00000000000E+00  0.11529032081E+04  0.11529032081E+04  0.00000000000E+00 0.  1.
          2   -1    0    0  501    0  0.00000000000E+00 -0.00000000000E+00 -0.94425093408E+03  0.94425093408E+03  0.00000000000E+00 0. -1.
         24    2    1    2    0    0  0.37782891421E+03 -0.34326315466E+03  0.76446232057E+03  0.92304772578E+03  0.83846184973E+02 0.  0.
        254    2    1    2    0    0 -0.37782891421E+03  0.34326315466E+03 -0.55581004659E+03  0.11741064163E+04  0.89945360484E+03 0.  0.
         23    2    4    4    0    0 -0.14706935682E+03  0.63101461230E+03 -0.36385424629E+03  0.74853790891E+03  0.90056936922E+02 0.  0.
         23    2    4    4    0    0 -0.23075955739E+03 -0.28775145764E+03 -0.19195580031E+03  0.42556850743E+03  0.90612640122E+02 0.  0.
          4    1    3    3  502    0  0.14778304549E+02  0.13583867582E+01  0.11045269375E+02  0.18499769606E+02  0.00000000000E+00 0. -1.
         -3    1    3    3    0  502  0.36305060966E+03 -0.34462154142E+03  0.75341705119E+03  0.90454795617E+03  0.00000000000E+00 0.  1.
         11    1    5    5    0    0 -0.12453151662E+03  0.37184949975E+03 -0.19088217544E+03  0.43613776952E+03  0.00000000000E+00 0.  1.
        -11    1    5    5    0    0 -0.22537840202E+02  0.25916511255E+03 -0.17297207085E+03  0.31240013940E+03  0.00000000000E+00 0. -1.
          3    1    6    6  503    0 -0.23778401613E+03 -0.27124005889E+03 -0.18949681010E+03  0.40745729704E+03  0.00000000000E+00 0. -1.
         -3    1    6    6    0  503  0.70244587397E+01 -0.16511398744E+02 -0.24589902089E+01  0.18111210394E+02  0.00000000000E+00 0.  1.
<mgrwt>
<rscale>  0 0.20867486E+04</rscale>
<asrwt>0</asrwt>
<pdfrwt beam="1">  1        2 0.14526937E+00 0.20867486E+04</pdfrwt>
<pdfrwt beam="2">  1       -1 0.17736972E+00 0.20867486E+04</pdfrwt>
<totfact> 0.62662015E+00</totfact>
</mgrwt>
</event>
<event>
12    6  0.1553355E-007  0.1409045E+04  0.7818608E-02  0.8947297E-01
          2   -1    0    0  501    0  0.00000000000E+00  0.00000000000E+00  0.24382403943E+04  0.24382403943E+04  0.00000000000E+00 0. -1.
         -1   -1    0    0    0  501 -0.00000000000E+00 -0.00000000000E+00 -0.20356972965E+03  0.20356972965E+03  0.00000000000E+00 0.  1.
         24    2    1    2    0    0  0.19216918038E+03 -0.24162413403E+03  0.14542508057E+03  0.35057051251E+03  0.80249698716E+02 0.  0.
        254    2    1    2    0    0 -0.19216918038E+03  0.24162413403E+03  0.20892455841E+04  0.22912396114E+04  0.88854973434E+03 0.  0.
         23    2    4    4    0    0 -0.15249152614E+03  0.17397414196E+03  0.57863065449E+02  0.25618463992E+03  0.93604314926E+02 0.  0.
         23    2    4    4    0    0 -0.39677654247E+02  0.67649992075E+02  0.20313825186E+04  0.20350549715E+04  0.93717460708E+02 0.  0.
          4    1    3    3  502    0  0.38527052907E+02 -0.11039825254E+03  0.52692971390E+02  0.12825231851E+03  0.00000000000E+00 0. -1.
         -3    1    3    3    0  502  0.15364212748E+03 -0.13122588150E+03  0.92732109183E+02  0.22231819400E+03  0.00000000000E+00 0.  1.
         11    1    5    5    0    0 -0.26287356693E+01  0.60729707759E+02  0.23817167245E+02  0.65286025391E+02  0.00000000000E+00 0. -1.
        -11    1    5    5    0    0 -0.14986279047E+03  0.11324443420E+03  0.34045898204E+02  0.19089861453E+03  0.00000000000E+00 0.  1.
          4    1    6    6  503    0 -0.42718766291E+02 -0.23323849945E+01  0.42549198522E+03  0.42763741943E+03  0.00000000000E+00 0. -1.
         -4    1    6    6    0  503  0.30411120442E+01  0.69982377069E+02  0.16058905334E+04  0.16074175521E+04  0.00000000000E+00 0.  1.
<mgrwt>
<rscale>  0 0.14090450E+04</rscale>
<asrwt>0</asrwt>
<pdfrwt beam="1">  1        2 0.37511389E+00 0.14090450E+04</pdfrwt>
<pdfrwt beam="2">  1       -1 0.31318422E-01 0.14090450E+04</pdfrwt>
<totfact> 0.39724052E+01</totfact>
</mgrwt>
</event>
<event>
12    6  0.1553355E-007  0.1513014E+04  0.7818608E-02  0.8875845E-01
         -1   -1    0    0    0  501 -0.00000000000E+00  0.00000000000E+00  0.91837573437E+03  0.91837573437E+03  0.00000000000E+00 0.  1.
          2   -1    0    0  501    0  0.00000000000E+00 -0.00000000000E+00 -0.62316840110E+03  0.62316840110E+03  0.00000000000E+00 0. -1.
         24    2    1    2    0    0  0.74293455976E+02  0.22090342911E+03  0.53677558287E+03  0.59054090184E+03  0.79326463331E+02 0.  0.
        254    2    1    2    0    0 -0.74293455976E+02 -0.22090342911E+03 -0.24156824960E+03  0.95100323363E+03  0.88979440803E+03 0.  0.
         23    2    4    4    0    0 -0.21991145186E+03  0.27130473535E+03  0.30494243669E+02  0.36331247602E+03  0.95387369460E+02 0.  0.
         23    2    4    4    0    0  0.14561799588E+03 -0.49220816445E+03 -0.27206249327E+03  0.58769075762E+03  0.88819752653E+02 0.  0.
          4    1    3    3  502    0  0.22904663107E+02  0.41195669423E+01  0.56579709417E+02  0.61178901114E+02  0.00000000000E+00 0. -1.
         -3    1    3    3    0  502  0.51388792869E+02  0.21678386216E+03  0.48019587345E+03  0.52936200072E+03  0.00000000000E+00 0.  1.
         11    1    5    5    0    0 -0.13577519416E+03  0.12896056261E+03 -0.24951511525E+02  0.18891349340E+03  0.00000000000E+00 0.  1.
        -11    1    5    5    0    0 -0.84136257693E+02  0.14234417273E+03  0.55445755195E+02  0.17439898262E+03  0.00000000000E+00 0. -1.
          1    1    6    6  503    0  0.41209821578E+02 -0.12465638029E+03 -0.11514605552E+03  0.17463125907E+03  0.00000000000E+00 0. -1.
         -1    1    6    6    0  503  0.10440817430E+03 -0.36755178417E+03 -0.15691643775E+03  0.41305949855E+03  0.00000000000E+00 0.  1.
<mgrwt>
<rscale>  0 0.15130139E+04</rscale>
<asrwt>0</asrwt>
<pdfrwt beam="1">  1        2 0.95872061E-01 0.15130139E+04</pdfrwt>
<pdfrwt beam="2">  1       -1 0.14128857E+00 0.15130139E+04</pdfrwt>
<totfact> 0.21375359E+01</totfact>
</mgrwt>
</event>
<event>
12    6  0.1553355E-007  0.1381074E+04  0.7818608E-02  0.8967633E-01
         -1   -1    0    0    0  501 -0.00000000000E+00  0.00000000000E+00  0.34838967248E+03  0.34838967248E+03  0.00000000000E+00 0.  1.
          2   -1    0    0  501    0  0.00000000000E+00 -0.00000000000E+00 -0.13687019234E+04  0.13687019234E+04  0.00000000000E+00 0. -1.
         24    2    1    2    0    0 -0.32106179650E+03 -0.77434505117E+02 -0.27050058071E+02  0.34171971473E+03  0.83449853439E+02 0.  0.
        254    2    1    2    0    0  0.32106179650E+03  0.77434505117E+02 -0.99326219285E+03  0.13753718812E+04  0.89218902031E+03 0.  0.
         23    2    4    4    0    0  0.11761366450E+03  0.45356222502E+03 -0.70475706390E+03  0.85119663308E+03  0.91112693998E+02 0.  0.
         23    2    4    4    0    0  0.20344813199E+03 -0.37612771990E+03 -0.28850512895E+03  0.52417524807E+03  0.93065982908E+02 0.  0.
          2    1    3    3  502    0 -0.15743935784E+03 -0.60740875301E+02 -0.49168470571E+02  0.17576730023E+03  0.00000000000E+00 0. -1.
         -1    1    3    3    0  502 -0.16362243865E+03 -0.16693629816E+02  0.22118412499E+02  0.16595241450E+03  0.00000000000E+00 0.  1.
         11    1    5    5    0    0  0.11565603192E+03  0.45514708157E+03 -0.68050725982E+03  0.82681637275E+03  0.00000000000E+00 0. -1.
        -11    1    5    5    0    0  0.19576325865E+01 -0.15848565566E+01 -0.24249804082E+02  0.24380260328E+02  0.00000000000E+00 0.  1.
          1    1    6    6  503    0  0.71775972848E+02 -0.20364714616E+03 -0.18226658626E+03  0.28256867994E+03  0.00000000000E+00 0. -1.
         -1    1    6    6    0  503  0.13167215914E+03 -0.17248057374E+03 -0.10623854269E+03  0.24160656813E+03  0.00000000000E+00 0.  1.
<mgrwt>
<rscale>  0 0.13810744E+04</rscale>
<asrwt>0</asrwt>
<pdfrwt beam="1">  1        2 0.21056953E+00 0.13810744E+04</pdfrwt>
<pdfrwt beam="2">  1       -1 0.53598411E-01 0.13810744E+04</pdfrwt>
<totfact> 0.58840605E+01</totfact>
</mgrwt>
</event>
<event>
12    6  0.1553355E-007  0.1784710E+04  0.7818608E-02  0.8714473E-01
          2   -1    0    0  501    0  0.00000000000E+00  0.00000000000E+00  0.16187557334E+04  0.16187557334E+04  0.00000000000E+00 0. -1.
         -1   -1    0    0    0  501 -0.00000000000E+00 -0.00000000000E+00 -0.49191923952E+03  0.49191923952E+03  0.00000000000E+00 0.  1.
         24    2    1    2    0    0 -0.37453205844E+03 -0.31068753813E+02 -0.22811326666E+03  0.44728566941E+03  0.82397071388E+02 0.  0.
        254    2    1    2    0    0  0.37453205844E+03  0.31068753813E+02  0.13549497605E+04  0.16633893035E+04  0.88867068770E+03 0.  0.
         23    2    4    4    0    0 -0.87861599850E+02  0.18272405386E+03  0.15084068806E+01  0.22217070618E+03  0.90828447128E+02 0.  0.
         23    2    4    4    0    0  0.46239365829E+03 -0.15165530004E+03  0.13534413536E+04  0.14412185973E+04  0.92197192208E+02 0.  0.
          4    1    3    3  502    0 -0.65891656285E+02 -0.22100693364E+02 -0.76314712571E+02  0.10321863383E+03  0.00000000000E+00 0. -1.
         -3    1    3    3    0  502 -0.30864040216E+03 -0.89680604490E+01 -0.15179855409E+03  0.34406703558E+03  0.00000000000E+00 0.  1.
         11    1    5    5    0    0 -0.95190256232E+02  0.18753237718E+03  0.91997397843E+01  0.21050941211E+03  0.00000000000E+00 0.  1.
        -11    1    5    5    0    0  0.73286563819E+01 -0.48083233292E+01 -0.76913329036E+01  0.11661294072E+02  0.00000000000E+00 0. -1.
          4    1    6    6  503    0  0.72459088981E+02 -0.56858576720E+02  0.20676338831E+03  0.22634998579E+03  0.00000000000E+00 0. -1.
         -4    1    6    6    0  503  0.38993456931E+03 -0.94796723323E+02  0.11466779653E+04  0.12148686115E+04  0.00000000000E+00 0.  1.
<mgrwt>
<rscale>  0 0.17847096E+04</rscale>
<asrwt>0</asrwt>
<pdfrwt beam="1">  1        2 0.24903934E+00 0.17847096E+04</pdfrwt>
<pdfrwt beam="2">  1       -1 0.75679884E-01 0.17847096E+04</pdfrwt>
<totfact> 0.20564098E+01</totfact>
</mgrwt>
</event>
<event>
12    6  0.1553355E-007  0.3584871E+04  0.7818608E-02  0.8093966E-01
          2   -1    0    0  501    0  0.00000000000E+00  0.00000000000E+00  0.10364538563E+04  0.10364538563E+04  0.00000000000E+00 0. -1.
         -1   -1    0    0    0  501 -0.00000000000E+00 -0.00000000000E+00 -0.30998249358E+04  0.30998249358E+04  0.00000000000E+00 0.  1.
         24    2    1    2    0    0 -0.11447690753E+04  0.42197406272E+02  0.44878499265E+03  0.12325322230E+04  0.73829901959E+02 0.  0.
        254    2    1    2    0    0  0.11447690753E+04 -0.42197406272E+02 -0.25121560721E+04  0.29037465690E+04  0.89918805028E+03 0.  0.
         23    2    4    4    0    0  0.83823570363E+03 -0.47199483246E+02 -0.80364539081E+03  0.11656373134E+04  0.89429000847E+02 0.  0.
         23    2    4    4    0    0  0.30653337163E+03  0.50020769746E+01 -0.17085106813E+04  0.17381092556E+04  0.89595243554E+02 0.  0.
          2    1    3    3  502    0 -0.11454991109E+04  0.41708602669E+02  0.44965190399E+03  0.12312979555E+04  0.00000000000E+00 0. -1.
         -1    1    3    3    0  502  0.73003561935E+00  0.48880360277E+00 -0.86691134099E+00  0.12342674916E+01  0.00000000000E+00 0.  1.
         11    1    5    5    0    0  0.34324536502E+03 -0.47503183251E+02 -0.37813072456E+03  0.51289061006E+03  0.00000000000E+00 0. -1.
        -11    1    5    5    0    0  0.49499033861E+03  0.30370000471E+00 -0.42551466625E+03  0.65274670336E+03  0.00000000000E+00 0.  1.
          3    1    6    6  503    0  0.11095658067E+03  0.45049856362E+02 -0.63405470879E+03  0.64526446214E+03  0.00000000000E+00 0. -1.
         -3    1    6    6    0  503  0.19557679097E+03 -0.40047779387E+02 -0.10744559725E+04  0.10928447935E+04  0.00000000000E+00 0.  1.
<mgrwt>
<rscale>  0 0.35848713E+04</rscale>
<asrwt>0</asrwt>
<pdfrwt beam="1">  1        2 0.15945444E+00 0.35848713E+04</pdfrwt>
<pdfrwt beam="2">  1       -1 0.47689613E+00 0.35848713E+04</pdfrwt>
<totfact> 0.47014802E-02</totfact>
</mgrwt>
</event>
<event>
12    6  0.1553355E-007  0.2042219E+04  0.7818608E-02  0.8587132E-01
         -1   -1    0    0    0  501 -0.00000000000E+00  0.00000000000E+00  0.62871938618E+03  0.62871938618E+03  0.00000000000E+00 0.  1.
          2   -1    0    0  501    0  0.00000000000E+00 -0.00000000000E+00 -0.16583948871E+04  0.16583948871E+04  0.00000000000E+00 0. -1.
         24    2    1    2    0    0 -0.63845878625E+03 -0.38297641091E+03 -0.81054845141E+03  0.11027792348E+04  0.69517591228E+02 0.  0.
        254    2    1    2    0    0  0.63845878625E+03  0.38297641091E+03 -0.21912704949E+03  0.11843350385E+04  0.89461291436E+03 0.  0.
         23    2    4    4    0    0  0.50737209493E+03  0.59802177975E+03  0.67041058794E+02  0.79234184425E+03  0.90854844804E+02 0.  0.
         23    2    4    4    0    0  0.13108669132E+03 -0.21504536883E+03 -0.28616810829E+03  0.39199319425E+03  0.91314001330E+02 0.  0.
          4    1    3    3  502    0 -0.57926489818E+03 -0.36509934594E+03 -0.72509593255E+03  0.99730109098E+03  0.00000000000E+00 0. -1.
         -3    1    3    3    0  502 -0.59193888068E+02 -0.17877064974E+02 -0.85452518858E+02  0.10547814378E+03  0.00000000000E+00 0.  1.
         11    1    5    5    0    0  0.18244370237E+03  0.20593393501E+03 -0.19490820566E+02  0.27581584837E+03  0.00000000000E+00 0.  1.
        -11    1    5    5    0    0  0.32492839256E+03  0.39208784473E+03  0.86531879359E+02  0.51652599588E+03  0.00000000000E+00 0. -1.
          2    1    6    6  503    0  0.81006650342E+02 -0.56777655510E+02 -0.13581865064E+03  0.16802525235E+03  0.00000000000E+00 0. -1.
         -2    1    6    6    0  503  0.50080040982E+02 -0.15826771332E+03 -0.15034945765E+03  0.22396794190E+03  0.00000000000E+00 0.  1.
<mgrwt>
<rscale>  0 0.20422194E+04</rscale>
<asrwt>0</asrwt>
<pdfrwt beam="1">  1        2 0.25513767E+00 0.20422194E+04</pdfrwt>
<pdfrwt beam="2">  1       -1 0.96726061E-01 0.20422194E+04</pdfrwt>
<totfact> 0.11216018E+01</totfact>
</mgrwt>
</event>
<event>
12    6  0.1553355E-007  0.1560263E+04  0.7818608E-02  0.8845339E-01
          2   -1    0    0  501    0  0.00000000000E+00  0.00000000000E+00  0.49444510995E+03  0.49444510995E+03  0.00000000000E+00 0. -1.
         -1   -1    0    0    0  501 -0.00000000000E+00 -0.00000000000E+00 -0.12308856183E+04  0.12308856183E+04  0.00000000000E+00 0.  1.
         24    2    1    2    0    0 -0.37325913210E+03 -0.25909908862E+03  0.29881673405E+02  0.46220745944E+03  0.79297564512E+02 0.  0.
        254    2    1    2    0    0  0.37325913210E+03  0.25909908862E+03 -0.76632218177E+03  0.12631232688E+04  0.89541944840E+03 0.  0.
         23    2    4    4    0    0  0.17414146090E+02 -0.27288962255E+03 -0.47191266994E+03  0.55299312649E+03  0.91256952146E+02 0.  0.
         23    2    4    4    0    0  0.35584498601E+03  0.53198871117E+03 -0.29440951183E+03  0.71013014234E+03  0.89276063606E+02 0.  0.
          4    1    3    3  502    0 -0.26764450060E+03 -0.19162781343E+03  0.56760195079E+02  0.33403071314E+03  0.00000000000E+00 0. -1.
         -3    1    3    3    0  502 -0.10561463150E+03 -0.67471275191E+02 -0.26878521674E+02  0.12817674629E+03  0.00000000000E+00 0.  1.
         11    1    5    5    0    0 -0.40280925555E+01 -0.18271928597E+02 -0.10017145450E+03  0.10190392143E+03  0.00000000000E+00 0. -1.
        -11    1    5    5    0    0  0.21442238645E+02 -0.25461769395E+03 -0.37174121544E+03  0.45108920507E+03  0.00000000000E+00 0.  1.
          2    1    6    6  503    0 -0.34081259867E+00  0.33502904918E+02 -0.17396403728E+02  0.37751763586E+02  0.00000000000E+00 0. -1.
         -2    1    6    6    0  503  0.35618579861E+03  0.49848580625E+03 -0.27701310810E+03  0.67237837876E+03  0.00000000000E+00 0.  1.
<mgrwt>
<rscale>  0 0.15602633E+04</rscale>
<asrwt>0</asrwt>
<pdfrwt beam="1">  1        2 0.76068479E-01 0.15602633E+04</pdfrwt>
<pdfrwt beam="2">  1       -1 0.18936702E+00 0.15602633E+04</pdfrwt>
<totfact> 0.12244019E+01</totfact>
</mgrwt>
</event>
<event>
12    6  0.1553355E-007  0.2523837E+04  0.7818608E-02  0.8394542E-01
         -1   -1    0    0    0  501 -0.00000000000E+00  0.00000000000E+00  0.70967510404E+03  0.70967510404E+03  0.00000000000E+00 0.  1.
          2   -1    0    0  501    0  0.00000000000E+00 -0.00000000000E+00 -0.22438974815E+04  0.22438974815E+04  0.00000000000E+00 0. -1.
         24    2    1    2    0    0 -0.14356813725E+03 -0.91315319196E+03  0.34779587540E+02  0.92886112613E+03  0.84337476232E+02 0.  0.
        254    2    1    2    0    0  0.14356813725E+03  0.91315319196E+03 -0.15690019650E+04  0.20247114594E+04  0.88500212750E+03 0.  0.
         23    2    4    4    0    0  0.10926647242E+03  0.63133579111E+03 -0.15985338354E+04  0.17246842938E+04  0.93281549202E+02 0.  0.
         23    2    4    4    0    0  0.34301664828E+02  0.28181740085E+03  0.29531870393E+02  0.30002716557E+03  0.92447374635E+02 0.  0.
          4    1    3    3  502    0 -0.12863751252E+03 -0.64711522014E+03  0.52178445484E+02  0.66183707054E+03  0.00000000000E+00 0. -1.
         -3    1    3    3    0  502 -0.14930624730E+02 -0.26603797183E+03 -0.17398857945E+02  0.26702405559E+03  0.00000000000E+00 0.  1.
         11    1    5    5    0    0  0.60144198783E+02  0.31755070630E+03 -0.68261068281E+03  0.75525698937E+03  0.00000000000E+00 0.  1.
        -11    1    5    5    0    0  0.49122273636E+02  0.31378508482E+03 -0.91592315256E+03  0.96942730445E+03  0.00000000000E+00 0. -1.
          1    1    6    6  503    0 -0.22478445935E+01  0.24139810078E+03  0.83244986893E+01  0.24155205059E+03  0.00000000000E+00 0. -1.
         -1    1    6    6    0  503  0.36549509422E+02  0.40419300074E+02  0.21207371703E+02  0.58475114981E+02  0.00000000000E+00 0.  1.
<mgrwt>
<rscale>  0 0.25238369E+04</rscale>
<asrwt>0</asrwt>
<pdfrwt beam="1">  1        2 0.34521499E+00 0.25238369E+04</pdfrwt>
<pdfrwt beam="2">  1       -1 0.10918079E+00 0.25238369E+04</pdfrwt>
<totfact> 0.38359065E+00</totfact>
</mgrwt>
</event>
<event>
12    6  0.1553355E-007  0.3310010E+04  0.7818608E-02  0.8160353E-01
         -1   -1    0    0    0  501 -0.00000000000E+00  0.00000000000E+00  0.93366657902E+03  0.93366657902E+03  0.00000000000E+00 0.  1.
          2   -1    0    0  501    0  0.00000000000E+00 -0.00000000000E+00 -0.29336404005E+04  0.29336404005E+04  0.00000000000E+00 0. -1.
         24    2    1    2    0    0 -0.10008309369E+04 -0.45143408239E+03 -0.21709866404E+04  0.24341153534E+04  0.79241819180E+02 0.  0.
        254    2    1    2    0    0  0.10008309369E+04  0.45143408239E+03  0.17101281888E+03  0.14331916261E+04  0.90517266749E+03 0.  0.
         23    2    4    4    0    0  0.62400180317E+03  0.53810843875E+03 -0.23841173719E+03  0.86250977371E+03  0.90244174846E+02 0.  0.
         23    2    4    4    0    0  0.37682913375E+03 -0.86674356360E+02  0.40942455607E+03  0.57068185243E+03  0.92394098753E+02 0.  0.
          2    1    3    3  502    0 -0.67949999131E+03 -0.26676197077E+03 -0.14607758940E+04  0.16330181872E+04  0.00000000000E+00 0. -1.
         -1    1    3    3    0  502 -0.32133094562E+03 -0.18467211162E+03 -0.71021074635E+03  0.80109716617E+03  0.00000000000E+00 0.  1.
         11    1    5    5    0    0  0.45709967269E+03  0.36434563170E+03 -0.13275711918E+03  0.59942664506E+03  0.00000000000E+00 0. -1.
        -11    1    5    5    0    0  0.16690213049E+03  0.17376280705E+03 -0.10565461801E+03  0.26308312865E+03  0.00000000000E+00 0.  1.
          4    1    6    6  503    0  0.29058441197E+03 -0.10456068844E+03  0.33176169010E+03  0.45325275186E+03  0.00000000000E+00 0. -1.
         -4    1    6    6    0  503  0.86244721779E+02  0.17886332084E+02  0.77662865973E+02  0.11742910057E+03  0.00000000000E+00 0.  1.
<mgrwt>
<rscale>  0 0.33100103E+04</rscale>
<asrwt>0</asrwt>
<pdfrwt beam="1">  1        2 0.45132929E+00 0.33100103E+04</pdfrwt>
<pdfrwt beam="2">  1       -1 0.14364101E+00 0.33100103E+04</pdfrwt>
<totfact> 0.71071122E-01</totfact>
</mgrwt>
</event>
<event>
12    6  0.1553355E-007  0.1865879E+04  0.7818608E-02  0.8672030E-01
         -1   -1    0    0    0  501 -0.00000000000E+00  0.00000000000E+00  0.75160591119E+03  0.75160591119E+03  0.00000000000E+00 0.  1.
          2   -1    0    0  501    0  0.00000000000E+00 -0.00000000000E+00 -0.11580217929E+04  0.11580217929E+04  0.00000000000E+00 0. -1.
         24    2    1    2    0    0  0.54008703609E+03  0.11812057297E+03  0.31914968407E+03  0.64338090089E+03  0.80224600198E+02 0.  0.
        254    2    1    2    0    0 -0.54008703609E+03 -0.11812057297E+03 -0.72556556579E+03  0.12662468032E+04  0.87823066449E+03 0.  0.
         23    2    4    4    0    0 -0.66407949537E+03  0.34291524311E+02 -0.79314388980E+03  0.10390481220E+04  0.91467399183E+02 0.  0.
         23    2    4    4    0    0  0.12399245928E+03 -0.15241209728E+03  0.67578324018E+02  0.22719868119E+03  0.91917536437E+02 0.  0.
          2    1    3    3  502    0  0.34763830897E+02 -0.35898120986E+01  0.31564566275E+01  0.35090937690E+02  0.00000000000E+00 0. -1.
         -1    1    3    3    0  502  0.50532320519E+03  0.12171038506E+03  0.31599322745E+03  0.60828996320E+03  0.00000000000E+00 0.  1.
         11    1    5    5    0    0 -0.55965373721E+03  0.57426337503E+02 -0.69203546056E+03  0.89186499454E+03  0.00000000000E+00 0.  1.
        -11    1    5    5    0    0 -0.10442575815E+03 -0.23134813192E+02 -0.10110842925E+03  0.14718312747E+03  0.00000000000E+00 0. -1.
          1    1    6    6  503    0  0.20771127028E+00  0.11506452219E+02  0.36998561261E+01  0.12088445806E+02  0.00000000000E+00 0. -1.
         -1    1    6    6    0  503  0.12378474801E+03 -0.16391854950E+03  0.63878467892E+02  0.21511023539E+03  0.00000000000E+00 0.  1.
<mgrwt>
<rscale>  0 0.18658789E+04</rscale>
<asrwt>0</asrwt>
<pdfrwt beam="1">  1        2 0.17815720E+00 0.18658789E+04</pdfrwt>
<pdfrwt beam="2">  1       -1 0.11563168E+00 0.18658789E+04</pdfrwt>
<totfact> 0.14566124E+01</totfact>
</mgrwt>
</event>
<event>
12    6  0.1553355E-007  0.1620526E+04  0.7818608E-02  0.8808036E-01
         -1   -1    0    0    0  501 -0.00000000000E+00  0.00000000000E+00  0.52874715650E+03  0.52874715650E+03  0.00000000000E+00 0.  1.
          2   -1    0    0  501    0  0.00000000000E+00 -0.00000000000E+00 -0.12416634597E+04  0.12416634597E+04  0.00000000000E+00 0. -1.
         24    2    1    2    0    0  0.20895431678E+03 -0.35958792498E+03  0.14945158984E+03  0.44899929399E+03  0.79367537488E+02 0.  0.
        254    2    1    2    0    0 -0.20895431678E+03  0.35958792498E+03 -0.86236789307E+03  0.13214113222E+04  0.91076018644E+03 0.  0.
         23    2    4    4    0    0 -0.37315122807E+03  0.58876301436E+03 -0.63746716107E+03  0.94934791634E+03  0.94938710383E+02 0.  0.
         23    2    4    4    0    0  0.16419691129E+03 -0.22917508937E+03 -0.22490073200E+03  0.37206340589E+03  0.91482192134E+02 0.  0.
          2    1    3    3  502    0  0.30918705086E+02 -0.18651363011E+02 -0.67818410151E+00  0.36115088260E+02  0.00000000000E+00 0. -1.
         -1    1    3    3    0  502  0.17803561169E+03 -0.34093656197E+03  0.15012977394E+03  0.41288420573E+03  0.00000000000E+00 0.  1.
         11    1    5    5    0    0 -0.32523104509E+03  0.52839325320E+03 -0.60197013573E+03  0.86448985363E+03  0.00000000000E+00 0. -1.
        -11    1    5    5    0    0 -0.47920182981E+02  0.60369761151E+02 -0.35497025343E+02  0.84858062708E+02  0.00000000000E+00 0.  1.
          3    1    6    6  503    0  0.15783258204E+03 -0.15256833273E+03 -0.16540067908E+03  0.27485560709E+03  0.00000000000E+00 0. -1.
         -3    1    6    6    0  503  0.63643292502E+01 -0.76606756639E+02 -0.59500052917E+02  0.97207798796E+02  0.00000000000E+00 0.  1.
<mgrwt>
<rscale>  0 0.16205259E+04</rscale>
<asrwt>0</asrwt>
<pdfrwt beam="1">  1        2 0.19102514E+00 0.16205259E+04</pdfrwt>
<pdfrwt beam="2">  1       -1 0.81345718E-01 0.16205259E+04</pdfrwt>
<totfact> 0.29397944E+01</totfact>
</mgrwt>
</event>
<event>
12    6  0.1707919E-007  0.2186152E+04  0.7818608E-02  0.8524214E-01
         -1   -1    0    0    0  501 -0.00000000000E+00  0.00000000000E+00  0.47262885112E+03  0.47262885112E+03  0.00000000000E+00 0.  1.
          2   -1    0    0  501    0  0.00000000000E+00 -0.00000000000E+00 -0.25280190386E+04  0.25280190386E+04  0.00000000000E+00 0. -1.
         24    2    1    2    0    0 -0.19645362679E+03  0.23257998226E+03  0.31727098290E+03  0.44715391583E+03  0.81229749664E+02 0.  0.
        254    2    1    2    0    0  0.19645362679E+03 -0.23257998226E+03 -0.23726611704E+04  0.25534939739E+04  0.89337728294E+03 0.  0.
         23    2    4    4    0    0  0.45993382045E+03 -0.30378070343E+03 -0.20302504243E+04  0.21056253142E+04  0.88990693506E+02 0.  0.
         23    2    4    4    0    0 -0.26348019366E+03  0.71200721176E+02 -0.34241074611E+03  0.44786865971E+03  0.94073705928E+02 0.  0.
          4    1    3    3  502    0 -0.49790850065E+02  0.20274898199E+02  0.32303192984E+02  0.62719187847E+02  0.00000000000E+00 0. -1.
         -3    1    3    3    0  502 -0.14666277672E+03  0.21230508406E+03  0.28496778992E+03  0.38443472799E+03  0.00000000000E+00 0.  1.
         11    1    5    5    0    0  0.19134922387E+03 -0.79364035182E+02 -0.82215951158E+03  0.84785578847E+03  0.00000000000E+00 0.  1.
        -11    1    5    5    0    0  0.26858459658E+03 -0.22441666825E+03 -0.12080909127E+04  0.12577695258E+04  0.00000000000E+00 0. -1.
          3    1    6    6  503    0 -0.18157272578E+03  0.91399457814E+02 -0.22410089356E+03  0.30256193767E+03  0.00000000000E+00 0. -1.
         -3    1    6    6    0  503 -0.81907467881E+02 -0.20198736638E+02 -0.11830985255E+03  0.14530672203E+03  0.00000000000E+00 0.  1.
<mgrwt>
<rscale>  0 0.21861516E+04</rscale>
<asrwt>0</asrwt>
<pdfrwt beam="1">  1        2 0.38892600E+00 0.21861516E+04</pdfrwt>
<pdfrwt beam="2">  1       -1 0.72712131E-01 0.21861516E+04</pdfrwt>
<totfact> 0.66607024E+00</totfact>
</mgrwt>
</event>
<event>
12    6  0.1553355E-007  0.2035301E+04  0.7818608E-02  0.8590292E-01
          2   -1    0    0  501    0  0.00000000000E+00  0.00000000000E+00  0.25024555502E+04  0.25024555502E+04  0.00000000000E+00 0. -1.
         -1   -1    0    0    0  501 -0.00000000000E+00 -0.00000000000E+00 -0.41383869115E+03  0.41383869115E+03  0.00000000000E+00 0.  1.
         24    2    1    2    0    0  0.42307300824E+03 -0.99138265722E+01 -0.15914489300E+03  0.45942985405E+03  0.81606614712E+02 0.  0.
        254    2    1    2    0    0 -0.42307300824E+03  0.99138265722E+01  0.22477617521E+04  0.24568643873E+04  0.89702880074E+03 0.  0.
         23    2    4    4    0    0  0.12498510363E+03  0.26474837383E+03  0.12459358128E+04  0.12831755211E+04  0.92034725710E+02 0.  0.
         23    2    4    4    0    0 -0.54805811187E+03 -0.25483454725E+03  0.10018259393E+04  0.11736888663E+04  0.92639093616E+02 0.  0.
          2    1    3    3  502    0  0.14966496991E+03  0.10521881911E+02 -0.18146294505E+02  0.15112776456E+03  0.00000000000E+00 0. -1.
         -1    1    3    3    0  502  0.27340803833E+03 -0.20435708483E+02 -0.14099859850E+03  0.30830208949E+03  0.00000000000E+00 0.  1.
         11    1    5    5    0    0  0.10860933027E+03  0.19080014350E+03  0.74944123558E+03  0.78093715942E+03  0.00000000000E+00 0.  1.
        -11    1    5    5    0    0  0.16375773360E+02  0.73948230327E+02  0.49649457721E+03  0.50223836166E+03  0.00000000000E+00 0. -1.
          3    1    6    6  503    0 -0.50360828768E+03 -0.24804327233E+03  0.87983315754E+03  0.10436729169E+04  0.00000000000E+00 0. -1.
         -3    1    6    6    0  503 -0.44449824190E+02 -0.67912749245E+01  0.12199278176E+03  0.13001594936E+03  0.00000000000E+00 0.  1.
<mgrwt>
<rscale>  0 0.20353014E+04</rscale>
<asrwt>0</asrwt>
<pdfrwt beam="1">  1        2 0.38499315E+00 0.20353014E+04</pdfrwt>
<pdfrwt beam="2">  1       -1 0.63667492E-01 0.20353014E+04</pdfrwt>
<totfact> 0.91585034E+00</totfact>
</mgrwt>
</event>
<event>
12    6  0.1553355E-007  0.1254289E+04  0.7818608E-02  0.9066621E-01
         -1   -1    0    0    0  501 -0.00000000000E+00  0.00000000000E+00  0.36395959412E+03  0.36395959412E+03  0.00000000000E+00 0.  1.
          2   -1    0    0  501    0  0.00000000000E+00 -0.00000000000E+00 -0.10806428193E+04  0.10806428193E+04  0.00000000000E+00 0. -1.
         24    2    1    2    0    0 -0.18642784473E+03  0.19283320503E+03 -0.18809678821E+01  0.27955395567E+03  0.78783817110E+02 0.  0.
        254    2    1    2    0    0  0.18642784473E+03 -0.19283320503E+03 -0.71480225731E+03  0.11650484578E+04  0.88003162194E+03 0.  0.
         23    2    4    4    0    0  0.35267500710E+02 -0.17347406594E+03  0.17059471354E+03  0.26206943449E+03  0.90778764301E+02 0.  0.
         23    2    4    4    0    0  0.15116034402E+03 -0.19359139089E+02 -0.88539697085E+03  0.90297902326E+03  0.90659222359E+02 0.  0.
          4    1    3    3  502    0 -0.70336306441E+02  0.48440041886E+02 -0.33241604143E+02  0.91644082775E+02  0.00000000000E+00 0. -1.
         -3    1    3    3    0  502 -0.11609153829E+03  0.14439316315E+03  0.31360636261E+02  0.18790987290E+03  0.00000000000E+00 0.  1.
         11    1    5    5    0    0  0.10464677597E+02 -0.15255795281E+03  0.95557380453E+02  0.18031819487E+03  0.00000000000E+00 0. -1.
        -11    1    5    5    0    0  0.24802823112E+02 -0.20916113129E+02  0.75037333085E+02  0.81751239619E+02  0.00000000000E+00 0.  1.
          1    1    6    6  503    0  0.11571756584E+03  0.92607767808E+01 -0.77352306676E+03  0.78218556100E+03  0.00000000000E+00 0. -1.
         -1    1    6    6    0  503  0.35442778177E+02 -0.28619915870E+02 -0.11187390409E+03  0.12079346226E+03  0.00000000000E+00 0.  1.
<mgrwt>
<rscale>  0 0.12542892E+04</rscale>
<asrwt>0</asrwt>
<pdfrwt beam="1">  1        2 0.16625274E+00 0.12542892E+04</pdfrwt>
<pdfrwt beam="2">  1       -1 0.55993784E-01 0.12542892E+04</pdfrwt>
<totfact> 0.81023480E+01</totfact>
</mgrwt>
</event>
<event>
12    6  0.1553355E-007  0.3383305E+04  0.7818608E-02  0.8142016E-01
         -1   -1    0    0    0  501 -0.00000000000E+00  0.00000000000E+00  0.14194488143E+04  0.14194488143E+04  0.00000000000E+00 0.  1.
          2   -1    0    0  501    0  0.00000000000E+00 -0.00000000000E+00 -0.20160554287E+04  0.20160554287E+04  0.00000000000E+00 0. -1.
         24    2    1    2    0    0 -0.80875966432E+03 -0.54354740419E+03 -0.15289542913E+04  0.18148453958E+04  0.80166142993E+02 0.  0.
        254    2    1    2    0    0  0.80875966432E+03  0.54354740419E+03  0.93234767688E+03  0.16206588471E+04  0.89873629781E+03 0.  0.
         23    2    4    4    0    0  0.75906004478E+03  0.99750495948E+02  0.27040787944E+03  0.81705261841E+03  0.91281142387E+02 0.  0.
         23    2    4    4    0    0  0.49699619538E+02  0.44379690825E+03  0.66193979744E+03  0.80360622874E+03  0.90514791502E+02 0.  0.
          2    1    3    3  502    0 -0.65306825699E+03 -0.47331455727E+03 -0.12806558916E+04  0.15134742585E+04  0.00000000000E+00 0. -1.
         -1    1    3    3    0  502 -0.15569140733E+03 -0.70232846927E+02 -0.24829839968E+03  0.30137113729E+03  0.00000000000E+00 0.  1.
         11    1    5    5    0    0  0.13289158853E+02  0.13491804179E+02 -0.45064517357E+00  0.18942903793E+02  0.00000000000E+00 0.  1.
        -11    1    5    5    0    0  0.74577088593E+03  0.86258691768E+02  0.27085852461E+03  0.79810971461E+03  0.00000000000E+00 0. -1.
          2    1    6    6  503    0  0.69801777583E+02  0.38889661023E+03  0.60020151179E+03  0.71857826043E+03  0.00000000000E+00 0. -1.
         -2    1    6    6    0  503 -0.20102158045E+02  0.54900298013E+02  0.61738285651E+02  0.85027968311E+02  0.00000000000E+00 0.  1.
<mgrwt>
<rscale>  0 0.33833046E+04</rscale>
<asrwt>0</asrwt>
<pdfrwt beam="1">  1        2 0.31016237E+00 0.33833046E+04</pdfrwt>
<pdfrwt beam="2">  1       -1 0.21837674E+00 0.33833046E+04</pdfrwt>
<totfact> 0.69692256E-01</totfact>
</mgrwt>
</event>
<event>
12    6  0.1553355E-007  0.1807076E+04  0.7818608E-02  0.8702545E-01
          2   -1    0    0  501    0  0.00000000000E+00  0.00000000000E+00  0.19135568172E+04  0.19135568172E+04  0.00000000000E+00 0. -1.
         -1   -1    0    0    0  501 -0.00000000000E+00 -0.00000000000E+00 -0.42663021818E+03  0.42663021818E+03  0.00000000000E+00 0.  1.
         24    2    1    2    0    0  0.15007464642E+03 -0.38115646752E+03  0.12856508457E+04  0.13516026152E+04  0.78287164096E+02 0.  0.
        254    2    1    2    0    0 -0.15007464642E+03  0.38115646752E+03  0.20127575337E+03  0.98858442027E+03  0.87691765570E+03 0.  0.
         23    2    4    4    0    0 -0.50761570615E+02  0.38778566159E+03  0.51143659082E+03  0.65030598370E+03  0.91520651349E+02 0.  0.
         23    2    4    4    0    0 -0.99313075802E+02 -0.66291940733E+01 -0.31016083744E+03  0.33827843657E+03  0.91244300237E+02 0.  0.
          2    1    3    3  502    0  0.14381853445E+03 -0.37575285950E+03  0.12795911049E+04  0.13413528164E+04  0.00000000000E+00 0. -1.
         -3    1    3    3    0  502  0.62561119707E+01 -0.54036080194E+01  0.60597407878E+01  0.10249798780E+02  0.00000000000E+00 0.  1.
         11    1    5    5    0    0  0.15682931143E+02  0.11421496189E+02  0.27475591283E+02  0.33634996964E+02  0.00000000000E+00 0.  1.
        -11    1    5    5    0    0 -0.66444501758E+02  0.37636416540E+03  0.48396099953E+03  0.61667098674E+03  0.00000000000E+00 0. -1.
          1    1    6    6  503    0 -0.10308401916E+03 -0.94609853825E+01 -0.31496889949E+03  0.33154371189E+03  0.00000000000E+00 0. -1.
         -1    1    6    6    0  503  0.37709433588E+01  0.28317913092E+01  0.48080620460E+01  0.67347246768E+01  0.00000000000E+00 0.  1.
<mgrwt>
<rscale>  0 0.18070763E+04</rscale>
<asrwt>0</asrwt>
<pdfrwt beam="1">  1        2 0.29439335E+00 0.18070763E+04</pdfrwt>
<pdfrwt beam="2">  1       -1 0.65635419E-01 0.18070763E+04</pdfrwt>
<totfact> 0.18868718E+01</totfact>
</mgrwt>
</event>
<event>
12    6  0.1553355E-007  0.1573803E+04  0.7818608E-02  0.8836806E-01
         -1   -1    0    0    0  501 -0.00000000000E+00  0.00000000000E+00  0.19981144083E+03  0.19981144083E+03  0.00000000000E+00 0.  1.
          2   -1    0    0  501    0  0.00000000000E+00 -0.00000000000E+00 -0.30989908604E+04  0.30989908604E+04  0.00000000000E+00 0. -1.
         24    2    1    2    0    0  0.14359154586E+03  0.44044382312E+03 -0.45656173635E+03  0.65551120196E+03  0.81467928856E+02 0.  0.
        254    2    1    2    0    0 -0.14359154586E+03 -0.44044382312E+03 -0.24426176832E+04  0.26432910993E+04  0.89777357711E+03 0.  0.
         23    2    4    4    0    0 -0.21364143750E+03 -0.63720549094E+03 -0.22305207507E+04  0.23317638768E+04  0.10112594271E+03 0.  0.
         23    2    4    4    0    0  0.70049891635E+02  0.19676166782E+03 -0.21209693252E+03  0.31152722249E+03  0.91880141078E+02 0.  0.
          2    1    3    3  502    0  0.29850589459E+02  0.34325618715E+02 -0.24226078645E+02  0.51538419434E+02  0.00000000000E+00 0. -1.
         -1    1    3    3    0  502  0.11374095640E+03  0.40611820440E+03 -0.43233565770E+03  0.60397278253E+03  0.00000000000E+00 0.  1.
         11    1    5    5    0    0 -0.40412811355E+02 -0.10534288449E+03 -0.52023994141E+03  0.53233440173E+03  0.00000000000E+00 0. -1.
        -11    1    5    5    0    0 -0.17322862614E+03 -0.53186260645E+03 -0.17102808093E+04  0.17994294750E+04  0.00000000000E+00 0.  1.
          1    1    6    6  503    0 -0.73916071511E+01 -0.13440159043E+01  0.38282695378E+01  0.84319560412E+01  0.00000000000E+00 0. -1.
         -1    1    6    6    0  503  0.77441498786E+02  0.19810568372E+03 -0.21592520206E+03  0.30309526644E+03  0.00000000000E+00 0.  1.
<mgrwt>
<rscale>  0 0.15738028E+04</rscale>
<asrwt>0</asrwt>
<pdfrwt beam="1">  1        2 0.47676788E+00 0.15738028E+04</pdfrwt>
<pdfrwt beam="2">  1       -1 0.30740218E-01 0.15738028E+04</pdfrwt>
<totfact> 0.16237079E+01</totfact>
</mgrwt>
</event>
<event>
12    6  0.1553355E-007  0.1739720E+04  0.7818608E-02  0.8739029E-01
          2   -1    0    0  501    0  0.00000000000E+00  0.00000000000E+00  0.11034917533E+04  0.11034917533E+04  0.00000000000E+00 0. -1.
         -1   -1    0    0    0  501 -0.00000000000E+00 -0.00000000000E+00 -0.68569295831E+03  0.68569295831E+03  0.00000000000E+00 0.  1.
         24    2    1    2    0    0 -0.34053474390E+02 -0.20733642120E+03 -0.46169261132E+03  0.51344827007E+03  0.79504893043E+02 0.  0.
        254    2    1    2    0    0  0.34053474390E+02  0.20733642120E+03  0.87949140631E+03  0.12757364416E+04  0.89991683163E+03 0.  0.
         23    2    4    4    0    0  0.37283627868E+03  0.52364972556E+02  0.79229297847E+03  0.88239881271E+03  0.95658349748E+02 0.  0.
         23    2    4    4    0    0 -0.33878280429E+03  0.15497144864E+03  0.87198427841E+02  0.39333762885E+03  0.91219439113E+02 0.  0.
          2    1    3    3  502    0 -0.36462495825E+02 -0.19092411608E+03 -0.34845214747E+03  0.39899928669E+03  0.00000000000E+00 0. -1.
         -1    1    3    3    0  502  0.24090214349E+01 -0.16412305114E+02 -0.11324046385E+03  0.11444898338E+03  0.00000000000E+00 0.  1.
         11    1    5    5    0    0  0.20820737909E+02 -0.17173905544E+02  0.86805064811E+02  0.90904155217E+02  0.00000000000E+00 0. -1.
        -11    1    5    5    0    0  0.35201554077E+03  0.69538878100E+02  0.70548791366E+03  0.79149465749E+03  0.00000000000E+00 0.  1.
          3    1    6    6  503    0 -0.13212152541E+03  0.90947009632E+02  0.73828753935E+02  0.17657333022E+03  0.00000000000E+00 0. -1.
         -3    1    6    6    0  503 -0.20666127888E+03  0.64024439009E+02  0.13369673906E+02  0.21676429862E+03  0.00000000000E+00 0.  1.
<mgrwt>
<rscale>  0 0.17397201E+04</rscale>
<asrwt>0</asrwt>
<pdfrwt beam="1">  1        2 0.16976796E+00 0.17397201E+04</pdfrwt>
<pdfrwt beam="2">  1       -1 0.10549122E+00 0.17397201E+04</pdfrwt>
<totfact> 0.19754550E+01</totfact>
</mgrwt>
</event>
<event>
12    6  0.1553355E-007  0.1200677E+04  0.7818608E-02  0.9112264E-01
         -1   -1    0    0    0  501 -0.00000000000E+00  0.00000000000E+00  0.28351000700E+03  0.28351000700E+03  0.00000000000E+00 0.  1.
          2   -1    0    0  501    0  0.00000000000E+00 -0.00000000000E+00 -0.12712302771E+04  0.12712302771E+04  0.00000000000E+00 0. -1.
         24    2    1    2    0    0 -0.75588590165E+02  0.18371505236E+03 -0.10912053664E+02  0.21371565322E+03  0.78041348587E+02 0.  0.
        254    2    1    2    0    0  0.75588590165E+02 -0.18371505236E+03 -0.97680821644E+03  0.13410246309E+04  0.89706628155E+03 0.  0.
         23    2    4    4    0    0 -0.43604589295E+01 -0.46620226474E+03 -0.21897740408E+03  0.52334957262E+03  0.92628863798E+02 0.  0.
         23    2    4    4    0    0  0.79949049094E+02  0.28248721238E+03 -0.75783081236E+03  0.81767505826E+03  0.89967133568E+02 0.  0.
          4    1    3    3  502    0 -0.78844145439E+02  0.16233031741E+03 -0.32258522050E+02  0.18332523958E+03  0.00000000000E+00 0. -1.
         -3    1    3    3    0  502  0.32555552741E+01  0.21384734954E+02  0.21346468385E+02  0.30390413649E+02  0.00000000000E+00 0.  1.
         11    1    5    5    0    0  0.27646205076E+02 -0.44395648383E+02 -0.25450485383E+02  0.58163678157E+02  0.00000000000E+00 0.  1.
        -11    1    5    5    0    0 -0.32006664006E+02 -0.42180661636E+03 -0.19352691869E+03  0.46518589446E+03  0.00000000000E+00 0. -1.
          1    1    6    6  503    0  0.39366392693E+02  0.16317775117E+03 -0.54570345179E+03  0.57093690426E+03  0.00000000000E+00 0. -1.
         -1    1    6    6    0  503  0.40582656401E+02  0.11930946121E+03 -0.21212736058E+03  0.24673815400E+03  0.00000000000E+00 0.  1.
<mgrwt>
<rscale>  0 0.12006773E+04</rscale>
<asrwt>0</asrwt>
<pdfrwt beam="1">  1        2 0.19557389E+00 0.12006773E+04</pdfrwt>
<pdfrwt beam="2">  1       -1 0.43616923E-01 0.12006773E+04</pdfrwt>
<totfact> 0.10028255E+02</totfact>
</mgrwt>
</event>
<event>
12    6  0.1553355E-007  0.2338938E+04  0.7818608E-02  0.8462725E-01
          2   -1    0    0  501    0  0.00000000000E+00  0.00000000000E+00  0.10296823920E+04  0.10296823920E+04  0.00000000000E+00 0. -1.
         -1   -1    0    0    0  501 -0.00000000000E+00 -0.00000000000E+00 -0.13282324785E+04  0.13282324785E+04  0.00000000000E+00 0.  1.
         24    2    1    2    0    0  0.83599850871E+03  0.52494504509E+03 -0.21454802096E+02  0.99048841934E+03  0.78397661830E+02 0.  0.
        254    2    1    2    0    0 -0.83599850871E+03 -0.52494504509E+03 -0.27709528436E+03  0.13674264512E+04  0.90477206841E+03 0.  0.
         23    2    4    4    0    0 -0.48796301335E+03  0.27410708484E+02 -0.46595895892E+03  0.68198483025E+03  0.95531711785E+02 0.  0.
         23    2    4    4    0    0 -0.34803549536E+03 -0.55235575357E+03  0.18886367456E+03  0.68544162090E+03  0.89079422785E+02 0.  0.
          2    1    3    3  502    0  0.14988607033E+03  0.60429863669E+02  0.11150414584E+01  0.16161326004E+03  0.00000000000E+00 0. -1.
         -1    1    3    3    0  502  0.68611243838E+03  0.46451518142E+03 -0.22569843554E+02  0.82887515930E+03  0.00000000000E+00 0.  1.
         11    1    5    5    0    0 -0.15368541069E+03 -0.26537157903E+02 -0.11100779074E+03  0.19143185684E+03  0.00000000000E+00 0. -1.
        -11    1    5    5    0    0 -0.33427760266E+03  0.53947866386E+02 -0.35495116818E+03  0.49055297341E+03  0.00000000000E+00 0.  1.
          3    1    6    6  503    0 -0.13070930210E+03 -0.26430837963E+03  0.51398077443E+02  0.29930854241E+03  0.00000000000E+00 0. -1.
         -3    1    6    6    0  503 -0.21732619326E+03 -0.28804737394E+03  0.13746559712E+03  0.38613307849E+03  0.00000000000E+00 0.  1.
<mgrwt>
<rscale>  0 0.23389379E+04</rscale>
<asrwt>0</asrwt>
<pdfrwt beam="1">  1        2 0.15841268E+00 0.23389379E+04</pdfrwt>
<pdfrwt beam="2">  1       -1 0.20434346E+00 0.23389379E+04</pdfrwt>
<totfact> 0.34907554E+00</totfact>
</mgrwt>
</event>
<event>
12    6  0.1553355E-007  0.2002507E+04  0.7818608E-02  0.8605449E-01
          2   -1    0    0  501    0  0.00000000000E+00  0.00000000000E+00  0.72904884555E+03  0.72904884555E+03  0.00000000000E+00 0. -1.
         -1   -1    0    0    0  501 -0.00000000000E+00 -0.00000000000E+00 -0.13750911868E+04  0.13750911868E+04  0.00000000000E+00 0.  1.
         24    2    1    2    0    0  0.75994731977E+03  0.20345349144E+03 -0.36454166070E+03  0.87071543346E+03  0.79633483438E+02 0.  0.
        254    2    1    2    0    0 -0.75994731977E+03 -0.20345349144E+03 -0.28150068050E+03  0.12334245988E+04  0.90729287217E+03 0.  0.
         23    2    4    4    0    0 -0.20652830968E+03 -0.61436271202E+02 -0.54888957022E+03  0.59654757566E+03  0.90337653348E+02 0.  0.
         23    2    4    4    0    0 -0.55341901008E+03 -0.14201722024E+03  0.26738888972E+03  0.63687702318E+03  0.87601556711E+02 0.  0.
          4    1    3    3  502    0  0.50766346699E+03  0.14433062664E+03 -0.28415080219E+03  0.59941238216E+03  0.00000000000E+00 0. -1.
         -3    1    3    3    0  502  0.25228385277E+03  0.59122864801E+02 -0.80390858513E+02  0.27130305130E+03  0.00000000000E+00 0.  1.
         11    1    5    5    0    0  0.82829940864E+01 -0.36981797837E+01 -0.42513083306E+02  0.43470067597E+02  0.00000000000E+00 0.  1.
        -11    1    5    5    0    0 -0.21481130377E+03 -0.57738091419E+02 -0.50637648691E+03  0.55307750807E+03  0.00000000000E+00 0. -1.
          3    1    6    6  503    0 -0.53140690716E+03 -0.13441594656E+03  0.23360793223E+03  0.59584697168E+03  0.00000000000E+00 0. -1.
         -3    1    6    6    0  503 -0.22012102927E+02 -0.76012736813E+01  0.33780957484E+02  0.41030051492E+02  0.00000000000E+00 0.  1.
<mgrwt>
<rscale>  0 0.20025071E+04</rscale>
<asrwt>0</asrwt>
<pdfrwt beam="1">  1        2 0.11216136E+00 0.20025071E+04</pdfrwt>
<pdfrwt beam="2">  1       -1 0.21155249E+00 0.20025071E+04</pdfrwt>
<totfact> 0.51745158E+00</totfact>
</mgrwt>
</event>
<event>
12    6  0.1553355E-007  0.1960161E+04  0.7818608E-02  0.8625476E-01
         -1   -1    0    0    0  501 -0.00000000000E+00  0.00000000000E+00  0.86854045044E+03  0.86854045044E+03  0.00000000000E+00 0.  1.
          2   -1    0    0  501    0  0.00000000000E+00 -0.00000000000E+00 -0.11059452198E+04  0.11059452198E+04  0.00000000000E+00 0. -1.
         24    2    1    2    0    0 -0.36014547957E+03  0.65376322356E+03 -0.28695755398E+03  0.80356548808E+03  0.79131137487E+02 0.  0.
        254    2    1    2    0    0  0.36014547957E+03 -0.65376322356E+03  0.49552784652E+02  0.11709201821E+04  0.90082599624E+03 0.  0.
         23    2    4    4    0    0  0.14702922077E+03 -0.60490722628E+03  0.40174455311E+03  0.74654394876E+03  0.91645170668E+02 0.  0.
         23    2    4    4    0    0  0.21311625879E+03 -0.48855997277E+02 -0.35219176846E+03  0.42437623336E+03  0.90833349818E+02 0.  0.
          2    1    3    3  502    0 -0.19826424222E+03  0.34697671368E+03 -0.19523021262E+03  0.44476553991E+03  0.00000000000E+00 0. -1.
         -1    1    3    3    0  502 -0.16188123735E+03  0.30678650988E+03 -0.91727341354E+02  0.35879994817E+03  0.00000000000E+00 0.  1.
         11    1    5    5    0    0  0.46687505698E+02 -0.24598978604E+03  0.21335588991E+03  0.32895506347E+03  0.00000000000E+00 0.  1.
        -11    1    5    5    0    0  0.10034171508E+03 -0.35891744024E+03  0.18838866320E+03  0.41758888529E+03  0.00000000000E+00 0. -1.
          4    1    6    6  503    0  0.20452705479E+03 -0.38531730103E+02 -0.26902967952E+03  0.34013670609E+03  0.00000000000E+00 0. -1.
         -4    1    6    6    0  503  0.85892039987E+01 -0.10324267174E+02 -0.83162088938E+02  0.84239527270E+02  0.00000000000E+00 0.  1.
<mgrwt>
<rscale>  0 0.19601614E+04</rscale>
<asrwt>0</asrwt>
<pdfrwt beam="1">  1        2 0.17014542E+00 0.19601614E+04</pdfrwt>
<pdfrwt beam="2">  1       -1 0.13362161E+00 0.19601614E+04</pdfrwt>
<totfact> 0.10860439E+01</totfact>
</mgrwt>
</event>
<event>
12    6  0.1553355E-007  0.2968463E+04  0.7818608E-02  0.8252794E-01
         -1   -1    0    0    0  501 -0.00000000000E+00  0.00000000000E+00  0.13003075338E+04  0.13003075338E+04  0.00000000000E+00 0.  1.
          2   -1    0    0  501    0  0.00000000000E+00 -0.00000000000E+00 -0.16941707236E+04  0.16941707236E+04  0.00000000000E+00 0. -1.
         24    2    1    2    0    0 -0.15349788783E+03  0.98317562231E+03  0.73370173277E+03  0.12388939272E+04  0.79649383576E+02 0.  0.
        254    2    1    2    0    0  0.15349788783E+03 -0.98317562231E+03 -0.11275649226E+04  0.17555843302E+04  0.90580228522E+03 0.  0.
         23    2    4    4    0    0 -0.57269574775E+02 -0.74520917636E+03 -0.21186121273E+03  0.78188937500E+03  0.88596278389E+02 0.  0.
         23    2    4    4    0    0  0.21076746261E+03 -0.23796644595E+03 -0.91570370983E+03  0.97369495518E+03  0.92291000958E+02 0.  0.
          2    1    3    3  502    0 -0.92350922329E+02  0.63174744127E+03  0.42328555064E+03  0.76603144830E+03  0.00000000000E+00 0. -1.
         -1    1    3    3    0  502 -0.61146965503E+02  0.35142818104E+03  0.31041618213E+03  0.47286247889E+03  0.00000000000E+00 0.  1.
         11    1    5    5    0    0 -0.28174410556E+02 -0.40826381752E+03 -0.70165255049E+02  0.41520634042E+03  0.00000000000E+00 0. -1.
        -11    1    5    5    0    0 -0.29095164220E+02 -0.33694535884E+03 -0.14169595768E+03  0.36668303458E+03  0.00000000000E+00 0.  1.
          3    1    6    6  503    0  0.57726442968E+02 -0.11353462695E+03 -0.45620195356E+03  0.47364826208E+03  0.00000000000E+00 0. -1.
         -3    1    6    6    0  503  0.15304101964E+03 -0.12443181899E+03 -0.45950175627E+03  0.50004669310E+03  0.00000000000E+00 0.  1.
<mgrwt>
<rscale>  0 0.29684629E+04</rscale>
<asrwt>0</asrwt>
<pdfrwt beam="1">  1        2 0.26064165E+00 0.29684629E+04</pdfrwt>
<pdfrwt beam="2">  1       -1 0.20004731E+00 0.29684629E+04</pdfrwt>
<totfact> 0.14516200E+00</totfact>
</mgrwt>
</event>
<event>
12    6  0.1553355E-007  0.4086124E+04  0.7818608E-02  0.7987395E-01
         -1   -1    0    0    0  501 -0.00000000000E+00  0.00000000000E+00  0.24211908180E+04  0.24211908180E+04  0.00000000000E+00 0.  1.
          2   -1    0    0  501    0  0.00000000000E+00 -0.00000000000E+00 -0.17239870831E+04  0.17239870831E+04  0.00000000000E+00 0. -1.
         24    2    1    2    0    0  0.13166125006E+04  0.12013860762E+04 -0.45337102089E+03  0.18410190132E+04  0.83718238524E+02 0.  0.
        254    2    1    2    0    0 -0.13166125006E+04 -0.12013860762E+04  0.11505747558E+04  0.23041588879E+04  0.89918236824E+03 0.  0.
         23    2    4    4    0    0 -0.10391068874E+04 -0.80024295107E+03  0.12314575656E+04  0.18013110855E+04  0.90011036633E+02 0.  0.
         23    2    4    4    0    0 -0.27750561326E+03 -0.40114312514E+03 -0.80882809844E+02  0.50284780245E+03  0.91589908079E+02 0.  0.
          2    1    3    3  502    0  0.12116202214E+04  0.10913602500E+04 -0.39276880236E+03  0.16773067961E+04  0.00000000000E+00 0. -1.
         -1    1    3    3    0  502  0.10499227919E+03  0.11002582625E+03 -0.60602218538E+02  0.16371221708E+03  0.00000000000E+00 0.  1.
         11    1    5    5    0    0 -0.78120169006E+03 -0.58393780626E+03  0.96463133072E+03  0.13717773312E+04  0.00000000000E+00 0.  1.
        -11    1    5    5    0    0 -0.25790519730E+03 -0.21630514481E+03  0.26682623488E+03  0.42953375430E+03  0.00000000000E+00 0. -1.
          3    1    6    6  503    0 -0.19280665621E+03 -0.20234045214E+03 -0.32227551595E+02  0.28134441585E+03  0.00000000000E+00 0. -1.
         -3    1    6    6    0  503 -0.84698957054E+02 -0.19880267301E+03 -0.48655258249E+02  0.22150338660E+03  0.00000000000E+00 0.  1.
<mgrwt>
<rscale>  0 0.40861237E+04</rscale>
<asrwt>0</asrwt>
<pdfrwt beam="1">  1        2 0.26522878E+00 0.40861237E+04</pdfrwt>
<pdfrwt beam="2">  1       -1 0.37249090E+00 0.40861237E+04</pdfrwt>
<totfact> 0.93211881E-02</totfact>
</mgrwt>
</event>
<event>
12    6  0.1553355E-007  0.1201976E+04  0.7818608E-02  0.9111128E-01
          2   -1    0    0  501    0  0.00000000000E+00  0.00000000000E+00  0.24331217921E+04  0.24331217921E+04  0.00000000000E+00 0. -1.
         -1   -1    0    0    0  501 -0.00000000000E+00 -0.00000000000E+00 -0.14844581560E+03  0.14844581560E+03  0.00000000000E+00 0.  1.
         24    2    1    2    0    0 -0.21013658264E+03 -0.14236164481E+02  0.20662363717E+03  0.30529941468E+03  0.78449687212E+02 0.  0.
        254    2    1    2    0    0  0.21013658264E+03  0.14236164481E+02  0.20780523393E+04  0.22762681930E+04  0.90483993601E+03 0.  0.
         23    2    4    4    0    0  0.31545337625E+02  0.43626748232E+03  0.12169154620E+04  0.12963194948E+04  0.90755531894E+02 0.  0.
         23    2    4    4    0    0  0.17859124502E+03 -0.42203131784E+03  0.86113687732E+03  0.97994869818E+03  0.93474400495E+02 0.  0.
          2    1    3    3  502    0 -0.13606504544E+03  0.12518774811E+02  0.17093226164E+03  0.21883385109E+03  0.00000000000E+00 0. -1.
         -1    1    3    3    0  502 -0.74071537201E+02 -0.26754939292E+02  0.35691375530E+02  0.86465563591E+02  0.00000000000E+00 0.  1.
         11    1    5    5    0    0  0.48048820883E+02  0.21040589057E+03  0.68520077592E+03  0.71838668647E+03  0.00000000000E+00 0.  1.
        -11    1    5    5    0    0 -0.16503483258E+02  0.22586159175E+03  0.53171468605E+03  0.57793280834E+03  0.00000000000E+00 0. -1.
          2    1    6    6  503    0  0.47026378136E+02 -0.60227364580E+02  0.21057985937E+03  0.22401493891E+03  0.00000000000E+00 0. -1.
         -2    1    6    6    0  503  0.13156486688E+03 -0.36180395326E+03  0.65055701796E+03  0.75593375927E+03  0.00000000000E+00 0.  1.
<mgrwt>
<rscale>  0 0.12019763E+04</rscale>
<asrwt>0</asrwt>
<pdfrwt beam="1">  1        2 0.37432640E+00 0.12019763E+04</pdfrwt>
<pdfrwt beam="2">  1       -1 0.22837820E-01 0.12019763E+04</pdfrwt>
<totfact> 0.70297275E+01</totfact>
</mgrwt>
</event>
<event>
12    6  0.1553355E-007  0.1270563E+04  0.7818608E-02  0.9053240E-01
         -1   -1    0    0    0  501 -0.00000000000E+00  0.00000000000E+00  0.32525146361E+03  0.32525146361E+03  0.00000000000E+00 0.  1.
          2   -1    0    0  501    0  0.00000000000E+00 -0.00000000000E+00 -0.12408323268E+04  0.12408323268E+04  0.00000000000E+00 0. -1.
         24    2    1    2    0    0  0.21192875197E+03 -0.91212671909E+02 -0.50210711828E+03  0.55791803905E+03  0.76989821689E+02 0.  0.
        254    2    1    2    0    0 -0.21192875197E+03  0.91212671909E+02 -0.41347374492E+03  0.10081657514E+04  0.89005847958E+03 0.  0.
         23    2    4    4    0    0 -0.30164504476E+03  0.17896913391E+03 -0.64065862012E+03  0.73585047587E+03  0.89514084830E+02 0.  0.
         23    2    4    4    0    0  0.89716292795E+02 -0.87756461997E+02  0.22718487520E+03  0.27231527550E+03  0.82416211610E+02 0.  0.
          2    1    3    3  502    0  0.41779584083E+02 -0.53231601903E+02 -0.16663124903E+03  0.17984746381E+03  0.00000000000E+00 0. -1.
         -1    1    3    3    0  502  0.17014916788E+03 -0.37981070006E+02 -0.33547586926E+03  0.37807057524E+03  0.00000000000E+00 0.  1.
         11    1    5    5    0    0 -0.10847608380E+03  0.61474318410E+02 -0.32055843393E+03  0.34395328483E+03  0.00000000000E+00 0. -1.
        -11    1    5    5    0    0 -0.19316896096E+03  0.11749481550E+03 -0.32010018620E+03  0.39189719105E+03  0.00000000000E+00 0.  1.
          2    1    6    6  503    0  0.80310286396E+02 -0.62785525963E+02  0.10159207765E+03  0.14391912525E+03  0.00000000000E+00 0. -1.
         -2    1    6    6    0  503  0.94060063985E+01 -0.24970936034E+02  0.12559279755E+03  0.12839615025E+03  0.00000000000E+00 0.  1.
<mgrwt>
<rscale>  0 0.12705629E+04</rscale>
<asrwt>0</asrwt>
<pdfrwt beam="1">  1        2 0.19089728E+00 0.12705629E+04</pdfrwt>
<pdfrwt beam="2">  1       -1 0.50038687E-01 0.12705629E+04</pdfrwt>
<totfact> 0.80347211E+01</totfact>
</mgrwt>
</event>
<event>
12    6  0.1553355E-007  0.2584319E+04  0.7818608E-02  0.8373547E-01
         -1   -1    0    0    0  501 -0.00000000000E+00  0.00000000000E+00  0.54493539264E+03  0.54493539264E+03  0.00000000000E+00 0.  1.
          2   -1    0    0  501    0  0.00000000000E+00 -0.00000000000E+00 -0.30639890642E+04  0.30639890642E+04  0.00000000000E+00 0. -1.
         24    2    1    2    0    0  0.99985631793E+03 -0.19983871719E+03 -0.41285298332E+03  0.11029228231E+04  0.79642944215E+02 0.  0.
        254    2    1    2    0    0 -0.99985631793E+03  0.19983871719E+03 -0.21062006883E+04  0.25060016337E+04  0.89683592678E+03 0.  0.
         23    2    4    4    0    0 -0.70089538407E+03 -0.29981217101E+03 -0.11455133137E+04  0.13789745496E+04  0.90710414003E+02 0.  0.
         23    2    4    4    0    0 -0.29896093386E+03  0.49965088820E+03 -0.96068737453E+03  0.11270270841E+04  0.90780871867E+02 0.  0.
          4    1    3    3  502    0  0.22558815795E+03 -0.49185012119E+02 -0.58429122169E+02  0.23816621242E+03  0.00000000000E+00 0. -1.
         -3    1    3    3    0  502  0.77426815998E+03 -0.15065370508E+03 -0.35442386115E+03  0.86475661071E+03  0.00000000000E+00 0.  1.
         11    1    5    5    0    0 -0.21577694702E+03 -0.67598971240E+02 -0.40357834293E+03  0.46260651818E+03  0.00000000000E+00 0.  1.
        -11    1    5    5    0    0 -0.48511843705E+03 -0.23221319977E+03 -0.74193497081E+03  0.91636803143E+03  0.00000000000E+00 0. -1.
          1    1    6    6  503    0 -0.30495447659E+03  0.48405120162E+03 -0.94029040901E+03  0.11006583720E+04  0.00000000000E+00 0. -1.
         -1    1    6    6    0  503  0.59935427385E+01  0.15599686589E+02 -0.20396965520E+02  0.26368712116E+02  0.00000000000E+00 0.  1.
<mgrwt>
<rscale>  0 0.25843189E+04</rscale>
<asrwt>0</asrwt>
<pdfrwt beam="1">  1        2 0.47138293E+00 0.25843189E+04</pdfrwt>
<pdfrwt beam="2">  1       -1 0.83836215E-01 0.25843189E+04</pdfrwt>
<totfact> 0.22538528E+00</totfact>
</mgrwt>
</event>
<event>
12    6  0.1553355E-007  0.1467302E+04  0.7818608E-02  0.8906492E-01
         -1   -1    0    0    0  501 -0.00000000000E+00  0.00000000000E+00  0.32240793954E+03  0.32240793954E+03  0.00000000000E+00 0.  1.
          2   -1    0    0  501    0  0.00000000000E+00 -0.00000000000E+00 -0.16694502973E+04  0.16694502973E+04  0.00000000000E+00 0. -1.
         24    2    1    2    0    0 -0.32193483084E+03  0.15639821501E+03 -0.38597295747E+02  0.36883479921E+03  0.80292720121E+02 0.  0.
        254    2    1    2    0    0  0.32193483084E+03 -0.15639821501E+03 -0.13084450620E+04  0.16230234376E+04  0.89110838950E+03 0.  0.
         23    2    4    4    0    0 -0.76038985213E+02  0.25483750197E+03 -0.12943584192E+03  0.30933735365E+03  0.90619432280E+02 0.  0.
         23    2    4    4    0    0  0.39797381605E+03 -0.41123571698E+03 -0.11790092201E+04  0.13136860840E+04  0.90611329247E+02 0.  0.
          4    1    3    3  502    0 -0.85174617508E+02  0.10161704631E+02 -0.28431834941E+02  0.90367831372E+02  0.00000000000E+00 0. -1.
         -3    1    3    3    0  502 -0.23676021333E+03  0.14623651038E+03 -0.10165460806E+02  0.27846696784E+03  0.00000000000E+00 0.  1.
         11    1    5    5    0    0 -0.81694381947E+02  0.18620750468E+03 -0.61097158788E+02  0.21232067647E+03  0.00000000000E+00 0. -1.
        -11    1    5    5    0    0  0.56553967337E+01  0.68629997289E+02 -0.68338683135E+02  0.97016677189E+02  0.00000000000E+00 0.  1.
          4    1    6    6  503    0  0.16245985106E+03 -0.19758252166E+03 -0.43609763053E+03  0.50558204026E+03  0.00000000000E+00 0.  1.
         -4    1    6    6    0  503  0.23551396500E+03 -0.21365319532E+03 -0.74291158957E+03  0.80810404373E+03  0.00000000000E+00 0. -1.
<mgrwt>
<rscale>  0 0.14673023E+04</rscale>
<asrwt>0</asrwt>
<pdfrwt beam="1">  1        2 0.25683850E+00 0.14673023E+04</pdfrwt>
<pdfrwt beam="2">  1       -1 0.49601222E-01 0.14673023E+04</pdfrwt>
<totfact> 0.45863528E+01</totfact>
</mgrwt>
</event>
<event>
12    6  0.1553355E-007  0.1417215E+04  0.7818608E-02  0.8941451E-01
          2   -1    0    0  501    0  0.00000000000E+00  0.00000000000E+00  0.24630443600E+04  0.24630443600E+04  0.00000000000E+00 0. -1.
         -1   -1    0    0    0  501 -0.00000000000E+00 -0.00000000000E+00 -0.20386334807E+03  0.20386334807E+03  0.00000000000E+00 0.  1.
         24    2    1    2    0    0  0.29452062112E+03  0.89846960835E+02  0.15316032872E+03  0.35626952826E+03  0.93032348354E+02 0.  0.
        254    2    1    2    0    0 -0.29452062112E+03 -0.89846960835E+02  0.21060206832E+04  0.23106381798E+04  0.89939468935E+03 0.  0.
         23    2    4    4    0    0 -0.30833356216E+03  0.20016952608E+03  0.19131354392E+04  0.19502903073E+04  0.91693235116E+02 0.  0.
         23    2    4    4    0    0  0.13812941040E+02 -0.29001648692E+03  0.19288524408E+03  0.36034787256E+03  0.91353773018E+02 0.  0.
          2    1    3    3  502    0  0.67562982423E+02  0.53174988856E+01 -0.34454784314E+01  0.67859440831E+02  0.00000000000E+00 0. -1.
         -1    1    3    3    0  502  0.22695763870E+03  0.84529461949E+02  0.15660580715E+03  0.28841008743E+03  0.00000000000E+00 0.  1.
         11    1    5    5    0    0 -0.24879430619E+03  0.18769833602E+03  0.14455418059E+04  0.14787563642E+04  0.00000000000E+00 0. -1.
        -11    1    5    5    0    0 -0.59539255966E+02  0.12471190063E+02  0.46759363331E+03  0.47153394310E+03  0.00000000000E+00 0.  1.
          4    1    6    6  503    0  0.24091616660E+02 -0.15945612918E+03  0.15580319237E+03  0.22423491673E+03  0.00000000000E+00 0. -1.
         -4    1    6    6    0  503 -0.10278675620E+02 -0.13056035774E+03  0.37082051714E+02  0.13611295583E+03  0.00000000000E+00 0.  1.
<mgrwt>
<rscale>  0 0.14172148E+04</rscale>
<asrwt>0</asrwt>
<pdfrwt beam="1">  1        2 0.37892988E+00 0.14172148E+04</pdfrwt>
<pdfrwt beam="2">  1       -1 0.31363594E-01 0.14172148E+04</pdfrwt>
<totfact> 0.38320850E+01</totfact>
</mgrwt>
</event>
<event>
12    6  0.1553355E-007  0.1473138E+04  0.7818608E-02  0.8902515E-01
         -1   -1    0    0    0  501 -0.00000000000E+00  0.00000000000E+00  0.32723689746E+03  0.32723689746E+03  0.00000000000E+00 0.  1.
          2   -1    0    0  501    0  0.00000000000E+00 -0.00000000000E+00 -0.16579236587E+04  0.16579236587E+04  0.00000000000E+00 0. -1.
         24    2    1    2    0    0  0.44990493680E+02  0.76885043863E+02  0.18486332074E+03  0.22054404391E+03  0.80807013650E+02 0.  0.
        254    2    1    2    0    0 -0.44990493680E+02 -0.76885043863E+02 -0.15155500820E+04  0.17646165123E+04  0.89946869308E+03 0.  0.
         23    2    4    4    0    0  0.21284889547E+03 -0.38463469958E+03 -0.10576843512E+04  0.11489968102E+04  0.90823887628E+02 0.  0.
         23    2    4    4    0    0 -0.25783938915E+03  0.30774965572E+03 -0.45786573083E+03  0.61561970213E+03  0.90308299720E+02 0.  0.
          4    1    3    3  502    0 -0.54477296988E+00  0.51926317680E+00  0.91915770954E+02  0.91918852049E+02  0.00000000000E+00 0. -1.
         -3    1    3    3    0  502  0.45535266649E+02  0.76365780686E+02  0.92947549788E+02  0.12862519186E+03  0.00000000000E+00 0.  1.
         11    1    5    5    0    0  0.14000235094E+03 -0.22849410430E+03 -0.52997324768E+03  0.59387023601E+03  0.00000000000E+00 0. -1.
        -11    1    5    5    0    0  0.72846544529E+02 -0.15614059528E+03 -0.52771110353E+03  0.55512657415E+03  0.00000000000E+00 0.  1.
          4    1    6    6  503    0 -0.92868564939E+02  0.14630382705E+03 -0.25505156934E+03  0.30835155778E+03  0.00000000000E+00 0. -1.
         -4    1    6    6    0  503 -0.16497082421E+03  0.16144582867E+03 -0.20281416149E+03  0.30726814435E+03  0.00000000000E+00 0.  1.
<mgrwt>
<rscale>  0 0.14731379E+04</rscale>
<asrwt>0</asrwt>
<pdfrwt beam="1">  1        2 0.25506518E+00 0.14731379E+04</pdfrwt>
<pdfrwt beam="2">  1       -1 0.50344139E-01 0.14731379E+04</pdfrwt>
<totfact> 0.45227174E+01</totfact>
</mgrwt>
</event>
<event>
12    6  0.1553355E-007  0.3023891E+04  0.7818608E-02  0.8236941E-01
         -1   -1    0    0    0  501 -0.00000000000E+00  0.00000000000E+00  0.83300347740E+03  0.83300347740E+03  0.00000000000E+00 0.  1.
          2   -1    0    0  501    0  0.00000000000E+00 -0.00000000000E+00 -0.27442610703E+04  0.27442610703E+04  0.00000000000E+00 0. -1.
         24    2    1    2    0    0  0.95130662062E+03  0.66576078979E+02  0.30492175801E+03  0.10043581018E+04  0.79632011994E+02 0.  0.
        254    2    1    2    0    0 -0.95130662062E+03 -0.66576078979E+02 -0.22161793509E+04  0.25729064460E+04  0.89385681377E+03 0.  0.
         23    2    4    4    0    0 -0.63887077968E+03 -0.17495199409E+03 -0.53266509000E+03  0.85474673893E+03  0.89976753880E+02 0.  0.
         23    2    4    4    0    0 -0.31243584093E+03  0.10837591511E+03 -0.16835142609E+04  0.17181597071E+04  0.92146722550E+02 0.  0.
          4    1    3    3  502    0  0.19196714700E+02  0.10356167805E+02 -0.67106544006E+00  0.21822337082E+02  0.00000000000E+00 0. -1.
         -3    1    3    3    0  502  0.93210990592E+03  0.56219911174E+02  0.30559282345E+03  0.98253576467E+03  0.00000000000E+00 0.  1.
         11    1    5    5    0    0 -0.59765635699E+03 -0.17352325567E+03 -0.47062499386E+03  0.78025080978E+03  0.00000000000E+00 0.  1.
        -11    1    5    5    0    0 -0.41214422691E+02 -0.14287384157E+01 -0.62040096143E+02  0.74495929155E+02  0.00000000000E+00 0. -1.
          4    1    6    6  503    0 -0.20189635579E+03  0.57998969186E+02 -0.12668772935E+04  0.12841744802E+04  0.00000000000E+00 0. -1.
         -4    1    6    6    0  503 -0.11053948515E+03  0.50376945922E+02 -0.41663696744E+03  0.43398522682E+03  0.00000000000E+00 0.  1.
<mgrwt>
<rscale>  0 0.30238909E+04</rscale>
<asrwt>0</asrwt>
<pdfrwt beam="1">  1        2 0.42219402E+00 0.30238909E+04</pdfrwt>
<pdfrwt beam="2">  1       -1 0.12815438E+00 0.30238909E+04</pdfrwt>
<totfact> 0.12747384E+00</totfact>
</mgrwt>
</event>
<event>
12    6  0.1553355E-007  0.3186525E+04  0.7818608E-02  0.8192385E-01
         -1   -1    0    0    0  501 -0.00000000000E+00  0.00000000000E+00  0.95287173296E+03  0.95287173296E+03  0.00000000000E+00 0.  1.
          2   -1    0    0  501    0  0.00000000000E+00 -0.00000000000E+00 -0.26640374289E+04  0.26640374289E+04  0.00000000000E+00 0. -1.
         24    2    1    2    0    0 -0.51629511855E+03 -0.81018421373E+03  0.45307234276E+03  0.10649082307E+04  0.76130693471E+02 0.  0.
        254    2    1    2    0    0  0.51629511855E+03  0.81018421373E+03 -0.21642380387E+04  0.25520009311E+04  0.95174752676E+03 0.  0.
         23    2    4    4    0    0  0.21050019602E+03 -0.15240316993E+03 -0.84143964576E+03  0.88487752559E+03  0.86316273731E+02 0.  0.
         23    2    4    4    0    0  0.30579492253E+03  0.96258738366E+03 -0.13227983929E+04  0.16671234055E+04  0.97055937858E+02 0.  0.
          4    1    3    3  502    0 -0.87531641825E+02 -0.96643069963E+02  0.46113762550E+02  0.13830455665E+03  0.00000000000E+00 0. -1.
         -3    1    3    3    0  502 -0.42876347673E+03 -0.71354114376E+03  0.40695858021E+03  0.92660367409E+03  0.00000000000E+00 0.  1.
         11    1    5    5    0    0  0.20361974974E+03 -0.12748259953E+03 -0.80579862562E+03  0.84084733497E+03  0.00000000000E+00 0. -1.
        -11    1    5    5    0    0  0.68804462828E+01 -0.24920570398E+02 -0.35641020142E+02  0.44030190628E+02  0.00000000000E+00 0.  1.
          4    1    6    6  503    0  0.98773849149E+02  0.35627550210E+03 -0.41205970274E+03  0.55360789851E+03  0.00000000000E+00 0.  1.
         -4    1    6    6    0  503  0.20702107338E+03  0.60631188156E+03 -0.91073869016E+03  0.11135155070E+04  0.00000000000E+00 0. -1.
<mgrwt>
<rscale>  0 0.31865254E+04</rscale>
<asrwt>0</asrwt>
<pdfrwt beam="1">  1        2 0.40985191E+00 0.31865254E+04</pdfrwt>
<pdfrwt beam="2">  1       -1 0.14659565E+00 0.31865254E+04</pdfrwt>
<totfact> 0.99119190E-01</totfact>
</mgrwt>
</event>
<event>
12    6  0.1553355E-007  0.2217982E+04  0.7818608E-02  0.8510981E-01
          2   -1    0    0  501    0  0.00000000000E+00  0.00000000000E+00  0.20648290804E+04  0.20648290804E+04  0.00000000000E+00 0. -1.
         -1   -1    0    0    0  501 -0.00000000000E+00 -0.00000000000E+00 -0.59562362223E+03  0.59562362223E+03  0.00000000000E+00 0.  1.
         24    2    1    2    0    0 -0.14713974999E+03 -0.70524139665E+03  0.13358712682E+04  0.15198740551E+04  0.80309181003E+02 0.  0.
        254    2    1    2    0    0  0.14713974999E+03  0.70524139665E+03  0.13333419001E+03  0.11405786476E+04  0.87414307267E+03 0.  0.
         23    2    4    4    0    0  0.36444931866E+03  0.40629265147E+03 -0.24467458323E+03  0.60490649859E+03  0.90272896538E+02 0.  0.
         23    2    4    4    0    0 -0.21730956867E+03  0.29894874518E+03  0.37800877324E+03  0.53567214898E+03  0.86372551558E+02 0.  0.
          2    1    3    3  502    0 -0.11264291261E+02 -0.18645190696E+03  0.39372259251E+03  0.43578512793E+03  0.00000000000E+00 0. -1.
         -1    1    3    3    0  502 -0.13587545873E+03 -0.51878948969E+03  0.94214867569E+03  0.10840889272E+04  0.00000000000E+00 0.  1.
         11    1    5    5    0    0  0.21491356263E+03  0.17205648791E+03 -0.11962003386E+03  0.30016699841E+03  0.00000000000E+00 0. -1.
        -11    1    5    5    0    0  0.14953575602E+03  0.23423616357E+03 -0.12505454938E+03  0.30473950018E+03  0.00000000000E+00 0.  1.
          1    1    6    6  503    0 -0.17282069810E+03  0.24535205711E+03  0.25280394637E+03  0.39239579626E+03  0.00000000000E+00 0. -1.
         -1    1    6    6    0  503 -0.44488870568E+02  0.53596688064E+02  0.12520482687E+03  0.14327635272E+03  0.00000000000E+00 0.  1.
<mgrwt>
<rscale>  0 0.22179819E+04</rscale>
<asrwt>0</asrwt>
<pdfrwt beam="1">  1        2 0.31766601E+00 0.22179819E+04</pdfrwt>
<pdfrwt beam="2">  1       -1 0.91634404E-01 0.22179819E+04</pdfrwt>
<totfact> 0.74118761E+00</totfact>
</mgrwt>
</event>
<event>
12    6  0.1553355E-007  0.1560542E+04  0.7818608E-02  0.8845162E-01
          2   -1    0    0  501    0  0.00000000000E+00  0.00000000000E+00  0.13826234063E+04  0.13826234063E+04  0.00000000000E+00 0. -1.
         -1   -1    0    0    0  501 -0.00000000000E+00 -0.00000000000E+00 -0.44033906364E+03  0.44033906364E+03  0.00000000000E+00 0.  1.
         24    2    1    2    0    0  0.89309713063E+02 -0.27348570200E+03 -0.18276104757E+03  0.35018082692E+03  0.80339012876E+02 0.  0.
        254    2    1    2    0    0 -0.89309713063E+02  0.27348570200E+03  0.11250453903E+04  0.14727816430E+04  0.90586311544E+03 0.  0.
         23    2    4    4    0    0  0.22586347389E+03 -0.12007268633E+03  0.41855860133E+02  0.27454998326E+03  0.90520834285E+02 0.  0.
         23    2    4    4    0    0 -0.31517318696E+03  0.39355838833E+03  0.10831895301E+04  0.11982316598E+04  0.90759074144E+02 0.  0.
          4    1    3    3  502    0 -0.11696079829E+02 -0.64247662403E+02 -0.28242763772E+02  0.71149238317E+02  0.00000000000E+00 0. -1.
         -3    1    3    3    0  502  0.10100579289E+03 -0.20923803959E+03 -0.15451828380E+03  0.27903158861E+03  0.00000000000E+00 0.  1.
         11    1    5    5    0    0  0.61588015473E+01  0.43709691225E+01  0.19678208105E+02  0.21077667845E+02  0.00000000000E+00 0.  1.
        -11    1    5    5    0    0  0.21970467235E+03 -0.12444365545E+03  0.22177652028E+02  0.25347231542E+03  0.00000000000E+00 0. -1.
          3    1    6    6  503    0 -0.30309188055E+03  0.33312014883E+03  0.96574076586E+03  0.10655932378E+04  0.00000000000E+00 0. -1.
         -3    1    6    6    0  503 -0.12081306404E+02  0.60438239493E+02  0.11744876427E+03  0.13263842198E+03  0.00000000000E+00 0.  1.
<mgrwt>
<rscale>  0 0.15605423E+04</rscale>
<asrwt>0</asrwt>
<pdfrwt beam="1">  1        2 0.21271129E+00 0.15605423E+04</pdfrwt>
<pdfrwt beam="2">  1       -1 0.67744472E-01 0.15605423E+04</pdfrwt>
<totfact> 0.35814289E+01</totfact>
</mgrwt>
</event>
<event>
12    6  0.1553355E-007  0.1680090E+04  0.7818608E-02  0.8772802E-01
         -1   -1    0    0    0  501 -0.00000000000E+00  0.00000000000E+00  0.25102856737E+03  0.25102856737E+03  0.00000000000E+00 0.  1.
          2   -1    0    0  501    0  0.00000000000E+00 -0.00000000000E+00 -0.28111361866E+04  0.28111361866E+04  0.00000000000E+00 0. -1.
         24    2    1    2    0    0  0.76977227090E+02 -0.46618274719E+03 -0.24674917134E+03  0.53898976252E+03  0.79830841606E+02 0.  0.
        254    2    1    2    0    0 -0.76977227090E+02  0.46618274719E+03 -0.23133584479E+04  0.25231749914E+04  0.88968133721E+03 0.  0.
         23    2    4    4    0    0 -0.44664232821E+02  0.28973724642E+03 -0.13268001541E+03  0.33289870747E+03  0.85293594636E+02 0.  0.
         23    2    4    4    0    0 -0.32312994270E+02  0.17644550077E+03 -0.21806784325E+04  0.21902762840E+04  0.98866728185E+02 0.  0.
          4    1    3    3  502    0  0.39158733878E+02 -0.33777949695E+03 -0.21193240106E+03  0.40067909556E+03  0.00000000000E+00 0. -1.
         -1    1    3    3    0  502  0.37818493212E+02 -0.12840325024E+03 -0.34816770276E+02  0.13831066696E+03  0.00000000000E+00 0.  1.
         11    1    5    5    0    0 -0.25785124001E+02  0.34817074124E+02  0.31369259012E+01  0.43438940761E+02  0.00000000000E+00 0. -1.
        -11    1    5    5    0    0 -0.18879108820E+02  0.25492017230E+03 -0.13581694131E+03  0.28945976671E+03  0.00000000000E+00 0.  1.
          1    1    6    6  503    0 -0.51795829778E+02  0.14112199908E+03 -0.12979113371E+04  0.13065879479E+04  0.00000000000E+00 0.  1.
         -1    1    6    6    0  503  0.19482835508E+02  0.35323501695E+02 -0.88276709539E+03  0.88368833610E+03  0.00000000000E+00 0. -1.
<mgrwt>
<rscale>  0 0.16800899E+04</rscale>
<asrwt>0</asrwt>
<pdfrwt beam="1">  1        2 0.43248249E+00 0.16800899E+04</pdfrwt>
<pdfrwt beam="2">  1       -1 0.38619779E-01 0.16800899E+04</pdfrwt>
<totfact> 0.16103628E+01</totfact>
</mgrwt>
</event>
<event>
12    6  0.1553355E-007  0.1448937E+04  0.7818608E-02  0.8919138E-01
          2   -1    0    0  501    0  0.00000000000E+00  0.00000000000E+00  0.11920662546E+04  0.11920662546E+04  0.00000000000E+00 0. -1.
         -1   -1    0    0    0  501 -0.00000000000E+00 -0.00000000000E+00 -0.44028955695E+03  0.44028955695E+03  0.00000000000E+00 0.  1.
         24    2    1    2    0    0  0.18087731214E+03  0.39642625045E+03  0.15922101041E+03  0.47093017773E+03  0.80953863718E+02 0.  0.
        254    2    1    2    0    0 -0.18087731214E+03 -0.39642625045E+03  0.59255568726E+03  0.11614256338E+04  0.89884196962E+03 0.  0.
         23    2    4    4    0    0 -0.20370777481E+03 -0.64006121373E+03  0.23341295622E+03  0.71685694638E+03  0.90703134470E+02 0.  0.
         23    2    4    4    0    0  0.22830462673E+02  0.24363496329E+03  0.35914273104E+03  0.44456868746E+03  0.93694136677E+02 0.  0.
          4    1    3    3  502    0  0.75068636016E+02  0.98161088519E+02  0.19995724314E+02  0.12518277998E+03  0.00000000000E+00 0. -1.
         -3    1    3    3    0  502  0.10580867612E+03  0.29826516193E+03  0.13922528609E+03  0.34574739775E+03  0.00000000000E+00 0.  1.
         11    1    5    5    0    0 -0.17664820095E+03 -0.47030998260E+03  0.20511286010E+03  0.54264846080E+03  0.00000000000E+00 0. -1.
        -11    1    5    5    0    0 -0.27059573867E+02 -0.16975123114E+03  0.28300096124E+02  0.17420848559E+03  0.00000000000E+00 0.  1.
          1    1    6    6  503    0 -0.13647179379E+01  0.22947933588E+03  0.28899079424E+03  0.36902345075E+03  0.00000000000E+00 0. -1.
         -1    1    6    6    0  503  0.24195180611E+02  0.14155627409E+02  0.70151936799E+02  0.75545236705E+02  0.00000000000E+00 0.  1.
<mgrwt>
<rscale>  0 0.14489366E+04</rscale>
<asrwt>0</asrwt>
<pdfrwt beam="1">  1        2 0.18339481E+00 0.14489366E+04</pdfrwt>
<pdfrwt beam="2">  1       -1 0.67736855E-01 0.14489366E+04</pdfrwt>
<totfact> 0.46739076E+01</totfact>
</mgrwt>
</event>
<event>
12    6  0.1553355E-007  0.1960480E+04  0.7818608E-02  0.8625324E-01
         -1   -1    0    0    0  501 -0.00000000000E+00  0.00000000000E+00  0.30607617678E+03  0.30607617678E+03  0.00000000000E+00 0.  1.
          2   -1    0    0  501    0  0.00000000000E+00 -0.00000000000E+00 -0.31393176476E+04  0.31393176476E+04  0.00000000000E+00 0. -1.
         24    2    1    2    0    0 -0.63909478678E+03 -0.33613537139E+03 -0.76782583956E+03  0.10572175509E+04  0.81995704814E+02 0.  0.
        254    2    1    2    0    0  0.63909478678E+03  0.33613537139E+03 -0.20654156312E+04  0.23881762735E+04  0.95708675105E+03 0.  0.
         23    2    4    4    0    0  0.71022231342E+03  0.25992619144E+03 -0.21092693948E+04  0.22427352027E+04  0.94161829735E+02 0.  0.
         23    2    4    4    0    0 -0.71127526642E+02  0.76209179945E+02  0.43853763583E+02  0.14544107074E+03  0.91449375741E+02 0.  0.
          4    1    3    3  502    0 -0.22997096894E+03 -0.95181902021E+02 -0.31101159847E+03  0.39833962320E+03  0.00000000000E+00 0. -1.
         -3    1    3    3    0  502 -0.40912381784E+03 -0.24095346937E+03 -0.45681424108E+03  0.65887792768E+03  0.00000000000E+00 0.  1.
         11    1    5    5    0    0  0.64322875326E+03  0.26305617809E+03 -0.19348230892E+04  0.20558409881E+04  0.00000000000E+00 0. -1.
        -11    1    5    5    0    0  0.66993560160E+02 -0.31299866433E+01 -0.17444630567E+03  0.18689421468E+03  0.00000000000E+00 0.  1.
          1    1    6    6  503    0 -0.23083086161E+02  0.86368201759E+02  0.24889732061E+02  0.92799751637E+02  0.00000000000E+00 0. -1.
         -1    1    6    6    0  503 -0.48044440481E+02 -0.10159021814E+02  0.18964031522E+02  0.52641319103E+02  0.00000000000E+00 0.  1.
<mgrwt>
<rscale>  0 0.19604799E+04</rscale>
<asrwt>0</asrwt>
<pdfrwt beam="1">  1        2 0.48297196E+00 0.19604799E+04</pdfrwt>
<pdfrwt beam="2">  1       -1 0.47088641E-01 0.19604799E+04</pdfrwt>
<totfact> 0.67979929E+00</totfact>
</mgrwt>
</event>
<event>
12    6  0.1553355E-007  0.2762312E+04  0.7818608E-02  0.8315066E-01
          2   -1    0    0  501    0  0.00000000000E+00  0.00000000000E+00  0.31374645424E+04  0.31374645424E+04  0.00000000000E+00 0. -1.
         -1   -1    0    0    0  501 -0.00000000000E+00 -0.00000000000E+00 -0.60800407397E+03  0.60800407397E+03  0.00000000000E+00 0.  1.
         24    2    1    2    0    0 -0.87782658809E+03 -0.46365502841E+03  0.14374054138E+03  0.10062173915E+04  0.79098619508E+02 0.  0.
        254    2    1    2    0    0  0.87782658809E+03  0.46365502841E+03  0.23857199271E+04  0.27392512249E+04  0.90900065926E+03 0.  0.
         23    2    4    4    0    0 -0.81842881335E+02 -0.71663345256E+02  0.76553717751E+03  0.77938222840E+03  0.97752726394E+02 0.  0.
         23    2    4    4    0    0  0.95966946943E+03  0.53531837367E+03  0.16201827496E+04  0.19598689965E+04  0.92536964017E+02 0.  0.
          2    1    3    3  502    0 -0.26516635925E+03 -0.10180154755E+03  0.29507613248E+02  0.28556514564E+03  0.00000000000E+00 0. -1.
         -1    1    3    3    0  502 -0.61266022884E+03 -0.36185348086E+03  0.11423292814E+03  0.72065224587E+03  0.00000000000E+00 0.  1.
         11    1    5    5    0    0 -0.27002255519E+01  0.61104439225E+01  0.32556643017E+03  0.32563496310E+03  0.00000000000E+00 0.  1.
        -11    1    5    5    0    0 -0.79142655783E+02 -0.77773789178E+02  0.43997074734E+03  0.45374726529E+03  0.00000000000E+00 0. -1.
          2    1    6    6  503    0  0.17223593274E+03  0.13436371470E+03  0.29425619955E+03  0.36647719619E+03  0.00000000000E+00 0.  1.
         -2    1    6    6    0  503  0.78743353669E+03  0.40095465896E+03  0.13259265500E+04  0.15933918003E+04  0.00000000000E+00 0. -1.
<mgrwt>
<rscale>  0 0.27623115E+04</rscale>
<asrwt>0</asrwt>
<pdfrwt beam="1">  1        2 0.48268684E+00 0.27623115E+04</pdfrwt>
<pdfrwt beam="2">  1       -1 0.93539090E-01 0.27623115E+04</pdfrwt>
<totfact> 0.15654253E+00</totfact>
</mgrwt>
</event>
<event>
12    6  0.1553355E-007  0.2061524E+04  0.7818608E-02  0.8578385E-01
          2   -1    0    0  501    0  0.00000000000E+00  0.00000000000E+00  0.15223539760E+04  0.15223539760E+04  0.00000000000E+00 0. -1.
         -1   -1    0    0    0  501 -0.00000000000E+00 -0.00000000000E+00 -0.69791247372E+03  0.69791247372E+03  0.00000000000E+00 0.  1.
         24    2    1    2    0    0 -0.67971197381E+03  0.18985890325E+02  0.84622438689E+03  0.10884223209E+04  0.78731215932E+02 0.  0.
        254    2    1    2    0    0  0.67971197381E+03 -0.18985890325E+02 -0.21782884633E+02  0.11318441288E+04  0.90455945431E+03 0.  0.
         23    2    4    4    0    0  0.17445190679E+02 -0.32658874455E+03  0.15783778858E+03  0.37423906701E+03  0.90429912264E+02 0.  0.
         23    2    4    4    0    0  0.66226678313E+03  0.30760285422E+03 -0.17962067322E+03  0.75760506175E+03  0.92114251752E+02 0.  0.
          2    1    3    3  502    0 -0.44899252907E+03  0.39626715028E+02  0.59886348075E+03  0.74953454642E+03  0.00000000000E+00 0. -1.
         -1    1    3    3    0  502 -0.23071944474E+03 -0.20640824703E+02  0.24736090615E+03  0.33888777451E+03  0.00000000000E+00 0.  1.
         11    1    5    5    0    0  0.34995798097E+02 -0.27385037185E+03  0.15910494684E+03  0.31864261510E+03  0.00000000000E+00 0. -1.
        -11    1    5    5    0    0 -0.17550607417E+02 -0.52738372697E+02 -0.12671582612E+01  0.55596451915E+02  0.00000000000E+00 0.  1.
          4    1    6    6  503    0  0.17911634107E+03  0.12772039811E+03 -0.41441260857E+02  0.22385830749E+03  0.00000000000E+00 0. -1.
         -4    1    6    6    0  503  0.48315044206E+03  0.17988245612E+03 -0.13817941236E+03  0.53374675426E+03  0.00000000000E+00 0.  1.
<mgrwt>
<rscale>  0 0.20615235E+04</rscale>
<asrwt>0</asrwt>
<pdfrwt beam="1">  1        2 0.23420830E+00 0.20615235E+04</pdfrwt>
<pdfrwt beam="2">  1       -1 0.10737115E+00 0.20615235E+04</pdfrwt>
<totfact> 0.10492864E+01</totfact>
</mgrwt>
</event>
<event>
12    6  0.1553355E-007  0.2119698E+04  0.7818608E-02  0.8552616E-01
         -1   -1    0    0    0  501 -0.00000000000E+00  0.00000000000E+00  0.44265037330E+03  0.44265037330E+03  0.00000000000E+00 0.  1.
          2   -1    0    0  501    0  0.00000000000E+00 -0.00000000000E+00 -0.25376221689E+04  0.25376221689E+04  0.00000000000E+00 0. -1.
         24    2    1    2    0    0 -0.41992105203E+03 -0.75555065328E+03 -0.96048278599E+03  0.12943067194E+04  0.74244339934E+02 0.  0.
        254    2    1    2    0    0  0.41992105203E+03  0.75555065328E+03 -0.11344890096E+04  0.16859658228E+04  0.89901332759E+03 0.  0.
         23    2    4    4    0    0  0.29274494501E+03 -0.14011675640E+03 -0.33683024271E+03  0.47658970444E+03  0.91382852448E+02 0.  0.
         23    2    4    4    0    0  0.12717610703E+03  0.89566740968E+03 -0.79765876689E+03  0.12093761184E+04  0.89091056458E+02 0.  0.
          4    1    3    3  502    0 -0.25559415573E+03 -0.44323610753E+03 -0.62089754154E+03  0.80454979744E+03  0.00000000000E+00 0. -1.
         -3    1    3    3    0  502 -0.16432689630E+03 -0.31231454575E+03 -0.33958524444E+03  0.48975692193E+03  0.00000000000E+00 0.  1.
         11    1    5    5    0    0  0.90337416923E+02 -0.48629375212E+02 -0.17090914906E+03  0.19933790975E+03  0.00000000000E+00 0. -1.
        -11    1    5    5    0    0  0.20240752808E+03 -0.91487381186E+02 -0.16592109365E+03  0.27725179469E+03  0.00000000000E+00 0.  1.
          4    1    6    6  503    0  0.11173620945E+03  0.85032480784E+03 -0.72866038623E+03  0.11253813655E+04  0.00000000000E+00 0. -1.
         -4    1    6    6    0  503  0.15439897582E+02  0.45342601846E+02 -0.68998380664E+02  0.83994752894E+02  0.00000000000E+00 0.  1.
<mgrwt>
<rscale>  0 0.21196975E+04</rscale>
<asrwt>0</asrwt>
<pdfrwt beam="1">  1        2 0.39040342E+00 0.21196975E+04</pdfrwt>
<pdfrwt beam="2">  1       -1 0.68100057E-01 0.21196975E+04</pdfrwt>
<totfact> 0.75690314E+00</totfact>
</mgrwt>
</event>
<event>
12    6  0.1553355E-007  0.1981294E+04  0.7818608E-02  0.8615417E-01
         -1   -1    0    0    0  501 -0.00000000000E+00  0.00000000000E+00  0.54898728115E+03  0.54898728115E+03  0.00000000000E+00 0.  1.
          2   -1    0    0  501    0  0.00000000000E+00 -0.00000000000E+00 -0.17876213768E+04  0.17876213768E+04  0.00000000000E+00 0. -1.
         24    2    1    2    0    0  0.12265576438E+02 -0.45730990170E+03 -0.12422677767E+04  0.13262331608E+04  0.79889781080E+02 0.  0.
        254    2    1    2    0    0 -0.12265576438E+02  0.45730990170E+03  0.36336811067E+01  0.10103754971E+04  0.90086772116E+03 0.  0.
         23    2    4    4    0    0  0.94310964023E+01  0.34886781618E+03  0.42873399914E+03  0.56074723416E+03  0.93951688908E+02 0.  0.
         23    2    4    4    0    0 -0.21696672840E+02  0.10844208551E+03 -0.42510031803E+03  0.44962826299E+03  0.96046150152E+02 0.  0.
          2    1    3    3  502    0 -0.19449056595E+02 -0.37412708834E+03 -0.10320683498E+04  0.10979592081E+04  0.00000000000E+00 0. -1.
         -1    1    3    3    0  502  0.31714633033E+02 -0.83182813355E+02 -0.21019942690E+03  0.22827395264E+03  0.00000000000E+00 0.  1.
         11    1    5    5    0    0  0.93935467658E+01 -0.50938427372E+00  0.25663947757E+02  0.27333796071E+02  0.00000000000E+00 0.  1.
        -11    1    5    5    0    0  0.37549636419E-01  0.34937720046E+03  0.40307005138E+03  0.53341343809E+03  0.00000000000E+00 0. -1.
          4    1    6    6  503    0  0.27746071629E+02  0.35254785094E+02 -0.24456334530E+03  0.24864427246E+03  0.00000000000E+00 0. -1.
         -4    1    6    6    0  503 -0.49442744469E+02  0.73187300421E+02 -0.18053697274E+03  0.20098399053E+03  0.00000000000E+00 0.  1.
<mgrwt>
<rscale>  0 0.19812939E+04</rscale>
<asrwt>0</asrwt>
<pdfrwt beam="1">  1        2 0.27501867E+00 0.19812939E+04</pdfrwt>
<pdfrwt beam="2">  1       -1 0.84459581E-01 0.19812939E+04</pdfrwt>
<totfact> 0.12894409E+01</totfact>
</mgrwt>
</event>
<event>
12    6  0.1553355E-007  0.1641884E+04  0.7818608E-02  0.8795222E-01
          2   -1    0    0  501    0  0.00000000000E+00  0.00000000000E+00  0.90475343792E+03  0.90475343792E+03  0.00000000000E+00 0. -1.
         -1   -1    0    0    0  501 -0.00000000000E+00 -0.00000000000E+00 -0.74489456054E+03  0.74489456054E+03  0.00000000000E+00 0.  1.
         24    2    1    2    0    0  0.32093928411E+03 -0.17892275084E+02  0.53044527533E+03  0.62584015640E+03  0.83555691924E+02 0.  0.
        254    2    1    2    0    0 -0.32093928411E+03  0.17892275084E+02 -0.37058639795E+03  0.10238078421E+04  0.89862453868E+03 0.  0.
         23    2    4    4    0    0  0.18840300465E+03 -0.27200408499E+03 -0.46844781867E+02  0.34707004605E+03  0.93708424705E+02 0.  0.
         23    2    4    4    0    0 -0.50934228876E+03  0.28989636007E+03 -0.32374161608E+03  0.67673779601E+03  0.98467983908E+02 0.  0.
          4    1    3    3  502    0  0.27943626309E+03 -0.24873900160E+02  0.39850041096E+03  0.48734578440E+03  0.00000000000E+00 0. -1.
         -3    1    3    3    0  502  0.41503021023E+02  0.69816250754E+01  0.13194486437E+03  0.13849437200E+03  0.00000000000E+00 0.  1.
         11    1    5    5    0    0  0.40300642454E+02 -0.11610692002E+02 -0.19525312229E+02  0.46262163466E+02  0.00000000000E+00 0. -1.
        -11    1    5    5    0    0  0.14810236220E+03 -0.26039339299E+03 -0.27319469639E+02  0.30080788258E+03  0.00000000000E+00 0.  1.
          1    1    6    6  503    0 -0.10098766750E+03  0.35921566131E+02 -0.99044854440E+02  0.14594091644E+03  0.00000000000E+00 0. -1.
         -1    1    6    6    0  503 -0.40835462127E+03  0.25397479394E+03 -0.22469676164E+03  0.53079687957E+03  0.00000000000E+00 0.  1.
<mgrwt>
<rscale>  0 0.16418842E+04</rscale>
<asrwt>0</asrwt>
<pdfrwt beam="1">  1        2 0.13919284E+00 0.16418842E+04</pdfrwt>
<pdfrwt beam="2">  1       -1 0.11459916E+00 0.16418842E+04</pdfrwt>
<totfact> 0.21981753E+01</totfact>
</mgrwt>
</event>
<event>
12    6  0.1553355E-007  0.1039669E+04  0.7818608E-02  0.9266076E-01
         -1   -1    0    0    0  501 -0.00000000000E+00  0.00000000000E+00  0.18641349175E+03  0.18641349175E+03  0.00000000000E+00 0.  1.
          2   -1    0    0  501    0  0.00000000000E+00 -0.00000000000E+00 -0.14496158099E+04  0.14496158099E+04  0.00000000000E+00 0. -1.
         24    2    1    2    0    0 -0.11636508593E+02  0.86382740744E+02 -0.21655190401E+03  0.24750512168E+03  0.82259782994E+02 0.  0.
        254    2    1    2    0    0  0.11636508593E+02 -0.86382740744E+02 -0.10466504141E+04  0.13885241799E+04  0.90825377657E+03 0.  0.
         23    2    4    4    0    0 -0.65294542774E+02  0.35662660626E+03 -0.76434494935E+03  0.85093798482E+03  0.91795091444E+02 0.  0.
         23    2    4    4    0    0  0.76931051367E+02 -0.44300934700E+03 -0.28230546475E+03  0.53758619510E+03  0.84420812207E+02 0.  0.
          4    1    3    3  502    0 -0.60998736297E+00  0.97603382136E+02 -0.14883575919E+03  0.17798560477E+03  0.00000000000E+00 0. -1.
         -3    1    3    3    0  502 -0.11026521230E+02 -0.11220641392E+02 -0.67716144816E+02  0.69519516917E+02  0.00000000000E+00 0.  1.
         11    1    5    5    0    0 -0.49752047116E+02  0.35074576604E+03 -0.74790353966E+03  0.82756121418E+03  0.00000000000E+00 0.  1.
        -11    1    5    5    0    0 -0.15542495658E+02  0.58808402199E+01 -0.16441409689E+02  0.23376770640E+02  0.00000000000E+00 0. -1.
          4    1    6    6  503    0  0.44492639227E+02 -0.71488432435E+02 -0.60389721224E+02  0.10362002387E+03  0.00000000000E+00 0. -1.
         -4    1    6    6    0  503  0.32438412140E+02 -0.37152091457E+03 -0.22191574353E+03  0.43396617123E+03  0.00000000000E+00 0.  1.
<mgrwt>
<rscale>  0 0.10396691E+04</rscale>
<asrwt>0</asrwt>
<pdfrwt beam="1">  1        2 0.22301782E+00 0.10396691E+04</pdfrwt>
<pdfrwt beam="2">  1       -1 0.28678999E-01 0.10396691E+04</pdfrwt>
<totfact> 0.16976599E+02</totfact>
</mgrwt>
</event>
<event>
12    6  0.1553355E-007  0.1928553E+04  0.7818608E-02  0.8640773E-01
         -1   -1    0    0    0  501 -0.00000000000E+00  0.00000000000E+00  0.44287342957E+03  0.44287342957E+03  0.00000000000E+00 0.  1.
          2   -1    0    0  501    0  0.00000000000E+00 -0.00000000000E+00 -0.20995366062E+04  0.20995366062E+04  0.00000000000E+00 0. -1.
         24    2    1    2    0    0 -0.55593940408E+02 -0.67767732291E+03 -0.10689578701E+04  0.12693437921E+04  0.78901801653E+02 0.  0.
        254    2    1    2    0    0  0.55593940408E+02  0.67767732291E+03 -0.58770530649E+03  0.12730662436E+04  0.90164454926E+03 0.  0.
         23    2    4    4    0    0 -0.24733293799E+03  0.75601617672E+03 -0.37889600792E+03  0.88575490039E+03  0.90914889179E+02 0.  0.
         23    2    4    4    0    0  0.30292687840E+03 -0.78338853807E+02 -0.20880929857E+03  0.38731134324E+03  0.92233853661E+02 0.  0.
          4    1    3    3  502    0 -0.28802709035E+02 -0.63604513474E+02 -0.10507601012E+03  0.12615901904E+03  0.00000000000E+00 0. -1.
         -3    1    3    3    0  502 -0.26791231374E+02 -0.61407280944E+03 -0.96388186001E+03  0.11431847731E+04  0.00000000000E+00 0.  1.
         11    1    5    5    0    0 -0.13515375993E+03  0.32065900092E+03 -0.20392520448E+03  0.40332892621E+03  0.00000000000E+00 0.  1.
        -11    1    5    5    0    0 -0.11217917806E+03  0.43535717580E+03 -0.17497080344E+03  0.48242597419E+03  0.00000000000E+00 0. -1.
          2    1    6    6  503    0  0.24896371579E+03 -0.90094638136E+02 -0.19901595204E+03  0.33122096064E+03  0.00000000000E+00 0. -1.
         -2    1    6    6    0  503  0.53963162612E+02  0.11755784329E+02 -0.97933465304E+01  0.56090382603E+02  0.00000000000E+00 0.  1.
<mgrwt>
<rscale>  0 0.19285528E+04</rscale>
<asrwt>0</asrwt>
<pdfrwt beam="1">  1        2 0.32300563E+00 0.19285528E+04</pdfrwt>
<pdfrwt beam="2">  1       -1 0.68134375E-01 0.19285528E+04</pdfrwt>
<totfact> 0.13641320E+01</totfact>
</mgrwt>
</event>
<event>
12    6  0.1553355E-007  0.1590459E+04  0.7818608E-02  0.8826431E-01
         -1   -1    0    0    0  501 -0.00000000000E+00  0.00000000000E+00  0.52090471430E+03  0.52090471430E+03  0.00000000000E+00 0.  1.
          2   -1    0    0  501    0  0.00000000000E+00 -0.00000000000E+00 -0.12140222707E+04  0.12140222707E+04  0.00000000000E+00 0. -1.
         24    2    1    2    0    0  0.10728526870E+03 -0.30003401234E+03  0.24929832186E+03  0.41161650833E+03  0.75815296683E+02 0.  0.
        254    2    1    2    0    0 -0.10728526870E+03  0.30003401234E+03 -0.94241587828E+03  0.13233104767E+04  0.87262385519E+03 0.  0.
         23    2    4    4    0    0  0.17214424125E+03  0.54149670667E+01 -0.88159704628E+03  0.90264778470E+03  0.88863432002E+02 0.  0.
         23    2    4    4    0    0 -0.27942950994E+03  0.29461904527E+03 -0.60818832000E+02  0.42066269199E+03  0.91525609788E+02 0.  0.
          4    1    3    3  502    0  0.53311044743E+02 -0.16523558671E+03  0.88212493428E+02  0.19474678586E+03  0.00000000000E+00 0. -1.
         -3    1    3    3    0  502  0.53974223956E+02 -0.13479842563E+03  0.16108582843E+03  0.21686972247E+03  0.00000000000E+00 0.  1.
         11    1    5    5    0    0  0.10415168133E+03  0.23129249363E+02 -0.69724023937E+03  0.70535557437E+03  0.00000000000E+00 0.  1.
        -11    1    5    5    0    0  0.67992559920E+02 -0.17714282296E+02 -0.18435680692E+03  0.19729221033E+03  0.00000000000E+00 0. -1.
          4    1    6    6  503    0 -0.11700124080E+03  0.97583841376E+02  0.18016195536E+02  0.15341603484E+03  0.00000000000E+00 0. -1.
         -4    1    6    6    0  503 -0.16242826915E+03  0.19703520389E+03 -0.78835027536E+02  0.26724665715E+03  0.00000000000E+00 0.  1.
<mgrwt>
<rscale>  0 0.15904590E+04</rscale>
<asrwt>0</asrwt>
<pdfrwt beam="1">  1        2 0.18677266E+00 0.15904590E+04</pdfrwt>
<pdfrwt beam="2">  1       -1 0.80139187E-01 0.15904590E+04</pdfrwt>
<totfact> 0.31597334E+01</totfact>
</mgrwt>
</event>
<event>
12    6  0.1553355E-007  0.2397391E+04  0.7818608E-02  0.8440481E-01
          2   -1    0    0  501    0  0.00000000000E+00  0.00000000000E+00  0.17544658134E+04  0.17544658134E+04  0.00000000000E+00 0. -1.
         -1   -1    0    0    0  501 -0.00000000000E+00 -0.00000000000E+00 -0.81897929378E+03  0.81897929378E+03  0.00000000000E+00 0.  1.
         24    2    1    2    0    0  0.67118321674E+03 -0.71035733108E+02 -0.43440011261E+03  0.80632207922E+03  0.76934074272E+02 0.  0.
        254    2    1    2    0    0 -0.67118321674E+03  0.71035733108E+02  0.13698866322E+04  0.17671230279E+04  0.88915770535E+03 0.  0.
         23    2    4    4    0    0 -0.18290047567E+03  0.32153905897E+03  0.10683108298E+04  0.11342307545E+04  0.91386131605E+02 0.  0.
         23    2    4    4    0    0 -0.48828274107E+03 -0.25050332586E+03  0.30157580244E+03  0.63289227343E+03  0.91829808110E+02 0.  0.
          2    1    3    3  502    0  0.11529582797E+03 -0.45335338473E+01 -0.10924702200E+03  0.15889805754E+03  0.00000000000E+00 0. -1.
         -1    1    3    3    0  502  0.55588738878E+03 -0.66502199261E+02 -0.32515309061E+03  0.64742402167E+03  0.00000000000E+00 0.  1.
         11    1    5    5    0    0 -0.10399760270E+03  0.26291342748E+03  0.79557319728E+03  0.84431965745E+03  0.00000000000E+00 0.  1.
        -11    1    5    5    0    0 -0.78902872974E+02  0.58625631489E+02  0.27273763248E+03  0.28991109707E+03  0.00000000000E+00 0. -1.
          4    1    6    6  503    0 -0.10958567476E+03 -0.24013414488E+02  0.88447643825E+02  0.14285884602E+03  0.00000000000E+00 0. -1.
         -4    1    6    6    0  503 -0.37869706631E+03 -0.22648991138E+03  0.21312815861E+03  0.49003342741E+03  0.00000000000E+00 0.  1.
<mgrwt>
<rscale>  0 0.23973912E+04</rscale>
<asrwt>0</asrwt>
<pdfrwt beam="1">  1        2 0.26991782E+00 0.23973912E+04</pdfrwt>
<pdfrwt beam="2">  1       -1 0.12599681E+00 0.23973912E+04</pdfrwt>
<totfact> 0.51382521E+00</totfact>
</mgrwt>
</event>
<event>
12    6  0.1553355E-007  0.1856290E+04  0.7818608E-02  0.8676925E-01
          2   -1    0    0  501    0  0.00000000000E+00  0.00000000000E+00  0.13423199966E+04  0.13423199966E+04  0.00000000000E+00 0. -1.
         -1   -1    0    0    0  501 -0.00000000000E+00 -0.00000000000E+00 -0.64176419447E+03  0.64176419447E+03  0.00000000000E+00 0.  1.
         24    2    1    2    0    0  0.30254618103E+03  0.10585441994E+03  0.93922942868E+03  0.99556068768E+03  0.79055760616E+02 0.  0.
        254    2    1    2    0    0 -0.30254618103E+03 -0.10585441994E+03 -0.23867362660E+03  0.98852350334E+03  0.90414283537E+03 0.  0.
         23    2    4    4    0    0 -0.22755834167E+03 -0.97300027279E+02  0.32132162891E+03  0.41596294130E+03  0.92344383461E+02 0.  0.
         23    2    4    4    0    0 -0.74987839361E+02 -0.85543926660E+01 -0.55999525551E+03  0.57256056204E+03  0.92382667912E+02 0.  0.
          2    1    3    3  502    0  0.26120044486E+03  0.64492836737E+02  0.71868005579E+03  0.76738909360E+03  0.00000000000E+00 0. -1.
         -1    1    3    3    0  502  0.41345736169E+02  0.41361583208E+02  0.22054937289E+03  0.22817159409E+03  0.00000000000E+00 0.  1.
         11    1    5    5    0    0 -0.17795501801E+03 -0.71387415532E+02  0.17612310663E+03  0.26035264589E+03  0.00000000000E+00 0. -1.
        -11    1    5    5    0    0 -0.49603323654E+02 -0.25912611747E+02  0.14519852228E+03  0.15561029541E+03  0.00000000000E+00 0.  1.
          2    1    6    6  503    0 -0.62732963381E+02  0.13867303737E+01 -0.55066505306E+03  0.55422860660E+03  0.00000000000E+00 0. -1.
         -2    1    6    6    0  503 -0.12254875980E+02 -0.99411230397E+01 -0.93302024491E+01  0.18331955442E+02  0.00000000000E+00 0.  1.
<mgrwt>
<rscale>  0 0.18562898E+04</rscale>
<asrwt>0</asrwt>
<pdfrwt beam="1">  1        2 0.20651077E+00 0.18562898E+04</pdfrwt>
<pdfrwt beam="2">  1       -1 0.98732953E-01 0.18562898E+04</pdfrwt>
<totfact> 0.16421935E+01</totfact>
</mgrwt>
</event>
<event>
12    6  0.1553355E-007  0.1699752E+04  0.7818608E-02  0.8761506E-01
          2   -1    0    0  501    0  0.00000000000E+00  0.00000000000E+00  0.34110792212E+04  0.34110792212E+04  0.00000000000E+00 0. -1.
         -1   -1    0    0    0  501 -0.00000000000E+00 -0.00000000000E+00 -0.21174799883E+03  0.21174799883E+03  0.00000000000E+00 0.  1.
         24    2    1    2    0    0  0.32943987345E+03  0.30686855885E+03  0.16182196453E+04  0.16816036064E+04  0.80355000906E+02 0.  0.
        254    2    1    2    0    0 -0.32943987345E+03 -0.30686855885E+03  0.15811115771E+04  0.19412236136E+04  0.10323450761E+04 0.  0.
         23    2    4    4    0    0 -0.44545012095E+03  0.15949764119E+03  0.12771439102E+04  0.13649671054E+04  0.90406436508E+02 0.  0.
         23    2    4    4    0    0  0.11601024750E+03 -0.46636620003E+03  0.30396766693E+03  0.57625650820E+03  0.93377784531E+02 0.  0.
          2    1    3    3  502    0  0.23172716308E+03  0.24064750290E+03  0.12985970115E+04  0.13408813882E+04  0.00000000000E+00 0. -1.
         -1    1    3    3    0  502  0.97712710373E+02  0.66221055946E+02  0.31962263373E+03  0.34072221825E+03  0.00000000000E+00 0.  1.
         11    1    5    5    0    0 -0.20407883168E+03  0.43949069986E+02  0.46081890528E+03  0.50589895607E+03  0.00000000000E+00 0.  1.
        -11    1    5    5    0    0 -0.24137128926E+03  0.11554857120E+03  0.81632500493E+03  0.85906814937E+03  0.00000000000E+00 0. -1.
          3    1    6    6  503    0  0.79077919724E+02 -0.40787485062E+03  0.22960386132E+03  0.47469268405E+03  0.00000000000E+00 0. -1.
         -3    1    6    6    0  503  0.36932327773E+02 -0.58491349412E+02  0.74363805613E+02  0.10156382415E+03  0.00000000000E+00 0.  1.
<mgrwt>
<rscale>  0 0.16997520E+04</rscale>
<asrwt>0</asrwt>
<pdfrwt beam="1">  1        2 0.52478138E+00 0.16997520E+04</pdfrwt>
<pdfrwt beam="2">  1       -1 0.32576618E-01 0.16997520E+04</pdfrwt>
<totfact> 0.90336279E+00</totfact>
</mgrwt>
</event>
<event>
12    6  0.1553355E-007  0.1689112E+04  0.7818608E-02  0.8767599E-01
          2   -1    0    0  501    0  0.00000000000E+00  0.00000000000E+00  0.82687496552E+03  0.82687496552E+03  0.00000000000E+00 0. -1.
         -1   -1    0    0    0  501 -0.00000000000E+00 -0.00000000000E+00 -0.86261506662E+03  0.86261506662E+03  0.00000000000E+00 0.  1.
         24    2    1    2    0    0  0.33832908586E+03 -0.21886009319E+03 -0.45734238910E+03  0.61652154911E+03  0.92576719108E+02 0.  0.
        254    2    1    2    0    0 -0.33832908586E+03  0.21886009319E+03  0.42160228800E+03  0.10729684830E+04  0.90063675563E+03 0.  0.
         23    2    4    4    0    0  0.21311486004E+03 -0.15748685926E+03  0.45397152898E+01  0.28049613974E+03  0.91855435266E+02 0.  0.
         23    2    4    4    0    0 -0.55144394590E+03  0.37634695246E+03  0.41706257271E+03  0.79247234328E+03  0.91344245714E+02 0.  0.
          4    1    3    3  502    0  0.72763235426E+02 -0.43742470327E+02 -0.46104866625E+02  0.96610304143E+02  0.00000000000E+00 0. -1.
         -3    1    3    3    0  502  0.26556585044E+03 -0.17511762286E+03 -0.41123752247E+03  0.51991124497E+03  0.00000000000E+00 0.  1.
         11    1    5    5    0    0  0.28983026146E+02  0.44802079738E+01 -0.17708109025E+02  0.34258797312E+02  0.00000000000E+00 0.  1.
        -11    1    5    5    0    0  0.18413183389E+03 -0.16196706724E+03  0.22247824315E+02  0.24623734243E+03  0.00000000000E+00 0. -1.
          4    1    6    6  503    0 -0.21088711139E+03  0.17550598986E+03  0.21432901939E+03  0.34815607820E+03  0.00000000000E+00 0. -1.
         -4    1    6    6    0  503 -0.34055683450E+03  0.20084096259E+03  0.20273355331E+03  0.44431626509E+03  0.00000000000E+00 0.  1.
<mgrwt>
<rscale>  0 0.16891120E+04</rscale>
<asrwt>0</asrwt>
<pdfrwt beam="1">  1        2 0.12721153E+00 0.16891120E+04</pdfrwt>
<pdfrwt beam="2">  1       -1 0.13271001E+00 0.16891120E+04</pdfrwt>
<totfact> 0.17242517E+01</totfact>
</mgrwt>
</event>
<event>
12    6  0.1553355E-007  0.3309775E+04  0.7818608E-02  0.8160413E-01
         -1   -1    0    0    0  501 -0.00000000000E+00  0.00000000000E+00  0.12239721520E+04  0.12239721520E+04  0.00000000000E+00 0.  1.
          2   -1    0    0  501    0  0.00000000000E+00 -0.00000000000E+00 -0.22375120219E+04  0.22375120219E+04  0.00000000000E+00 0. -1.
         24    2    1    2    0    0  0.21436458778E+03  0.18305170250E+03 -0.20438126045E+04  0.20647678456E+04  0.81462825225E+02 0.  0.
        254    2    1    2    0    0 -0.21436458778E+03 -0.18305170250E+03  0.10302727345E+04  0.13967163283E+04  0.89994138245E+03 0.  0.
         23    2    4    4    0    0  0.19884403522E+03 -0.57533250179E+02 -0.48642496385E+02  0.23103898433E+03  0.90354272757E+02 0.  0.
         23    2    4    4    0    0 -0.41320862300E+03 -0.12551845232E+03  0.10789152309E+04  0.11656773440E+04  0.90825914063E+02 0.  0.
          4    1    3    3  502    0  0.19013323494E+03  0.17194210749E+03 -0.19631114544E+04  0.19797780981E+04  0.00000000000E+00 0. -1.
         -3    1    3    3    0  502  0.24231352842E+02  0.11109595009E+02 -0.80701150074E+02  0.84989747529E+02  0.00000000000E+00 0.  1.
         11    1    5    5    0    0 -0.79934999178E+00 -0.23164334668E+02 -0.71220820880E+01  0.24247668224E+02  0.00000000000E+00 0.  1.
        -11    1    5    5    0    0  0.19964338521E+03 -0.34368915511E+02 -0.41520414297E+02  0.20679131610E+03  0.00000000000E+00 0. -1.
          1    1    6    6  503    0 -0.40156216436E+03 -0.13264402548E+03  0.10662458803E+04  0.11470513879E+04  0.00000000000E+00 0. -1.
         -1    1    6    6    0  503 -0.11646458644E+02  0.71255731533E+01  0.12669350651E+02  0.18625956019E+02  0.00000000000E+00 0.  1.
<mgrwt>
<rscale>  0 0.33097749E+04</rscale>
<asrwt>0</asrwt>
<pdfrwt beam="1">  1        2 0.34423261E+00 0.33097749E+04</pdfrwt>
<pdfrwt beam="2">  1       -1 0.18830341E+00 0.33097749E+04</pdfrwt>
<totfact> 0.84755095E-01</totfact>
</mgrwt>
</event>
<event>
12    6  0.1553355E-007  0.1094309E+04  0.7818608E-02  0.9210756E-01
         -1   -1    0    0    0  501 -0.00000000000E+00  0.00000000000E+00  0.11952723681E+04  0.11952723681E+04  0.00000000000E+00 0.  1.
          2   -1    0    0  501    0  0.00000000000E+00 -0.00000000000E+00 -0.25046866270E+03  0.25046866270E+03  0.00000000000E+00 0. -1.
         24    2    1    2    0    0 -0.14603778533E+03 -0.94178133489E+02  0.71706198510E+01  0.19152468132E+03  0.80210536680E+02 0.  0.
        254    2    1    2    0    0  0.14603778533E+03  0.94178133489E+02  0.93763308559E+03  0.12542163495E+04  0.81468171249E+03 0.  0.
         23    2    4    4    0    0  0.46938198740E+03  0.28024562153E+02  0.64921761395E+03  0.80673830086E+03  0.90765354820E+02 0.  0.
         23    2    4    4    0    0 -0.32334420207E+03  0.66153571336E+02  0.28841547164E+03  0.44747804867E+03  0.90140733007E+02 0.  0.
          2    1    3    3  502    0 -0.96654802487E+02 -0.67060122484E+02 -0.33176137122E+02  0.12222874844E+03  0.00000000000E+00 0. -1.
         -1    1    3    3    0  502 -0.49382982839E+02 -0.27118011006E+02  0.40346756973E+02  0.69295932876E+02  0.00000000000E+00 0.  1.
         11    1    5    5    0    0  0.12451245076E+03 -0.39642301494E+01  0.11182489954E+03  0.16740332635E+03  0.00000000000E+00 0.  1.
        -11    1    5    5    0    0  0.34486953663E+03  0.31988792302E+02  0.53739271441E+03  0.63933497451E+03  0.00000000000E+00 0. -1.
          2    1    6    6  503    0 -0.12715167050E+03  0.38138909595E+02  0.17325917598E+03  0.21826787623E+03  0.00000000000E+00 0.  1.
         -2    1    6    6    0  503 -0.19619253157E+03  0.28014661742E+02  0.11515629567E+03  0.22921017244E+03  0.00000000000E+00 0. -1.
<mgrwt>
<rscale>  0 0.10943094E+04</rscale>
<asrwt>0</asrwt>
<pdfrwt beam="1">  1        2 0.38533641E-01 0.10943094E+04</pdfrwt>
<pdfrwt beam="2">  1       -1 0.18388805E+00 0.10943094E+04</pdfrwt>
<totfact> 0.29873244E+01</totfact>
</mgrwt>
</event>
<event>
12    6  0.1553355E-007  0.4250307E+04  0.7818608E-02  0.7955871E-01
         -1   -1    0    0    0  501 -0.00000000000E+00  0.00000000000E+00  0.13328142438E+04  0.13328142438E+04  0.00000000000E+00 0.  1.
          2   -1    0    0  501    0  0.00000000000E+00 -0.00000000000E+00 -0.33885278671E+04  0.33885278671E+04  0.00000000000E+00 0. -1.
         24    2    1    2    0    0  0.61770358295E+03 -0.16568406737E+04  0.12570062714E+03  0.17744640618E+04  0.79014710249E+02 0.  0.
        254    2    1    2    0    0 -0.61770358295E+03  0.16568406737E+04 -0.21814142504E+04  0.29468780490E+04  0.89378038086E+03 0.  0.
         23    2    4    4    0    0 -0.53366490785E+03  0.56265166120E+03 -0.46969515438E+03  0.91153979661E+03  0.94425298632E+02 0.  0.
         23    2    4    4    0    0 -0.84038675097E+02  0.10941890125E+04 -0.17117190961E+04  0.20353382524E+04  0.91145180040E+02 0.  0.
          2    1    3    3  502    0  0.58957342105E+02 -0.11177096019E+03  0.21338152729E+02  0.12815628152E+03  0.00000000000E+00 0. -1.
         -1    1    3    3    0  502  0.55874624084E+03 -0.15450697135E+04  0.10436247441E+03  0.16463077803E+04  0.00000000000E+00 0.  1.
         11    1    5    5    0    0 -0.42312648504E+02  0.78497761420E+02 -0.76807213271E+02  0.11769284932E+03  0.00000000000E+00 0.  1.
        -11    1    5    5    0    0 -0.49135225935E+03  0.48415389978E+03 -0.39288794111E+03  0.79384694728E+03  0.00000000000E+00 0. -1.
          3    1    6    6  503    0 -0.73500215682E+02  0.99413411272E+03 -0.15987205068E+04  0.18840414471E+04  0.00000000000E+00 0. -1.
         -3    1    6    6    0  503 -0.10538459415E+02  0.10005489981E+03 -0.11299858931E+03  0.15129680528E+03  0.00000000000E+00 0.  1.
<mgrwt>
<rscale>  0 0.42503074E+04</rscale>
<asrwt>0</asrwt>
<pdfrwt beam="1">  1        2 0.52131197E+00 0.42503074E+04</pdfrwt>
<pdfrwt beam="2">  1       -1 0.20504835E+00 0.42503074E+04</pdfrwt>
<totfact> 0.11819594E-01</totfact>
</mgrwt>
</event>
<event>
12    6  0.1553355E-007  0.1749428E+04  0.7818608E-02  0.8733665E-01
         -1   -1    0    0    0  501 -0.00000000000E+00  0.00000000000E+00  0.41899824829E+03  0.41899824829E+03  0.00000000000E+00 0.  1.
          2   -1    0    0  501    0  0.00000000000E+00 -0.00000000000E+00 -0.18260809420E+04  0.18260809420E+04  0.00000000000E+00 0. -1.
         24    2    1    2    0    0  0.37935158898E+03  0.18625068789E+03 -0.11218309965E+04  0.12010488883E+04  0.73598237736E+02 0.  0.
        254    2    1    2    0    0 -0.37935158898E+03 -0.18625068789E+03 -0.28525169722E+03  0.10440303020E+04  0.91106190454E+03 0.  0.
         23    2    4    4    0    0 -0.64091576873E+03 -0.36764869714E+02 -0.54183200963E+02  0.65066920379E+03  0.91158736489E+02 0.  0.
         23    2    4    4    0    0  0.26156417975E+03 -0.14948581818E+03 -0.23106849625E+03  0.39336109820E+03  0.10285170710E+03 0.  0.
          2    1    3    3  502    0  0.36485469800E+03  0.19066289821E+03 -0.10539133011E+04  0.11314612400E+04  0.00000000000E+00 0. -1.
         -1    1    3    3    0  502  0.14496890973E+02 -0.44122103135E+01 -0.67917695326E+02  0.69587648230E+02  0.00000000000E+00 0.  1.
         11    1    5    5    0    0 -0.12751217229E+03 -0.41775084038E+02 -0.24372700087E+02  0.13637646511E+03  0.00000000000E+00 0. -1.
        -11    1    5    5    0    0 -0.51340359644E+03  0.50102143240E+01 -0.29810500877E+02  0.51429273867E+03  0.00000000000E+00 0.  1.
          2    1    6    6  503    0  0.48764783763E+02 -0.15515808042E+02 -0.93860034452E+02  0.10690393118E+03  0.00000000000E+00 0. -1.
         -2    1    6    6    0  503  0.21279939599E+03 -0.13397001013E+03 -0.13720846180E+03  0.28645716702E+03  0.00000000000E+00 0.  1.
<mgrwt>
<rscale>  0 0.17494282E+04</rscale>
<asrwt>0</asrwt>
<pdfrwt beam="1">  1        2 0.28093552E+00 0.17494282E+04</pdfrwt>
<pdfrwt beam="2">  1       -1 0.64461271E-01 0.17494282E+04</pdfrwt>
<totfact> 0.21987439E+01</totfact>
</mgrwt>
</event>
<event>
12    6  0.1553355E-007  0.1366933E+04  0.7818608E-02  0.8978108E-01
          2   -1    0    0  501    0  0.00000000000E+00  0.00000000000E+00  0.11443019145E+04  0.11443019145E+04  0.00000000000E+00 0. -1.
         -1   -1    0    0    0  501 -0.00000000000E+00 -0.00000000000E+00 -0.40821968614E+03  0.40821968614E+03  0.00000000000E+00 0.  1.
         24    2    1    2    0    0  0.86848345746E+02  0.37636559564E+03  0.20079843091E+03  0.44247900803E+03  0.79208370462E+02 0.  0.
        254    2    1    2    0    0 -0.86848345746E+02 -0.37636559564E+03  0.53528379740E+03  0.11100425926E+04  0.89245286532E+03 0.  0.
         23    2    4    4    0    0  0.15849625899E+03 -0.54647443182E+03  0.55144767973E+03  0.79749665334E+03  0.90282887978E+02 0.  0.
         23    2    4    4    0    0 -0.24534460474E+03  0.17010883619E+03 -0.16163882332E+02  0.31254593923E+03  0.91064272976E+02 0.  0.
          4    1    3    3  502    0  0.34976542187E+02  0.15306007044E+03  0.12606833158E+03  0.20135532746E+03  0.00000000000E+00 0. -1.
         -3    1    3    3    0  502  0.51871803559E+02  0.22330552519E+03  0.74730099331E+02  0.24112368057E+03  0.00000000000E+00 0.  1.
         11    1    5    5    0    0  0.78890504029E+02 -0.25158374694E+03  0.31779349607E+03  0.41292953333E+03  0.00000000000E+00 0. -1.
        -11    1    5    5    0    0  0.79605754964E+02 -0.29489068488E+03  0.23365418366E+03  0.38456712001E+03  0.00000000000E+00 0.  1.
          1    1    6    6  503    0  0.28482227280E+01 -0.19969794962E+01  0.88264589774E+01  0.94871849300E+01  0.00000000000E+00 0.  1.
         -1    1    6    6    0  503 -0.24819282747E+03  0.17210581568E+03 -0.24990341310E+02  0.30305875430E+03  0.00000000000E+00 0. -1.
<mgrwt>
<rscale>  0 0.13669332E+04</rscale>
<asrwt>0</asrwt>
<pdfrwt beam="1">  1        2 0.17604645E+00 0.13669332E+04</pdfrwt>
<pdfrwt beam="2">  1       -1 0.62803029E-01 0.13669332E+04</pdfrwt>
<totfact> 0.58550953E+01</totfact>
</mgrwt>
</event>
<event>
12    6  0.1553355E-007  0.1779561E+04  0.7818608E-02  0.8717245E-01
         -1   -1    0    0    0  501 -0.00000000000E+00  0.00000000000E+00  0.59492286838E+03  0.59492286838E+03  0.00000000000E+00 0.  1.
          2   -1    0    0  501    0  0.00000000000E+00 -0.00000000000E+00 -0.13307766017E+04  0.13307766017E+04  0.00000000000E+00 0. -1.
         24    2    1    2    0    0  0.49194769168E+03 -0.36385188177E+03 -0.53469530195E+03  0.81631512211E+03  0.77913987416E+02 0.  0.
        254    2    1    2    0    0 -0.49194769168E+03  0.36385188177E+03 -0.20115843138E+03  0.11093843480E+04  0.90325422437E+03 0.  0.
         23    2    4    4    0    0 -0.59492506858E+03  0.35748850846E+03  0.16333300498E+03  0.72023140584E+03  0.10159594743E+03 0.  0.
         23    2    4    4    0    0  0.10297737690E+03  0.63633733111E+01 -0.36449143636E+03  0.38915294216E+03  0.89113256796E+02 0.  0.
          2    1    3    3  502    0  0.89709572169E+02 -0.49077873022E+02 -0.57469132528E+02  0.11729938684E+03  0.00000000000E+00 0. -1.
         -1    1    3    3    0  502  0.40223811951E+03 -0.31477400875E+03 -0.47722616942E+03  0.69901573527E+03  0.00000000000E+00 0.  1.
         11    1    5    5    0    0 -0.49996495046E+03  0.34074676482E+03  0.14025992318E+03  0.62108466047E+03  0.00000000000E+00 0. -1.
        -11    1    5    5    0    0 -0.94960118115E+02  0.16741743647E+02  0.23073081800E+02  0.99146745365E+02  0.00000000000E+00 0.  1.
          3    1    6    6  503    0  0.46923699671E+02  0.21316090287E+02 -0.29097085304E+03  0.29549999428E+03  0.00000000000E+00 0. -1.
         -3    1    6    6    0  503  0.56053677228E+02 -0.14952716976E+02 -0.73520583317E+02  0.93652947883E+02  0.00000000000E+00 0.  1.
<mgrwt>
<rscale>  0 0.17795611E+04</rscale>
<asrwt>0</asrwt>
<pdfrwt beam="1">  1        2 0.20473486E+00 0.17795611E+04</pdfrwt>
<pdfrwt beam="2">  1       -1 0.91526596E-01 0.17795611E+04</pdfrwt>
<totfact> 0.19899996E+01</totfact>
</mgrwt>
</event>
<event>
12    6  0.1553355E-007  0.1468104E+04  0.7818608E-02  0.8905945E-01
          2   -1    0    0  501    0  0.00000000000E+00  0.00000000000E+00  0.12468432274E+04  0.12468432274E+04  0.00000000000E+00 0. -1.
         -1   -1    0    0    0  501 -0.00000000000E+00 -0.00000000000E+00 -0.43215715967E+03  0.43215715967E+03  0.00000000000E+00 0.  1.
         24    2    1    2    0    0 -0.27941226118E+03 -0.12905314802E+03  0.63536886995E+03  0.71051473357E+03  0.80072835589E+02 0.  0.
        254    2    1    2    0    0  0.27941226118E+03  0.12905314802E+03  0.17931719772E+03  0.96848565346E+03  0.90060195249E+03 0.  0.
         23    2    4    4    0    0 -0.13216505153E+03  0.40783979107E+03  0.14319281940E+03  0.46103540432E+03  0.90821608031E+02 0.  0.
         23    2    4    4    0    0  0.41157731271E+03 -0.27878664305E+03  0.36124378319E+02  0.50745024914E+03  0.95304291403E+02 0.  0.
          2    1    3    3  502    0 -0.27900755587E+03 -0.13203535544E+03  0.63642137349E+03  0.70732645642E+03  0.00000000000E+00 0. -1.
         -1    1    3    3    0  502 -0.40470531407E+00  0.29822074159E+01 -0.10525035391E+01  0.31882771464E+01  0.00000000000E+00 0.  1.
         11    1    5    5    0    0 -0.37524512243E+02  0.24841858579E+03  0.10177676342E+03  0.27106898082E+03  0.00000000000E+00 0.  1.
        -11    1    5    5    0    0 -0.94640539282E+02  0.15942120527E+03  0.41416055980E+02  0.18996642351E+03  0.00000000000E+00 0. -1.
          1    1    6    6  503    0  0.66801576538E+01 -0.59239453251E+01  0.16544482173E+02  0.18799934172E+02  0.00000000000E+00 0. -1.
         -1    1    6    6    0  503  0.40489715506E+03 -0.27286269772E+03  0.19579896146E+02  0.48865031496E+03  0.00000000000E+00 0.  1.
<mgrwt>
<rscale>  0 0.14681038E+04</rscale>
<asrwt>0</asrwt>
<pdfrwt beam="1">  1        2 0.19182203E+00 0.14681038E+04</pdfrwt>
<pdfrwt beam="2">  1       -1 0.66485717E-01 0.14681038E+04</pdfrwt>
<totfact> 0.44963625E+01</totfact>
</mgrwt>
</event>
<event>
12    6  0.1553355E-007  0.2249960E+04  0.7818608E-02  0.8497917E-01
          2   -1    0    0  501    0  0.00000000000E+00  0.00000000000E+00  0.14845274549E+04  0.14845274549E+04  0.00000000000E+00 0. -1.
         -1   -1    0    0    0  501 -0.00000000000E+00 -0.00000000000E+00 -0.85251376752E+03  0.85251376752E+03  0.00000000000E+00 0.  1.
         24    2    1    2    0    0 -0.61757318734E+03 -0.21303352535E+03  0.96838078382E+03  0.11709197089E+04  0.80695090558E+02 0.  0.
        254    2    1    2    0    0  0.61757318734E+03  0.21303352535E+03 -0.33636709644E+03  0.11661215135E+04  0.90549248258E+03 0.  0.
         23    2    4    4    0    0 -0.10944058046E+03  0.47172993916E+02  0.19534568276E+03  0.24555787067E+03  0.89085352703E+02 0.  0.
         23    2    4    4    0    0  0.72701376780E+03  0.16586053143E+03 -0.53171277920E+03  0.92056364282E+03  0.93060230285E+02 0.  0.
          2    1    3    3  502    0 -0.52443948305E+03 -0.16011852936E+03  0.76737191384E+03  0.94315129697E+03  0.00000000000E+00 0. -1.
         -1    1    3    3    0  502 -0.93133704292E+02 -0.52914995988E+02  0.20100886998E+03  0.22776841196E+03  0.00000000000E+00 0.  1.
         11    1    5    5    0    0  0.12990289441E+01 -0.19158333242E+02  0.18983769873E+02  0.27002087464E+02  0.00000000000E+00 0. -1.
        -11    1    5    5    0    0 -0.11073960940E+03  0.66331327159E+02  0.17636191289E+03  0.21855578320E+03  0.00000000000E+00 0.  1.
          1    1    6    6  503    0  0.15727013876E+03 -0.13777564368E+00 -0.12872001105E+03  0.20323079681E+03  0.00000000000E+00 0. -1.
         -1    1    6    6    0  503  0.56974362904E+03  0.16599830707E+03 -0.40299276816E+03  0.71733284601E+03  0.00000000000E+00 0.  1.
<mgrwt>
<rscale>  0 0.22499601E+04</rscale>
<asrwt>0</asrwt>
<pdfrwt beam="1">  1        2 0.22838884E+00 0.22499601E+04</pdfrwt>
<pdfrwt beam="2">  1       -1 0.13115596E+00 0.22499601E+04</pdfrwt>
<totfact> 0.66612176E+00</totfact>
</mgrwt>
</event>
<event>
12    6  0.1553355E-007  0.1301326E+04  0.7818608E-02  0.9028514E-01
          2   -1    0    0  501    0  0.00000000000E+00  0.00000000000E+00  0.12228125524E+04  0.12228125524E+04  0.00000000000E+00 0. -1.
         -1   -1    0    0    0  501 -0.00000000000E+00 -0.00000000000E+00 -0.34622030387E+03  0.34622030387E+03  0.00000000000E+00 0.  1.
         24    2    1    2    0    0  0.28571810678E+03 -0.17681909637E+00  0.43214099800E+03  0.52809754973E+03  0.10250030278E+03 0.  0.
        254    2    1    2    0    0 -0.28571810678E+03  0.17681909637E+00  0.44445125058E+03  0.10409353066E+04  0.89686929403E+03 0.  0.
         23    2    4    4    0    0  0.22158445033E+03  0.21479439459E+03  0.35019581326E+03  0.47481979698E+03  0.87065672931E+02 0.  0.
         23    2    4    4    0    0 -0.50730255711E+03 -0.21461757549E+03  0.94255437314E+02  0.56611550961E+03  0.90477039042E+02 0.  0.
          2    1    3    3  502    0  0.19108518943E+03  0.10007108137E+01  0.36521267749E+03  0.41218303075E+03  0.00000000000E+00 0. -1.
         -3    1    3    3    0  502  0.94632917351E+02 -0.11775299101E+01  0.66928320506E+02  0.11591451897E+03  0.00000000000E+00 0.  1.
         11    1    5    5    0    0  0.22022764747E+03  0.18056377405E+03  0.32603212820E+03  0.43289772675E+03  0.00000000000E+00 0. -1.
        -11    1    5    5    0    0  0.13568028655E+01  0.34230620540E+02  0.24163685061E+02  0.41922070230E+02  0.00000000000E+00 0.  1.
          2    1    6    6  503    0 -0.34555221971E+03 -0.18934359438E+03  0.77176474938E+02  0.40151406147E+03  0.00000000000E+00 0. -1.
         -2    1    6    6    0  503 -0.16175033741E+03 -0.25273981109E+02  0.17078962376E+02  0.16460144814E+03  0.00000000000E+00 0.  1.
<mgrwt>
<rscale>  0 0.13013263E+04</rscale>
<asrwt>0</asrwt>
<pdfrwt beam="1">  1        2 0.18812501E+00 0.13013263E+04</pdfrwt>
<pdfrwt beam="2">  1       -1 0.53264663E-01 0.13013263E+04</pdfrwt>
<totfact> 0.72905812E+01</totfact>
</mgrwt>
</event>
<event>
12    6  0.1553355E-007  0.1474546E+04  0.7818608E-02  0.8901558E-01
          2   -1    0    0  501    0  0.00000000000E+00  0.00000000000E+00  0.45558394750E+03  0.45558394750E+03  0.00000000000E+00 0. -1.
         -1   -1    0    0    0  501 -0.00000000000E+00 -0.00000000000E+00 -0.11931310563E+04  0.11931310563E+04  0.00000000000E+00 0.  1.
         24    2    1    2    0    0  0.25728283445E+03  0.46822869205E+02 -0.64959594371E+03  0.70472202545E+03  0.79192203399E+02 0.  0.
        254    2    1    2    0    0 -0.25728283445E+03 -0.46822869205E+02 -0.87951165072E+02  0.94399297834E+03  0.90277377993E+03 0.  0.
         23    2    4    4    0    0 -0.14303764275E+03  0.13202622162E+03 -0.45941791667E+03  0.50715360563E+03  0.90825476057E+02 0.  0.
         23    2    4    4    0    0 -0.11424519171E+03 -0.17884909082E+03  0.37146675160E+03  0.43683937271E+03  0.88329660298E+02 0.  0.
          2    1    3    3  502    0  0.13873183246E+03  0.35330558838E+02 -0.45069835687E+03  0.47288875924E+03  0.00000000000E+00 0. -1.
         -1    1    3    3    0  502  0.11855100199E+03  0.11492310367E+02 -0.19889758684E+03  0.23183326621E+03  0.00000000000E+00 0.  1.
         11    1    5    5    0    0 -0.95768401667E+02  0.28246796347E+02 -0.23795881247E+03  0.25805787083E+03  0.00000000000E+00 0. -1.
        -11    1    5    5    0    0 -0.47269241079E+02  0.10377942527E+03 -0.22145910420E+03  0.24909573480E+03  0.00000000000E+00 0.  1.
          1    1    6    6  503    0 -0.12115926070E+03 -0.18100018244E+03  0.33444841003E+03  0.39911949523E+03  0.00000000000E+00 0. -1.
         -1    1    6    6    0  503  0.69140689881E+01  0.21510916137E+01  0.37018341569E+02  0.37719877487E+02  0.00000000000E+00 0.  1.
<mgrwt>
<rscale>  0 0.14745458E+04</rscale>
<asrwt>0</asrwt>
<pdfrwt beam="1">  1        2 0.70089839E-01 0.14745458E+04</pdfrwt>
<pdfrwt beam="2">  1       -1 0.18355862E+00 0.14745458E+04</pdfrwt>
<totfact> 0.14896132E+01</totfact>
</mgrwt>
</event>
<event>
12    6  0.1553355E-007  0.1424566E+04  0.7818608E-02  0.8936226E-01
         -1   -1    0    0    0  501 -0.00000000000E+00  0.00000000000E+00  0.40681794601E+03  0.40681794601E+03  0.00000000000E+00 0.  1.
          2   -1    0    0  501    0  0.00000000000E+00 -0.00000000000E+00 -0.12471115734E+04  0.12471115734E+04  0.00000000000E+00 0. -1.
         24    2    1    2    0    0  0.28567508742E+03  0.22485373741E+02  0.10722197631E+03  0.31611988344E+03  0.79494533765E+02 0.  0.
        254    2    1    2    0    0 -0.28567508742E+03 -0.22485373741E+02 -0.94751560373E+03  0.13378096360E+04  0.89990719258E+03 0.  0.
         23    2    4    4    0    0 -0.11087662080E+02  0.39246442306E+03 -0.24760451319E+03  0.47336037931E+03  0.92794364727E+02 0.  0.
         23    2    4    4    0    0 -0.27458742534E+03 -0.41494979680E+03 -0.69991109054E+03  0.86444925669E+03  0.99072673883E+02 0.  0.
          2    1    3    3  502    0  0.29617960972E+02 -0.84644219136E+01 -0.10580179655E+02  0.32570082162E+02  0.00000000000E+00 0. -1.
         -1    1    3    3    0  502  0.25605712645E+03  0.30949795655E+02  0.11780215597E+03  0.28354980128E+03  0.00000000000E+00 0.  1.
         11    1    5    5    0    0 -0.13350733947E+02  0.38628838712E+03 -0.21950035005E+03  0.44449675341E+03  0.00000000000E+00 0. -1.
        -11    1    5    5    0    0  0.22630718679E+01  0.61760359447E+01 -0.28104163136E+02  0.28863625895E+02  0.00000000000E+00 0.  1.
          3    1    6    6  503    0 -0.18275652872E+03 -0.19060428687E+03 -0.39008948308E+03  0.47106236081E+03  0.00000000000E+00 0. -1.
         -3    1    6    6    0  503 -0.91830896622E+02 -0.22434550993E+03 -0.30982160746E+03  0.39338689588E+03  0.00000000000E+00 0.  1.
<mgrwt>
<rscale>  0 0.14245664E+04</rscale>
<asrwt>0</asrwt>
<pdfrwt beam="1">  1        2 0.19186332E+00 0.14245664E+04</pdfrwt>
<pdfrwt beam="2">  1       -1 0.62587377E-01 0.14245664E+04</pdfrwt>
<totfact> 0.50930368E+01</totfact>
</mgrwt>
</event>
<event>
12    6  0.1553355E-007  0.2283602E+04  0.7818608E-02  0.8484415E-01
         -1   -1    0    0    0  501 -0.00000000000E+00  0.00000000000E+00  0.60111030027E+03  0.60111030027E+03  0.00000000000E+00 0.  1.
          2   -1    0    0  501    0  0.00000000000E+00 -0.00000000000E+00 -0.21688348390E+04  0.21688348390E+04  0.00000000000E+00 0. -1.
         24    2    1    2    0    0 -0.57505298442E+03  0.43143893412E+03 -0.14706181058E+04  0.16388451480E+04  0.79185334054E+02 0.  0.
        254    2    1    2    0    0  0.57505298442E+03 -0.43143893412E+03 -0.97106432971E+02  0.11310999914E+04  0.86783180533E+03 0.  0.
         23    2    4    4    0    0  0.96731469000E+02  0.25224693764E+03  0.64385375790E+01  0.28556198119E+03  0.92296780499E+02 0.  0.
         23    2    4    4    0    0  0.47832151542E+03 -0.68368587176E+03 -0.10354497055E+03  0.84553801017E+03  0.89415448073E+02 0.  0.
          2    1    3    3  502    0 -0.56820785349E+03  0.41328466492E+03 -0.14444501122E+04  0.16062691261E+04  0.00000000000E+00 0. -1.
         -1    1    3    3    0  502 -0.68451309326E+01  0.18154269202E+02 -0.26167993652E+02  0.32576021849E+02  0.00000000000E+00 0.  1.
         11    1    5    5    0    0 -0.14495223809E+02  0.92568452727E+01  0.63251024038E+01  0.18325054382E+02  0.00000000000E+00 0. -1.
        -11    1    5    5    0    0  0.11122669281E+03  0.24299009236E+03  0.11343517515E+00  0.26723692680E+03  0.00000000000E+00 0.  1.
          1    1    6    6  503    0  0.28562682326E+01 -0.26717948537E+02 -0.11960580039E+02  0.29411945143E+02  0.00000000000E+00 0. -1.
         -1    1    6    6    0  503  0.47546524719E+03 -0.65696792322E+03 -0.91584390512E+02  0.81612606502E+03  0.00000000000E+00 0.  1.
<mgrwt>
<rscale>  0 0.22836015E+04</rscale>
<asrwt>0</asrwt>
<pdfrwt beam="1">  1        2 0.33366690E+00 0.22836015E+04</pdfrwt>
<pdfrwt beam="2">  1       -1 0.92478506E-01 0.22836015E+04</pdfrwt>
<totfact> 0.63158650E+00</totfact>
</mgrwt>
</event>
<event>
12    6  0.1553355E-007  0.2005960E+04  0.7818608E-02  0.8603839E-01
          2   -1    0    0  501    0  0.00000000000E+00  0.00000000000E+00  0.80822669125E+03  0.80822669125E+03  0.00000000000E+00 0. -1.
         -1   -1    0    0    0  501 -0.00000000000E+00 -0.00000000000E+00 -0.12446621539E+04  0.12446621539E+04  0.00000000000E+00 0.  1.
         24    2    1    2    0    0  0.40352891140E+03  0.55178883166E+03 -0.59190751792E+03  0.90779613725E+03  0.80204862363E+02 0.  0.
        254    2    1    2    0    0 -0.40352891140E+03 -0.55178883166E+03  0.15547205523E+03  0.11450927079E+04  0.90540557361E+03 0.  0.
         23    2    4    4    0    0 -0.17432357672E+03 -0.75740641312E+03 -0.13294562115E+02  0.78246657129E+03  0.89576814918E+02 0.  0.
         23    2    4    4    0    0 -0.22920533467E+03  0.20561758146E+03  0.16876661735E+03  0.36262613664E+03  0.90564168405E+02 0.  0.
          2    1    3    3  502    0  0.22440638431E+02  0.54455502441E+02 -0.76154117001E+02  0.96272704000E+02  0.00000000000E+00 0. -1.
         -1    1    3    3    0  502  0.38108827297E+03  0.49733332922E+03 -0.51575340092E+03  0.81152343325E+03  0.00000000000E+00 0.  1.
         11    1    5    5    0    0 -0.15784998392E+03 -0.69843795293E+03 -0.36518149780E+02  0.71698379813E+03  0.00000000000E+00 0. -1.
        -11    1    5    5    0    0 -0.16473592806E+02 -0.58968460190E+02  0.23223587665E+02  0.65482773163E+02  0.00000000000E+00 0.  1.
          2    1    6    6  503    0 -0.19702885659E+03  0.18405651069E+03  0.17764992903E+03  0.32288800960E+03  0.00000000000E+00 0. -1.
         -2    1    6    6    0  503 -0.32176478080E+02  0.21561070768E+02 -0.88833116883E+01  0.39738127043E+02  0.00000000000E+00 0.  1.
<mgrwt>
<rscale>  0 0.20059603E+04</rscale>
<asrwt>0</asrwt>
<pdfrwt beam="1">  1        2 0.12434257E+00 0.20059603E+04</pdfrwt>
<pdfrwt beam="2">  1       -1 0.19148648E+00 0.20059603E+04</pdfrwt>
<totfact> 0.62112694E+00</totfact>
</mgrwt>
</event>
<event>
12    6  0.1553355E-007  0.2031956E+04  0.7818608E-02  0.8591824E-01
          2   -1    0    0  501    0  0.00000000000E+00  0.00000000000E+00  0.86560330325E+03  0.86560330325E+03  0.00000000000E+00 0. -1.
         -1   -1    0    0    0  501 -0.00000000000E+00 -0.00000000000E+00 -0.11924756319E+04  0.11924756319E+04  0.00000000000E+00 0.  1.
         24    2    1    2    0    0  0.13667559934E+03 -0.74838851853E+03 -0.43561233492E+03  0.88027854520E+03  0.79791081430E+02 0.  0.
        254    2    1    2    0    0 -0.13667559934E+03  0.74838851853E+03  0.10874000630E+03  0.11778003899E+04  0.89253782857E+03 0.  0.
         23    2    4    4    0    0 -0.37327128016E+03  0.75711203885E+03  0.25178395204E+03  0.88617510801E+03  0.96752651520E+02 0.  0.
         23    2    4    4    0    0  0.23659568082E+03 -0.87235203215E+01 -0.14304394574E+03  0.29162528192E+03  0.92358641459E+02 0.  0.
          4    1    3    3  502    0  0.77361853670E+02 -0.38610649376E+03 -0.18013790860E+03  0.43302742066E+03  0.00000000000E+00 0. -1.
         -1    1    3    3    0  502  0.59313745669E+02 -0.36228202477E+03 -0.25547442632E+03  0.44725112454E+03  0.00000000000E+00 0.  1.
         11    1    5    5    0    0 -0.26141567439E+03  0.50237624994E+03  0.21401496203E+03  0.60541098048E+03  0.00000000000E+00 0. -1.
        -11    1    5    5    0    0 -0.11185560578E+03  0.25473578892E+03  0.37768990008E+02  0.28076412752E+03  0.00000000000E+00 0.  1.
          2    1    6    6  503    0  0.29218942906E+00  0.15783903614E+02 -0.14852966258E+02  0.21675506791E+02  0.00000000000E+00 0.  1.
         -2    1    6    6    0  503  0.23630349139E+03 -0.24507423936E+02 -0.12819097949E+03  0.26994977513E+03  0.00000000000E+00 0. -1.
<mgrwt>
<rscale>  0 0.20319556E+04</rscale>
<asrwt>0</asrwt>
<pdfrwt beam="1">  1        2 0.13316974E+00 0.20319556E+04</pdfrwt>
<pdfrwt beam="2">  1       -1 0.18345779E+00 0.20319556E+04</pdfrwt>
<totfact> 0.64338417E+00</totfact>
</mgrwt>
</event>
<event>
12    6  0.1553355E-007  0.1398698E+04  0.7818608E-02  0.8954762E-01
          2   -1    0    0  501    0  0.00000000000E+00  0.00000000000E+00  0.14928800095E+04  0.14928800095E+04  0.00000000000E+00 0. -1.
         -1   -1    0    0    0  501 -0.00000000000E+00 -0.00000000000E+00 -0.32761440508E+03  0.32761440508E+03  0.00000000000E+00 0.  1.
         24    2    1    2    0    0  0.43595107483E+02 -0.97987857669E+02  0.85158900397E+03  0.86201629039E+03  0.79787840903E+02 0.  0.
        254    2    1    2    0    0 -0.43595107483E+02  0.97987857669E+02  0.31367660043E+03  0.95847812418E+03  0.89932483076E+03 0.  0.
         23    2    4    4    0    0  0.17485175674E+03 -0.32073941421E+03 -0.13903085659E+02  0.37636123055E+03  0.89485034550E+02 0.  0.
         23    2    4    4    0    0 -0.21844686423E+03  0.41872727188E+03  0.32757968609E+03  0.58211689363E+03  0.92195804708E+02 0.  0.
          2    1    3    3  502    0  0.31249071520E+02 -0.70153692152E+02  0.30294404995E+03  0.31252702666E+03  0.00000000000E+00 0. -1.
         -3    1    3    3    0  502  0.12346035963E+02 -0.27834165516E+02  0.54864495402E+03  0.54948926373E+03  0.00000000000E+00 0.  1.
         11    1    5    5    0    0  0.73184421622E+02 -0.20501372088E+03 -0.36332132723E+02  0.22069573894E+03  0.00000000000E+00 0. -1.
        -11    1    5    5    0    0  0.10166733512E+03 -0.11572569333E+03  0.22429047064E+02  0.15566549161E+03  0.00000000000E+00 0.  1.
          2    1    6    6  503    0 -0.46316300405E+02  0.16989878942E+03  0.14976422972E+03  0.23117119810E+03  0.00000000000E+00 0. -1.
         -2    1    6    6    0  503 -0.17213056382E+03  0.24882848245E+03  0.17781545637E+03  0.35094569552E+03  0.00000000000E+00 0.  1.
<mgrwt>
<rscale>  0 0.13986980E+04</rscale>
<asrwt>0</asrwt>
<pdfrwt beam="1">  1        2 0.22967384E+00 0.13986980E+04</pdfrwt>
<pdfrwt beam="2">  1       -1 0.50402217E-01 0.13986980E+04</pdfrwt>
<totfact> 0.56168123E+01</totfact>
</mgrwt>
</event>
<event>
12    6  0.1553355E-007  0.1667506E+04  0.7818608E-02  0.8780117E-01
          2   -1    0    0  501    0  0.00000000000E+00  0.00000000000E+00  0.62244540404E+03  0.62244540404E+03  0.00000000000E+00 0. -1.
         -1   -1    0    0    0  501 -0.00000000000E+00 -0.00000000000E+00 -0.11167952127E+04  0.11167952127E+04  0.00000000000E+00 0.  1.
         24    2    1    2    0    0 -0.35226297279E+03 -0.26314676620E+03 -0.59413323242E+03  0.74171756295E+03  0.61767489460E+02 0.  0.
        254    2    1    2    0    0  0.35226297279E+03  0.26314676620E+03  0.99783423777E+02  0.99752305378E+03  0.88980901805E+03 0.  0.
         23    2    4    4    0    0  0.84867634034E+02 -0.29550429603E+03  0.17766001851E+03  0.36654142640E+03  0.90907814892E+02 0.  0.
         23    2    4    4    0    0  0.26739533875E+03  0.55865106224E+03 -0.77876594737E+02  0.63098162738E+03  0.92096544767E+02 0.  0.
          4    1    3    3  502    0 -0.42265120264E+02 -0.58531781347E+02 -0.85663760542E+02  0.11202941439E+03  0.00000000000E+00 0. -1.
         -3    1    3    3    0  502 -0.30999785252E+03 -0.20461498486E+03 -0.50846947188E+03  0.62968814856E+03  0.00000000000E+00 0.  1.
         11    1    5    5    0    0  0.53103268805E+02 -0.16212972188E+03  0.14891731836E+03  0.22645611404E+03  0.00000000000E+00 0. -1.
        -11    1    5    5    0    0  0.31764365229E+02 -0.13337457415E+03  0.28742700150E+02  0.14008531236E+03  0.00000000000E+00 0.  1.
          1    1    6    6  503    0  0.23908731532E+03  0.54287446430E+03 -0.79709363990E+02  0.59852235634E+03  0.00000000000E+00 0. -1.
         -1    1    6    6    0  503  0.28308023432E+02  0.15776597940E+02  0.18327692535E+01  0.32459271038E+02  0.00000000000E+00 0.  1.
<mgrwt>
<rscale>  0 0.16675060E+04</rscale>
<asrwt>0</asrwt>
<pdfrwt beam="1">  1        2 0.95760831E-01 0.16675060E+04</pdfrwt>
<pdfrwt beam="2">  1       -1 0.17181465E+00 0.16675060E+04</pdfrwt>
<totfact> 0.12332289E+01</totfact>
</mgrwt>
</event>
<event>
12    6  0.1553355E-007  0.1155909E+04  0.7818608E-02  0.9152349E-01
          2   -1    0    0  501    0  0.00000000000E+00  0.00000000000E+00  0.30434654056E+03  0.30434654056E+03  0.00000000000E+00 0. -1.
         -1   -1    0    0    0  501 -0.00000000000E+00 -0.00000000000E+00 -0.10975364057E+04  0.10975364057E+04  0.00000000000E+00 0.  1.
         24    2    1    2    0    0  0.21030250581E+03 -0.20376299674E+02 -0.17251814420E+03  0.28215714012E+03  0.72165116973E+02 0.  0.
        254    2    1    2    0    0 -0.21030250581E+03  0.20376299674E+02 -0.62067172090E+03  0.11197258061E+04  0.90769496979E+03 0.  0.
         23    2    4    4    0    0  0.13529312202E+03 -0.31268309922E+03 -0.32271624853E+02  0.35482367991E+03  0.93719990676E+02 0.  0.
         23    2    4    4    0    0 -0.34559562783E+03  0.33305939889E+03 -0.58840009605E+03  0.76490212618E+03  0.92172058938E+02 0.  0.
          4    1    3    3  502    0  0.15567628033E+02 -0.23645528029E+02 -0.25978275364E+02  0.38423076780E+02  0.00000000000E+00 0. -1.
         -3    1    3    3    0  502  0.19473487778E+03  0.32692283551E+01 -0.14653986883E+03  0.24373406334E+03  0.00000000000E+00 0.  1.
         11    1    5    5    0    0  0.33105235711E+01  0.54127951471E+01  0.54629388896E+01  0.83726709555E+01  0.00000000000E+00 0. -1.
        -11    1    5    5    0    0  0.13198259845E+03 -0.31809589437E+03 -0.37734563742E+02  0.34645100896E+03  0.00000000000E+00 0.  1.
          4    1    6    6  503    0 -0.60251453489E+02  0.18262358520E+02 -0.92337562104E+02  0.11175856460E+03  0.00000000000E+00 0. -1.
         -4    1    6    6    0  503 -0.28534417434E+03  0.31479704037E+03 -0.49606253394E+03  0.65314356158E+03  0.00000000000E+00 0.  1.
<mgrwt>
<rscale>  0 0.11559090E+04</rscale>
<asrwt>0</asrwt>
<pdfrwt beam="1">  1        2 0.46822545E-01 0.11559090E+04</pdfrwt>
<pdfrwt beam="2">  1       -1 0.16885175E+00 0.11559090E+04</pdfrwt>
<totfact> 0.30737182E+01</totfact>
</mgrwt>
</event>
<event>
12    6  0.1553355E-007  0.1258498E+04  0.7818608E-02  0.9063140E-01
         -1   -1    0    0    0  501 -0.00000000000E+00  0.00000000000E+00  0.23898783997E+03  0.23898783997E+03  0.00000000000E+00 0.  1.
          2   -1    0    0  501    0  0.00000000000E+00 -0.00000000000E+00 -0.16567973059E+04  0.16567973059E+04  0.00000000000E+00 0. -1.
         24    2    1    2    0    0  0.37942998460E+01  0.30195576918E+03 -0.41306902316E+03  0.52136298857E+03  0.10000832316E+03 0.  0.
        254    2    1    2    0    0 -0.37942998460E+01 -0.30195576918E+03 -0.10047404428E+04  0.13744221573E+04  0.88788581806E+03 0.  0.
         23    2    4    4    0    0  0.34150491615E+03 -0.95723993053E+02 -0.86408861045E+03  0.93839811935E+03  0.90295144313E+02 0.  0.
         23    2    4    4    0    0 -0.34529921599E+03 -0.20623177613E+03 -0.14065183237E+03  0.43602403800E+03  0.92579315787E+02 0.  0.
          4    1    3    3  502    0 -0.17383625524E+02  0.13543177722E+03 -0.26238689197E+03  0.29578850180E+03  0.00000000000E+00 0. -1.
         -3    1    3    3    0  502  0.21177925370E+02  0.16652399197E+03 -0.15068213119E+03  0.22557448677E+03  0.00000000000E+00 0.  1.
         11    1    5    5    0    0  0.24872000554E+03 -0.10265555774E+03 -0.57802625694E+03  0.63758462842E+03  0.00000000000E+00 0.  1.
        -11    1    5    5    0    0  0.92784910609E+02  0.69315646909E+01 -0.28606235351E+03  0.30081349092E+03  0.00000000000E+00 0. -1.
          1    1    6    6  503    0 -0.69284855677E+02 -0.22632476132E+01 -0.28658243422E+02  0.75012055244E+02  0.00000000000E+00 0. -1.
         -1    1    6    6    0  503 -0.27601436032E+03 -0.20396852852E+03 -0.11199358895E+03  0.36101198276E+03  0.00000000000E+00 0.  1.
<mgrwt>
<rscale>  0 0.12584982E+04</rscale>
<asrwt>0</asrwt>
<pdfrwt beam="1">  1        2 0.25489190E+00 0.12584982E+04</pdfrwt>
<pdfrwt beam="2">  1       -1 0.36767360E-01 0.12584982E+04</pdfrwt>
<totfact> 0.82411237E+01</totfact>
</mgrwt>
</event>
<event>
12    6  0.1553355E-007  0.2534188E+04  0.7818608E-02  0.8390906E-01
         -1   -1    0    0    0  501 -0.00000000000E+00  0.00000000000E+00  0.13543703179E+04  0.13543703179E+04  0.00000000000E+00 0.  1.
          2   -1    0    0  501    0  0.00000000000E+00 -0.00000000000E+00 -0.11854415694E+04  0.11854415694E+04  0.00000000000E+00 0. -1.
         24    2    1    2    0    0 -0.63288391620E+03  0.65626655941E+03 -0.54829931718E+03  0.10668272217E+04  0.79122256282E+02 0.  0.
        254    2    1    2    0    0  0.63288391620E+03 -0.65626655941E+03  0.71722806565E+03  0.14729846656E+04  0.90776642294E+03 0.  0.
         23    2    4    4    0    0  0.87025316590E+02  0.43734154954E+02  0.54927340476E+03  0.56501164130E+03  0.89726248074E+02 0.  0.
         23    2    4    4    0    0  0.54585859961E+03 -0.70000071436E+03  0.16795466089E+03  0.90797302432E+03  0.90794459623E+02 0.  0.
          2    1    3    3  502    0 -0.56793024413E+03  0.55341091839E+03 -0.46291027376E+03  0.91820168173E+03  0.00000000000E+00 0. -1.
         -1    1    3    3    0  502 -0.64953672070E+02  0.10285564102E+03 -0.85389043415E+02  0.14862554000E+03  0.00000000000E+00 0.  1.
         11    1    5    5    0    0 -0.60642338457E+01 -0.19945259130E+01  0.21326769383E+03  0.21336321683E+03  0.00000000000E+00 0.  1.
        -11    1    5    5    0    0  0.93089550436E+02  0.45728680867E+02  0.33600571093E+03  0.35164842447E+03  0.00000000000E+00 0. -1.
          1    1    6    6  503    0  0.18464466195E+03 -0.30670024443E+03  0.79089012167E+02  0.36662482590E+03  0.00000000000E+00 0. -1.
         -1    1    6    6    0  503  0.36121393766E+03 -0.39330046993E+03  0.88865648722E+02  0.54134819842E+03  0.00000000000E+00 0.  1.
<mgrwt>
<rscale>  0 0.25341877E+04</rscale>
<asrwt>0</asrwt>
<pdfrwt beam="1">  1        2 0.18237563E+00 0.25341877E+04</pdfrwt>
<pdfrwt beam="2">  1       -1 0.20836466E+00 0.25341877E+04</pdfrwt>
<totfact> 0.25835612E+00</totfact>
</mgrwt>
</event>
<event>
12    6  0.1553355E-007  0.1122519E+04  0.7818608E-02  0.9183517E-01
         -1   -1    0    0    0  501 -0.00000000000E+00  0.00000000000E+00  0.24911834271E+03  0.24911834271E+03  0.00000000000E+00 0.  1.
          2   -1    0    0  501    0  0.00000000000E+00 -0.00000000000E+00 -0.12645082326E+04  0.12645082326E+04  0.00000000000E+00 0. -1.
         24    2    1    2    0    0  0.14197139553E+03  0.13063175297E+03 -0.14919534614E+03  0.25654971219E+03  0.79611377842E+02 0.  0.
        254    2    1    2    0    0 -0.14197139553E+03 -0.13063175297E+03 -0.86619454375E+03  0.12570768631E+04  0.89035314351E+03 0.  0.
         23    2    4    4    0    0  0.30178049561E+03  0.14516652669E+02 -0.67405685106E+03  0.74403742951E+03  0.89201218152E+02 0.  0.
         23    2    4    4    0    0 -0.44375189114E+03 -0.14514840564E+03 -0.19213769269E+03  0.51303943361E+03  0.91152437963E+02 0.  0.
          4    1    3    3  502    0  0.37094362001E+02 -0.96308472400E+00 -0.10722152603E+02  0.38624911403E+02  0.00000000000E+00 0. -1.
         -3    1    3    3    0  502  0.10487703353E+03  0.13159483769E+03 -0.13847319354E+03  0.21792480078E+03  0.00000000000E+00 0.  1.
         11    1    5    5    0    0  0.12087264077E+03 -0.36457631293E+02 -0.29747716900E+03  0.32315943471E+03  0.00000000000E+00 0.  1.
        -11    1    5    5    0    0  0.18090785484E+03  0.50974283962E+02 -0.37657968206E+03  0.42087799480E+03  0.00000000000E+00 0. -1.
          4    1    6    6  503    0 -0.38198513473E+03 -0.15553259152E+03 -0.17558410713E+03  0.44825529428E+03  0.00000000000E+00 0. -1.
         -4    1    6    6    0  503 -0.61766756408E+02  0.10384185888E+02 -0.16553585562E+02  0.64784139330E+02  0.00000000000E+00 0.  1.
<mgrwt>
<rscale>  0 0.11225189E+04</rscale>
<asrwt>0</asrwt>
<pdfrwt beam="1">  1        2 0.19453973E+00 0.11225189E+04</pdfrwt>
<pdfrwt beam="2">  1       -1 0.38325898E-01 0.11225189E+04</pdfrwt>
<totfact> 0.12896746E+02</totfact>
</mgrwt>
</event>
<event>
12    6  0.1553355E-007  0.1677266E+04  0.7818608E-02  0.8774437E-01
          2   -1    0    0  501    0  0.00000000000E+00  0.00000000000E+00  0.17626751307E+04  0.17626751307E+04  0.00000000000E+00 0. -1.
         -1   -1    0    0    0  501 -0.00000000000E+00 -0.00000000000E+00 -0.39899905802E+03  0.39899905802E+03  0.00000000000E+00 0.  1.
         24    2    1    2    0    0 -0.52593780340E+03  0.55089226456E+02  0.83227267423E+03  0.98918299179E+03  0.78484336424E+02 0.  0.
        254    2    1    2    0    0  0.52593780340E+03 -0.55089226456E+02  0.53140339849E+03  0.11724911970E+04  0.90149910657E+03 0.  0.
         23    2    4    4    0    0  0.15228020306E+03  0.16433622249E+03 -0.20151621002E+03  0.31609063930E+03  0.95440322116E+02 0.  0.
         23    2    4    4    0    0  0.37365760034E+03 -0.21942544895E+03  0.73291960851E+03  0.85640055768E+03  0.92104466304E+02 0.  0.
          2    1    3    3  502    0 -0.38435011529E+03  0.24554208556E+02  0.54353008061E+03  0.66614778301E+03  0.00000000000E+00 0. -1.
         -1    1    3    3    0  502 -0.14158768811E+03  0.30535017900E+02  0.28874259362E+03  0.32303520878E+03  0.00000000000E+00 0.  1.
         11    1    5    5    0    0 -0.74209355394E+01  0.11300394656E+02 -0.39957416740E+02  0.42182512445E+02  0.00000000000E+00 0. -1.
        -11    1    5    5    0    0  0.15970113860E+03  0.15303582784E+03 -0.16155879328E+03  0.27390812686E+03  0.00000000000E+00 0.  1.
          3    1    6    6  503    0  0.12449641529E+03 -0.10476853910E+03  0.34346412812E+03  0.38005711612E+03  0.00000000000E+00 0. -1.
         -3    1    6    6    0  503  0.24916118505E+03 -0.11465690984E+03  0.38945548039E+03  0.47634344156E+03  0.00000000000E+00 0.  1.
<mgrwt>
<rscale>  0 0.16772665E+04</rscale>
<asrwt>0</asrwt>
<pdfrwt beam="1">  1        2 0.27118078E+00 0.16772665E+04</pdfrwt>
<pdfrwt beam="2">  1       -1 0.61384471E-01 0.16772665E+04</pdfrwt>
<totfact> 0.26451851E+01</totfact>
</mgrwt>
</event>
<event>
12    6  0.1553355E-007  0.1208785E+04  0.7818608E-02  0.9105202E-01
         -3   -1    0    0    0  501 -0.00000000000E+00  0.00000000000E+00  0.78530224336E+03  0.78530224336E+03  0.00000000000E+00 0.  1.
          4   -1    0    0  501    0  0.00000000000E+00 -0.00000000000E+00 -0.46515855346E+03  0.46515855346E+03  0.00000000000E+00 0. -1.
         24    2    1    2    0    0  0.20680848021E+03 -0.74759833636E+02 -0.80028339484E+02  0.24785025526E+03  0.81648231446E+02 0.  0.
        254    2    1    2    0    0 -0.20680848021E+03  0.74759833636E+02  0.40017202938E+03  0.10026105416E+04  0.89259815412E+03 0.  0.
         23    2    4    4    0    0  0.48195951797E+01 -0.29626532836E+03  0.46729615003E+03  0.56107653656E+03  0.92977495988E+02 0.  0.
         23    2    4    4    0    0 -0.21162807539E+03  0.37102516199E+03 -0.67124120650E+02  0.44153400500E+03  0.89445608452E+02 0.  0.
          2    1    3    3  502    0  0.13290788609E+03 -0.87683868445E+02 -0.48260102961E+02  0.16637909877E+03  0.00000000000E+00 0. -1.
         -1    1    3    3    0  502  0.73900594125E+02  0.12924034810E+02 -0.31768236523E+02  0.81471156489E+02  0.00000000000E+00 0.  1.
         11    1    5    5    0    0  0.14186708012E+02 -0.22391169234E+01  0.38319329131E+02  0.40922454886E+02  0.00000000000E+00 0. -1.
        -11    1    5    5    0    0 -0.93671128327E+01 -0.29402621143E+03  0.42897682090E+03  0.52015408167E+03  0.00000000000E+00 0.  1.
          4    1    6    6  503    0 -0.12738181816E+03  0.16100677945E+03  0.69469988213E+00  0.20530414811E+03  0.00000000000E+00 0. -1.
         -4    1    6    6    0  503 -0.84246257235E+02  0.21001838255E+03 -0.67818820533E+02  0.23622985689E+03  0.00000000000E+00 0.  1.
<mgrwt>
<rscale>  0 0.12087846E+04</rscale>
<asrwt>0</asrwt>
<pdfrwt beam="1">  1        4 0.71562854E-01 0.12087846E+04</pdfrwt>
<pdfrwt beam="2">  1       -3 0.12081573E+00 0.12087846E+04</pdfrwt>
<totfact> 0.22353214E+00</totfact>
</mgrwt>
</event>
<event>
12    6  0.1912811E-007  0.1514476E+04  0.7818608E-02  0.8874883E-01
          4   -1    0    0  501    0  0.00000000000E+00  0.00000000000E+00  0.13431546211E+04  0.13431546211E+04  0.00000000000E+00 0. -1.
         -3   -1    0    0    0  501 -0.00000000000E+00 -0.00000000000E+00 -0.42691261558E+03  0.42691261558E+03  0.00000000000E+00 0.  1.
         24    2    1    2    0    0  0.41717634709E+02  0.23471284961E+03 -0.21341370756E+03  0.32833917129E+03  0.73693405465E+02 0.  0.
        254    2    1    2    0    0 -0.41717634709E+02 -0.23471284961E+03  0.11296557131E+04  0.14417280654E+04  0.86349713467E+03 0.  0.
         23    2    4    4    0    0  0.33597383450E+03  0.10567293829E+03  0.60034321341E+03  0.70190759470E+03  0.90648277760E+02 0.  0.
         23    2    4    4    0    0 -0.37769146921E+03 -0.34038578791E+03  0.52931249967E+03  0.73982047068E+03  0.93001483851E+02 0.  0.
          2    1    3    3  502    0  0.95534387659E+01  0.18972736245E+02  0.25425176343E+01  0.21393861475E+02  0.00000000000E+00 0. -1.
         -1    1    3    3    0  502  0.32164195943E+02  0.21574011337E+03 -0.21595622520E+03  0.30694530982E+03  0.00000000000E+00 0.  1.
         11    1    5    5    0    0  0.37149901451E+02  0.24139460658E+02  0.32046276853E+02  0.54678995956E+02  0.00000000000E+00 0.  1.
        -11    1    5    5    0    0  0.29882393305E+03  0.81533477634E+02  0.56829693655E+03  0.64722859875E+03  0.00000000000E+00 0. -1.
          1    1    6    6  503    0 -0.28177385859E+03 -0.25568120162E+03  0.33380182385E+03  0.50615515590E+03  0.00000000000E+00 0. -1.
         -1    1    6    6    0  503 -0.95917610626E+02 -0.84704586285E+02  0.19551067583E+03  0.23366531477E+03  0.00000000000E+00 0.  1.
<mgrwt>
<rscale>  0 0.15144763E+04</rscale>
<asrwt>0</asrwt>
<pdfrwt beam="1">  1        4 0.20663917E+00 0.15144763E+04</pdfrwt>
<pdfrwt beam="2">  1       -3 0.65678864E-01 0.15144763E+04</pdfrwt>
<totfact> 0.58804357E-01</totfact>
</mgrwt>
</event>
<event>
12    6  0.1553355E-007  0.2441662E+04  0.7818608E-02  0.8424069E-01
         -1   -1    0    0    0  501 -0.00000000000E+00  0.00000000000E+00  0.12468478193E+04  0.12468478193E+04  0.00000000000E+00 0.  1.
          2   -1    0    0  501    0  0.00000000000E+00 -0.00000000000E+00 -0.11953570970E+04  0.11953570970E+04  0.00000000000E+00 0. -1.
         24    2    1    2    0    0  0.67718748816E+03 -0.43111439203E+03 -0.63832139463E+03  0.10287186655E+04  0.79783310909E+02 0.  0.
        254    2    1    2    0    0 -0.67718748816E+03  0.43111439203E+03  0.68981211693E+03  0.14134862508E+04  0.93683515698E+03 0.  0.
         23    2    4    4    0    0 -0.14210268860E+03  0.55130962495E+02 -0.22392099052E+03  0.28600517151E+03  0.91791889621E+02 0.  0.
         23    2    4    4    0    0 -0.53508479956E+03  0.37598342953E+03  0.91373310745E+03  0.11274810793E+04  0.92876856545E+02 0.  0.
          2    1    3    3  502    0  0.65277403011E+03 -0.40160621484E+03 -0.62211986223E+03  0.98713454461E+03  0.00000000000E+00 0. -1.
         -1    1    3    3    0  502  0.24413458047E+02 -0.29508177190E+02 -0.16201532397E+02  0.41584120851E+02  0.00000000000E+00 0.  1.
         11    1    5    5    0    0 -0.13064184444E+03  0.77829778136E+02 -0.18446316833E+03  0.23906364499E+03  0.00000000000E+00 0.  1.
        -11    1    5    5    0    0 -0.11460844165E+02 -0.22698815641E+02 -0.39457822186E+02  0.46941526521E+02  0.00000000000E+00 0. -1.
          1    1    6    6  503    0 -0.14144294061E+02  0.46443825217E+01  0.52920577059E+02  0.54974710729E+02  0.00000000000E+00 0. -1.
         -1    1    6    6    0  503 -0.52094050550E+03  0.37133904701E+03  0.86081253039E+03  0.10725063686E+04  0.00000000000E+00 0.  1.
<mgrwt>
<rscale>  0 0.24416620E+04</rscale>
<asrwt>0</asrwt>
<pdfrwt beam="1">  1        2 0.18390109E+00 0.24416620E+04</pdfrwt>
<pdfrwt beam="2">  1       -1 0.19182274E+00 0.24416620E+04</pdfrwt>
<totfact> 0.33407035E+00</totfact>
</mgrwt>
</event>
<event>
12    6  0.1553355E-007  0.2357597E+04  0.7818608E-02  0.8455551E-01
          2   -1    0    0  501    0  0.00000000000E+00  0.00000000000E+00  0.22930601569E+04  0.22930601569E+04  0.00000000000E+00 0. -1.
         -1   -1    0    0    0  501 -0.00000000000E+00 -0.00000000000E+00 -0.60598754027E+03  0.60598754027E+03  0.00000000000E+00 0.  1.
         24    2    1    2    0    0  0.31429724282E+03  0.87007357547E+02  0.18901923658E+04  0.19198531879E+04  0.81584595938E+02 0.  0.
        254    2    1    2    0    0 -0.31429724282E+03 -0.87007357547E+02 -0.20311974917E+03  0.97919450925E+03  0.90067264716E+03 0.  0.
         23    2    4    4    0    0 -0.63255757453E+01 -0.32651533135E+03  0.21351215352E+03  0.40077186394E+03  0.91533451324E+02 0.  0.
         23    2    4    4    0    0 -0.30797166707E+03  0.23950797380E+03 -0.41663190269E+03  0.57842264531E+03  0.93701638419E+02 0.  0.
          2    1    3    3  502    0  0.30843727587E+03  0.69168397699E+02  0.18170221207E+04  0.18443121232E+04  0.00000000000E+00 0. -1.
         -1    1    3    3    0  502  0.58599669484E+01  0.17838959848E+02  0.73170245008E+02  0.75541064698E+02  0.00000000000E+00 0.  1.
         11    1    5    5    0    0 -0.88525504780E+01  0.16782295313E+01  0.14112976073E+02  0.16743960044E+02  0.00000000000E+00 0. -1.
        -11    1    5    5    0    0  0.25269747327E+01 -0.32819356088E+03  0.19939917745E+03  0.38402790389E+03  0.00000000000E+00 0.  1.
          1    1    6    6  503    0 -0.12743192167E+02  0.39271168609E+02 -0.68463319483E+02  0.79948982140E+02  0.00000000000E+00 0. -1.
         -1    1    6    6    0  503 -0.29522847491E+03  0.20023680519E+03 -0.34816858320E+03  0.49847366317E+03  0.00000000000E+00 0.  1.
<mgrwt>
<rscale>  0 0.23575970E+04</rscale>
<asrwt>0</asrwt>
<pdfrwt beam="1">  1        2 0.35277848E+00 0.23575970E+04</pdfrwt>
<pdfrwt beam="2">  1       -1 0.93228854E-01 0.23575970E+04</pdfrwt>
<totfact> 0.52453057E+00</totfact>
</mgrwt>
</event>
<event>
12    6  0.1553355E-007  0.1659192E+04  0.7818608E-02  0.8784987E-01
          2   -1    0    0  501    0  0.00000000000E+00  0.00000000000E+00  0.44106883253E+03  0.44106883253E+03  0.00000000000E+00 0. -1.
         -1   -1    0    0    0  501 -0.00000000000E+00 -0.00000000000E+00 -0.15603684677E+04  0.15603684677E+04  0.00000000000E+00 0.  1.
         24    2    1    2    0    0 -0.53006368150E+02 -0.81453857544E+02 -0.10899185815E+04  0.10971695496E+04  0.80088078400E+02 0.  0.
        254    2    1    2    0    0  0.53006368150E+02  0.81453857544E+02 -0.29381053606E+02  0.90426775056E+03  0.89855022810E+03 0.  0.
         23    2    4    4    0    0 -0.12773275568E+03 -0.37381700131E+03 -0.24247148062E+02  0.40592255938E+03  0.90168690144E+02 0.  0.
         23    2    4    4    0    0  0.18073912383E+03  0.45527085886E+03 -0.51339055438E+01  0.49834519118E+03  0.91560836517E+02 0.  0.
          2    1    3    3  502    0 -0.10579333531E+01  0.13310891347E+02 -0.53883962409E+02  0.55513786183E+02  0.00000000000E+00 0. -1.
         -1    1    3    3    0  502 -0.51948434797E+02 -0.94764748891E+02 -0.10360346191E+04  0.10416557635E+04  0.00000000000E+00 0.  1.
         11    1    5    5    0    0 -0.11888934973E+02 -0.95889496392E+02  0.27372598634E+02  0.10042609944E+03  0.00000000000E+00 0. -1.
        -11    1    5    5    0    0 -0.11584382070E+03 -0.27792750492E+03 -0.51619746696E+02  0.30549645994E+03  0.00000000000E+00 0.  1.
          3    1    6    6  503    0  0.14023084795E+02  0.13505228097E+03 -0.18769414443E+02  0.13706953134E+03  0.00000000000E+00 0. -1.
         -3    1    6    6    0  503  0.16671603903E+03  0.32021857788E+03  0.13635508899E+02  0.36127565984E+03  0.00000000000E+00 0.  1.
<mgrwt>
<rscale>  0 0.16591925E+04</rscale>
<asrwt>0</asrwt>
<pdfrwt beam="1">  1        2 0.67856743E-01 0.16591925E+04</pdfrwt>
<pdfrwt beam="2">  1       -1 0.24005669E+00 0.16591925E+04</pdfrwt>
<totfact> 0.62924643E+00</totfact>
</mgrwt>
</event>
<event>
12    6  0.1553355E-007  0.2436483E+04  0.7818608E-02  0.8425970E-01
          4   -1    0    0  501    0  0.00000000000E+00  0.00000000000E+00  0.19712173608E+04  0.19712173608E+04  0.00000000000E+00 0. -1.
         -3   -1    0    0    0  501 -0.00000000000E+00 -0.00000000000E+00 -0.75289113464E+03  0.75289113464E+03  0.00000000000E+00 0.  1.
         24    2    1    2    0    0 -0.62128933578E+02  0.53066706001E+03  0.15260460532E+04  0.16188286377E+04  0.79511437366E+02 0.  0.
        254    2    1    2    0    0  0.62128933578E+02 -0.53066706001E+03 -0.30771982704E+03  0.11052798578E+04  0.91732466395E+03 0.  0.
         23    2    4    4    0    0  0.33210977332E+03 -0.26063322473E+03  0.18947241420E+03  0.47141206237E+03  0.90016428718E+02 0.  0.
         23    2    4    4    0    0 -0.26998083974E+03 -0.27003383528E+03 -0.49719224123E+03  0.63386779541E+03  0.93703421955E+02 0.  0.
          4    1    3    3  502    0 -0.79611366512E+01  0.23719574068E+03  0.78006709192E+03  0.81537099960E+03  0.00000000000E+00 0. -1.
         -3    1    3    3    0  502 -0.54167796927E+02  0.29347131933E+03  0.74597896130E+03  0.80345763808E+03  0.00000000000E+00 0.  1.
         11    1    5    5    0    0  0.26721794744E+03 -0.16017506807E+03  0.14715173782E+03  0.34455060268E+03  0.00000000000E+00 0.  1.
        -11    1    5    5    0    0  0.64891825882E+02 -0.10045815666E+03  0.42320676374E+02  0.12686145969E+03  0.00000000000E+00 0. -1.
          4    1    6    6  503    0 -0.96977186521E+02 -0.39080214089E+02 -0.13701884230E+03  0.17235428914E+03  0.00000000000E+00 0. -1.
         -4    1    6    6    0  503 -0.17300365322E+03 -0.23095362119E+03 -0.36017339893E+03  0.46151350627E+03  0.00000000000E+00 0.  1.
<mgrwt>
<rscale>  0 0.24364828E+04</rscale>
<asrwt>0</asrwt>
<pdfrwt beam="1">  1        4 0.30326421E+00 0.24364828E+04</pdfrwt>
<pdfrwt beam="2">  1       -3 0.11582941E+00 0.24364828E+04</pdfrwt>
<totfact> 0.37030280E-02</totfact>
</mgrwt>
</event>
<event>
12    6  0.1553355E-007  0.1646485E+04  0.7818608E-02  0.8792488E-01
         -1   -1    0    0    0  501 -0.00000000000E+00  0.00000000000E+00  0.48122994774E+03  0.48122994774E+03  0.00000000000E+00 0.  1.
          2   -1    0    0  501    0  0.00000000000E+00 -0.00000000000E+00 -0.14083254520E+04  0.14083254520E+04  0.00000000000E+00 0. -1.
         24    2    1    2    0    0  0.42116687924E+03  0.18173615085E+03  0.73527328683E+02  0.47146008317E+03  0.80366493401E+02 0.  0.
        254    2    1    2    0    0 -0.42116687924E+03 -0.18173615085E+03 -0.10006228330E+04  0.14180953166E+04  0.89405743910E+03 0.  0.
         23    2    4    4    0    0 -0.37384497793E+03 -0.44383285049E+03 -0.97081923221E+03  0.11345955849E+04  0.89830356757E+02 0.  0.
         23    2    4    4    0    0 -0.47321901314E+02  0.26209669963E+03 -0.29803600771E+02  0.28349973169E+03  0.92465133686E+02 0.  0.
          4    1    3    3  502    0  0.67328350546E+01  0.62309662346E+01 -0.10152190050E+02  0.13682944526E+02  0.00000000000E+00 0. -1.
         -3    1    3    3    0  502  0.41443404419E+03  0.17550518462E+03  0.83679518733E+02  0.45777713864E+03  0.00000000000E+00 0.  1.
         11    1    5    5    0    0 -0.36055838219E+03 -0.44373763401E+03 -0.93030544054E+03  0.10919586290E+04  0.00000000000E+00 0.  1.
        -11    1    5    5    0    0 -0.13286595736E+02 -0.95216480196E-01 -0.40513791673E+02  0.42636955897E+02  0.00000000000E+00 0. -1.
          2    1    6    6  503    0 -0.72585780008E+02  0.14528862642E+03 -0.16088885261E+02  0.16320641120E+03  0.00000000000E+00 0. -1.
         -2    1    6    6    0  503  0.25263878694E+02  0.11680807321E+03 -0.13714715511E+02  0.12029332049E+03  0.00000000000E+00 0.  1.
<mgrwt>
<rscale>  0 0.16464852E+04</rscale>
<asrwt>0</asrwt>
<pdfrwt beam="1">  1        2 0.21666545E+00 0.16464852E+04</pdfrwt>
<pdfrwt beam="2">  1       -1 0.74035378E-01 0.16464852E+04</pdfrwt>
<totfact> 0.28632629E+01</totfact>
</mgrwt>
</event>
<event>
12    6  0.1553355E-007  0.2108886E+04  0.7818608E-02  0.8557339E-01
         -1   -1    0    0    0  501 -0.00000000000E+00  0.00000000000E+00  0.66082606869E+03  0.66082606869E+03  0.00000000000E+00 0.  1.
          2   -1    0    0  501    0  0.00000000000E+00 -0.00000000000E+00 -0.16825159882E+04  0.16825159882E+04  0.00000000000E+00 0. -1.
         24    2    1    2    0    0  0.32730553386E+03  0.77780407489E+01 -0.13058032483E+04  0.13485400605E+04  0.79049104829E+02 0.  0.
        254    2    1    2    0    0 -0.32730553386E+03 -0.77780407489E+01  0.28411332880E+03  0.99480199642E+03  0.89538886417E+03 0.  0.
         23    2    4    4    0    0 -0.47095595616E+03  0.15980017090E+03 -0.12506512601E+03  0.52039894959E+03  0.88533461066E+02 0.  0.
         23    2    4    4    0    0  0.14365042230E+03 -0.16757821165E+03  0.40917845480E+03  0.47440304684E+03  0.94410497956E+02 0.  0.
          4    1    3    3  502    0  0.26535284350E+03  0.37176028515E+02 -0.10166008165E+04  0.10513188901E+04  0.00000000000E+00 0. -1.
         -3    1    3    3    0  502  0.61952690357E+02 -0.29397987766E+02 -0.28920243186E+03  0.29722117038E+03  0.00000000000E+00 0.  1.
         11    1    5    5    0    0 -0.10251062852E+03  0.62290004279E+02 -0.22623934702E+01  0.11997329710E+03  0.00000000000E+00 0. -1.
        -11    1    5    5    0    0 -0.36844532763E+03  0.97510166625E+02 -0.12280273254E+03  0.40042565248E+03  0.00000000000E+00 0.  1.
          4    1    6    6  503    0 -0.48538061587E+01 -0.47549280928E+02  0.63305768725E+02  0.79322846046E+02  0.00000000000E+00 0. -1.
         -4    1    6    6    0  503  0.14850422846E+03 -0.12002893072E+03  0.34587268608E+03  0.39508020079E+03  0.00000000000E+00 0.  1.
<mgrwt>
<rscale>  0 0.21088864E+04</rscale>
<asrwt>0</asrwt>
<pdfrwt beam="1">  1        2 0.25884861E+00 0.21088864E+04</pdfrwt>
<pdfrwt beam="2">  1       -1 0.10166555E+00 0.21088864E+04</pdfrwt>
<totfact> 0.96512325E+00</totfact>
</mgrwt>
</event>
<event>
12    6  0.1553355E-007  0.2299625E+04  0.7818608E-02  0.8478069E-01
          2   -1    0    0  501    0  0.00000000000E+00  0.00000000000E+00  0.22628927487E+04  0.22628927487E+04  0.00000000000E+00 0. -1.
         -1   -1    0    0    0  501 -0.00000000000E+00 -0.00000000000E+00 -0.58423840220E+03  0.58423840220E+03  0.00000000000E+00 0.  1.
         24    2    1    2    0    0  0.38010795892E+03 -0.42123936946E+03 -0.26798908490E+03  0.63259760203E+03  0.80230353679E+02 0.  0.
        254    2    1    2    0    0 -0.38010795892E+03  0.42123936946E+03  0.19466434314E+04  0.22145335489E+04  0.89040076553E+03 0.  0.
         23    2    4    4    0    0 -0.41969201609E+03  0.52931359805E+03  0.76876534616E+03  0.10274499010E+04  0.91317403106E+02 0.  0.
         23    2    4    4    0    0  0.39584057174E+02 -0.10807422859E+03  0.11778780853E+04  0.11870836479E+04  0.92324790472E+02 0.  0.
          2    1    3    3  502    0  0.12274333474E+02 -0.23930780292E+01 -0.17399948600E+02  0.21427652601E+02  0.00000000000E+00 0. -1.
         -1    1    3    3    0  502  0.36783362544E+03 -0.41884629144E+03 -0.25058913630E+03  0.61116994943E+03  0.00000000000E+00 0.  1.
         11    1    5    5    0    0 -0.37369986726E+03  0.48927819613E+03  0.65872690018E+03  0.90164620169E+03  0.00000000000E+00 0. -1.
        -11    1    5    5    0    0 -0.45992148828E+02  0.40035401924E+02  0.11003844599E+03  0.12580369929E+03  0.00000000000E+00 0.  1.
          2    1    6    6  503    0  0.12819319921E+02 -0.11695996519E+03  0.87074166028E+03  0.87865522667E+03  0.00000000000E+00 0. -1.
         -2    1    6    6    0  503  0.26764737253E+02  0.88857366038E+01  0.30713642500E+03  0.30842842125E+03  0.00000000000E+00 0.  1.
<mgrwt>
<rscale>  0 0.22996251E+04</rscale>
<asrwt>0</asrwt>
<pdfrwt beam="1">  1        2 0.34813734E+00 0.22996251E+04</pdfrwt>
<pdfrwt beam="2">  1       -1 0.89882832E-01 0.22996251E+04</pdfrwt>
<totfact> 0.59463421E+00</totfact>
</mgrwt>
</event>
<event>
12    6  0.1553355E-007  0.2126747E+04  0.7818608E-02  0.8549552E-01
          2   -1    0    0  501    0  0.00000000000E+00  0.00000000000E+00  0.45763975089E+04  0.45763975089E+04  0.00000000000E+00 0. -1.
         -1   -1    0    0    0  501 -0.00000000000E+00 -0.00000000000E+00 -0.24708597857E+03  0.24708597857E+03  0.00000000000E+00 0.  1.
         24    2    1    2    0    0  0.67854109361E+03 -0.50808623537E+03  0.13346804854E+04  0.15830274539E+04  0.77680649050E+02 0.  0.
        254    2    1    2    0    0 -0.67854109361E+03  0.50808623537E+03  0.29946310449E+04  0.32404560336E+04  0.90231400978E+03 0.  0.
         23    2    4    4    0    0 -0.60204344939E+03  0.21222404902E+03  0.27863029383E+04  0.28599562843E+04  0.91490557456E+02 0.  0.
         23    2    4    4    0    0 -0.76497644215E+02  0.29586218635E+03  0.20832810661E+03  0.38049974931E+03  0.89404341833E+02 0.  0.
          2    1    3    3  502    0  0.51714911608E+03 -0.40832034161E+03  0.98262517500E+03  0.11830980281E+04  0.00000000000E+00 0. -1.
         -1    1    3    3    0  502  0.16139197753E+03 -0.99765893759E+02  0.35205531041E+03  0.39992942572E+03  0.00000000000E+00 0.  1.
         11    1    5    5    0    0 -0.58876224601E+03  0.20069796298E+03  0.26247649678E+04  0.26974639555E+04  0.00000000000E+00 0. -1.
        -11    1    5    5    0    0 -0.13281203383E+02  0.11526086034E+02  0.16153797046E+03  0.16249232882E+03  0.00000000000E+00 0.  1.
          1    1    6    6  503    0 -0.14335173579E+02  0.21314802500E+03  0.12392297666E+03  0.24697060940E+03  0.00000000000E+00 0. -1.
         -1    1    6    6    0  503 -0.62162470636E+02  0.82714161353E+02  0.84405129947E+02  0.13352913991E+03  0.00000000000E+00 0.  1.
<mgrwt>
<rscale>  0 0.21267474E+04</rscale>
<asrwt>0</asrwt>
<pdfrwt beam="1">  1        2 0.70406109E+00 0.21267474E+04</pdfrwt>
<pdfrwt beam="2">  1       -1 0.38013231E-01 0.21267474E+04</pdfrwt>
<totfact> 0.73293407E-01</totfact>
</mgrwt>
</event>
<event>
12    6  0.1553355E-007  0.2167982E+04  0.7818608E-02  0.8531874E-01
         -1   -1    0    0    0  501 -0.00000000000E+00  0.00000000000E+00  0.34224628160E+03  0.34224628160E+03  0.00000000000E+00 0.  1.
          2   -1    0    0  501    0  0.00000000000E+00 -0.00000000000E+00 -0.34333067591E+04  0.34333067591E+04  0.00000000000E+00 0. -1.
         24    2    1    2    0    0 -0.72826852715E+02  0.84064348802E+03 -0.76146458386E+03  0.11393132378E+04  0.78874057765E+02 0.  0.
        254    2    1    2    0    0  0.72826852715E+02 -0.84064348802E+03 -0.23295958936E+04  0.26362398028E+04  0.90042103827E+03 0.  0.
         23    2    4    4    0    0 -0.21852425161E+03 -0.84321585524E+03 -0.20128251984E+04  0.21951413878E+04  0.91731160987E+02 0.  0.
         23    2    4    4    0    0  0.29135110433E+03  0.25723672206E+01 -0.31677069521E+03  0.44109841508E+03  0.96602564019E+02 0.  0.
          2    1    3    3  502    0 -0.21464388228E+02  0.28208565756E+03 -0.30629666432E+03  0.41695405590E+03  0.00000000000E+00 0. -1.
         -1    1    3    3    0  502 -0.51362464487E+02  0.55855783046E+03 -0.45516791954E+03  0.72235918192E+03  0.00000000000E+00 0.  1.
         11    1    5    5    0    0 -0.15645777005E+03 -0.47192705257E+03 -0.12228595078E+04  0.13200680106E+04  0.00000000000E+00 0.  1.
        -11    1    5    5    0    0 -0.62066481565E+02 -0.37128880267E+03 -0.78996569056E+03  0.87507337714E+03  0.00000000000E+00 0. -1.
          1    1    6    6  503    0  0.13772736541E+02 -0.17055856846E+02 -0.36990884049E+01  0.22232268881E+02  0.00000000000E+00 0. -1.
         -1    1    6    6    0  503  0.27757836779E+03  0.19628224066E+02 -0.31307160681E+03  0.41886614620E+03  0.00000000000E+00 0.  1.
<mgrwt>
<rscale>  0 0.21679820E+04</rscale>
<asrwt>0</asrwt>
<pdfrwt beam="1">  1        2 0.52820104E+00 0.21679820E+04</pdfrwt>
<pdfrwt beam="2">  1       -1 0.52653275E-01 0.21679820E+04</pdfrwt>
<totfact> 0.34407381E+00</totfact>
</mgrwt>
</event>
<event>
12    6  0.1553355E-007  0.1709348E+04  0.7818608E-02  0.8756051E-01
         -1   -1    0    0    0  501 -0.00000000000E+00  0.00000000000E+00  0.12305576153E+04  0.12305576153E+04  0.00000000000E+00 0.  1.
          2   -1    0    0  501    0  0.00000000000E+00 -0.00000000000E+00 -0.59360683834E+03  0.59360683834E+03  0.00000000000E+00 0. -1.
         24    2    1    2    0    0 -0.34770812238E+03  0.45480156807E+03 -0.67427684411E+01  0.57855436437E+03  0.83272341839E+02 0.  0.
        254    2    1    2    0    0  0.34770812238E+03 -0.45480156807E+03  0.64369354544E+03  0.12456100893E+04  0.89969867704E+03 0.  0.
         23    2    4    4    0    0  0.29979349072E+03 -0.26552559709E+03  0.85232323254E+03  0.94638399037E+03  0.93849798720E+02 0.  0.
         23    2    4    4    0    0  0.47914631667E+02 -0.18927597098E+03 -0.20862968709E+03  0.29922609894E+03  0.88818392425E+02 0.  0.
          4    1    3    3  502    0 -0.35022393006E+03  0.43548475444E+03 -0.38069307737E+01  0.55885442224E+03  0.00000000000E+00 0. -1.
         -1    1    3    3    0  502  0.25158076765E+01  0.19316813632E+02 -0.29358376673E+01  0.19699942131E+02  0.00000000000E+00 0.  1.
         11    1    5    5    0    0  0.26587899486E+03 -0.18806177869E+03  0.64734282908E+03  0.72464585204E+03  0.00000000000E+00 0. -1.
        -11    1    5    5    0    0  0.33914495856E+02 -0.77463818400E+02  0.20498040345E+03  0.22173813833E+03  0.00000000000E+00 0.  1.
          4    1    6    6  503    0 -0.22862606167E+02 -0.56012192878E+02 -0.37978604072E+02  0.71431357813E+02  0.00000000000E+00 0. -1.
         -4    1    6    6    0  503  0.70777237835E+02 -0.13326377810E+03 -0.17065108302E+03  0.22779474113E+03  0.00000000000E+00 0.  1.
<mgrwt>
<rscale>  0 0.17093477E+04</rscale>
<asrwt>0</asrwt>
<pdfrwt beam="1">  1        2 0.91324129E-01 0.17093477E+04</pdfrwt>
<pdfrwt beam="2">  1       -1 0.18931656E+00 0.17093477E+04</pdfrwt>
<totfact> 0.97498386E+00</totfact>
</mgrwt>
</event>
<event>
12    6  0.1553355E-007  0.1488384E+04  0.7818608E-02  0.8892214E-01
          2   -1    0    0  501    0  0.00000000000E+00  0.00000000000E+00  0.59151605627E+03  0.59151605627E+03  0.00000000000E+00 0. -1.
         -1   -1    0    0    0  501 -0.00000000000E+00 -0.00000000000E+00 -0.93627562174E+03  0.93627562174E+03  0.00000000000E+00 0.  1.
         24    2    1    2    0    0 -0.10337595179E+03 -0.25643147396E+02  0.28239195163E+03  0.31130186110E+03  0.76285489849E+02 0.  0.
        254    2    1    2    0    0  0.10337595179E+03  0.25643147396E+02 -0.62715151710E+03  0.12164898169E+04  0.10369109368E+04 0.  0.
         23    2    4    4    0    0  0.55257157015E+03  0.11619770311E+03 -0.39051609677E+03  0.69256199312E+03  0.91115564691E+02 0.  0.
         23    2    4    4    0    0 -0.44919561836E+03 -0.90554555711E+02 -0.23663542033E+03  0.52392782379E+03  0.92342900488E+02 0.  0.
          4    1    3    3  502    0 -0.93126112010E+02 -0.19059103804E+02  0.28355533132E+03  0.29906412038E+03  0.00000000000E+00 0. -1.
         -3    1    3    3    0  502 -0.10249839781E+02 -0.65840435920E+01 -0.11633796966E+01  0.12237740718E+02  0.00000000000E+00 0.  1.
         11    1    5    5    0    0  0.11297759533E+03  0.41591273887E+02 -0.45179680458E+02  0.12858839231E+03  0.00000000000E+00 0. -1.
        -11    1    5    5    0    0  0.43959397483E+03  0.74606429220E+02 -0.34533641631E+03  0.56397360081E+03  0.00000000000E+00 0.  1.
          4    1    6    6  503    0 -0.72651482750E+02  0.19328525671E+02 -0.39650718612E+02  0.84994172370E+02  0.00000000000E+00 0. -1.
         -4    1    6    6    0  503 -0.37654413561E+03 -0.10988308138E+03 -0.19698470172E+03  0.43893365142E+03  0.00000000000E+00 0.  1.
<mgrwt>
<rscale>  0 0.14883844E+04</rscale>
<asrwt>0</asrwt>
<pdfrwt beam="1">  1        2 0.91002471E-01 0.14883844E+04</pdfrwt>
<pdfrwt beam="2">  1       -1 0.14404240E+00 0.14883844E+04</pdfrwt>
<totfact> 0.21685564E+01</totfact>
</mgrwt>
</event>
<event>
12    6  0.1553355E-007  0.1926790E+04  0.7818608E-02  0.8641635E-01
         -1   -1    0    0    0  501 -0.00000000000E+00  0.00000000000E+00  0.40609427589E+03  0.40609427589E+03  0.00000000000E+00 0.  1.
          2   -1    0    0  501    0  0.00000000000E+00 -0.00000000000E+00 -0.22855046938E+04  0.22855046938E+04  0.00000000000E+00 0. -1.
         24    2    1    2    0    0 -0.67868990077E+03 -0.42944115498E+01 -0.11820598097E+04  0.13652592185E+04  0.77646099583E+02 0.  0.
        254    2    1    2    0    0  0.67868990077E+03  0.42944115498E+01 -0.69735060819E+03  0.13263397511E+04  0.90124405199E+03 0.  0.
         23    2    4    4    0    0  0.88281940118E+03  0.67281925248E+02 -0.49346189203E+03  0.10176046251E+04  0.90097622709E+02 0.  0.
         23    2    4    4    0    0 -0.20412950041E+03 -0.62987513698E+02 -0.20388871616E+03  0.30873512598E+03  0.90058256806E+02 0.  0.
          4    1    3    3  502    0 -0.56527477975E+03  0.24862459772E+02 -0.96648649088E+03  0.11199329692E+04  0.00000000000E+00 0. -1.
         -3    1    3    3    0  502 -0.11341512102E+03 -0.29156871322E+02 -0.21557331879E+03  0.24532624930E+03  0.00000000000E+00 0.  1.
         11    1    5    5    0    0  0.14605091496E+02 -0.59306968445E+01  0.97648411003E+00  0.15793523479E+02  0.00000000000E+00 0. -1.
        -11    1    5    5    0    0  0.86821430969E+03  0.73212622093E+02 -0.49443837614E+03  0.10018111016E+04  0.00000000000E+00 0.  1.
          3    1    6    6  503    0 -0.20404434146E+03 -0.66353783756E+02 -0.21096163722E+03  0.30090152921E+03  0.00000000000E+00 0.  1.
         -3    1    6    6    0  503 -0.85158954492E-01  0.33662700579E+01  0.70729210610E+01  0.78335967784E+01  0.00000000000E+00 0. -1.
<mgrwt>
<rscale>  0 0.19267905E+04</rscale>
<asrwt>0</asrwt>
<pdfrwt beam="1">  1        2 0.35161610E+00 0.19267905E+04</pdfrwt>
<pdfrwt beam="2">  1       -1 0.62476043E-01 0.19267905E+04</pdfrwt>
<totfact> 0.12777725E+01</totfact>
</mgrwt>
</event>
<event>
12    6  0.1553355E-007  0.2298118E+04  0.7818608E-02  0.8478664E-01
          2   -1    0    0  501    0  0.00000000000E+00  0.00000000000E+00  0.99584173406E+03  0.99584173406E+03  0.00000000000E+00 0. -1.
         -1   -1    0    0    0  501 -0.00000000000E+00 -0.00000000000E+00 -0.13258498216E+04  0.13258498216E+04  0.00000000000E+00 0.  1.
         24    2    1    2    0    0 -0.26032097264E+00 -0.59880477629E+03 -0.90950654237E+03  0.10917313898E+04  0.78154007786E+02 0.  0.
        254    2    1    2    0    0  0.26032097264E+00  0.59880477629E+03  0.57949845482E+03  0.12299601659E+04  0.90466365169E+03 0.  0.
         23    2    4    4    0    0  0.24777261181E+03 -0.11090488584E+03  0.31798889003E+03  0.42802213962E+03  0.91623451986E+02 0.  0.
         23    2    4    4    0    0 -0.24751229084E+03  0.70970966213E+03  0.26150956478E+03  0.80193802628E+03  0.98829180306E+02 0.  0.
          2    1    3    3  502    0  0.44835960961E+01  0.26854896183E-01 -0.11690329067E+02  0.12520668865E+02  0.00000000000E+00 0. -1.
         -1    1    3    3    0  502 -0.47439170687E+01 -0.59883163118E+03 -0.89781621330E+03  0.10792107209E+04  0.00000000000E+00 0.  1.
         11    1    5    5    0    0  0.31858838461E+02  0.16389433296E+02  0.37589320247E+02  0.51928374792E+02  0.00000000000E+00 0. -1.
        -11    1    5    5    0    0  0.21591377335E+03 -0.12729431914E+03  0.28039956979E+03  0.37609376483E+03  0.00000000000E+00 0.  1.
          4    1    6    6  503    0 -0.19382393212E+03  0.50873497984E+03  0.23221246185E+03  0.59186284206E+03  0.00000000000E+00 0.  1.
         -4    1    6    6    0  503 -0.53688358718E+02  0.20097468229E+03  0.29297102939E+02  0.21007518422E+03  0.00000000000E+00 0. -1.
<mgrwt>
<rscale>  0 0.22981180E+04</rscale>
<asrwt>0</asrwt>
<pdfrwt beam="1">  1        2 0.15320642E+00 0.22981180E+04</pdfrwt>
<pdfrwt beam="2">  1       -1 0.20397690E+00 0.22981180E+04</pdfrwt>
<totfact> 0.37032214E+00</totfact>
</mgrwt>
</event>
<event>
12    6  0.1553355E-007  0.1777677E+04  0.7818608E-02  0.8718262E-01
         -1   -1    0    0    0  501 -0.00000000000E+00  0.00000000000E+00  0.80371362032E+03  0.80371362032E+03  0.00000000000E+00 0.  1.
          2   -1    0    0  501    0  0.00000000000E+00 -0.00000000000E+00 -0.98297878648E+03  0.98297878648E+03  0.00000000000E+00 0. -1.
         24    2    1    2    0    0  0.24854473934E+03  0.22023939340E+03 -0.63608886830E+03  0.72080053447E+03  0.68297029582E+02 0.  0.
        254    2    1    2    0    0 -0.24854473934E+03 -0.22023939340E+03  0.45682370214E+03  0.10658918723E+04  0.90396775983E+03 0.  0.
         23    2    4    4    0    0  0.10305102809E+03  0.28124826801E+03  0.28389928847E+03  0.42289755075E+03  0.92322423005E+02 0.  0.
         23    2    4    4    0    0 -0.35159576742E+03 -0.50148766141E+03  0.17292441367E+03  0.64299432158E+03  0.91811690613E+02 0.  0.
          4    1    3    3  502    0  0.24924357656E+03  0.20359863692E+03 -0.59493379601E+03  0.67640297681E+03  0.00000000000E+00 0. -1.
         -3    1    3    3    0  502 -0.69883722358E+00  0.16640756479E+02 -0.41155072297E+02  0.44397557652E+02  0.00000000000E+00 0.  1.
         11    1    5    5    0    0  0.66047584112E+02  0.86626687169E+02  0.14313314871E+03  0.17987096641E+03  0.00000000000E+00 0. -1.
        -11    1    5    5    0    0  0.37003443974E+02  0.19462158084E+03  0.14076613976E+03  0.24302658434E+03  0.00000000000E+00 0.  1.
          2    1    6    6  503    0 -0.61218075186E+02 -0.15063686454E+03  0.63833747684E+02  0.17468218292E+03  0.00000000000E+00 0.  1.
         -2    1    6    6    0  503 -0.29037769224E+03 -0.35085079687E+03  0.10909066599E+03  0.46831213866E+03  0.00000000000E+00 0. -1.
<mgrwt>
<rscale>  0 0.17776765E+04</rscale>
<asrwt>0</asrwt>
<pdfrwt beam="1">  1        2 0.15122751E+00 0.17776765E+04</pdfrwt>
<pdfrwt beam="2">  1       -1 0.12364825E+00 0.17776765E+04</pdfrwt>
<totfact> 0.16030198E+01</totfact>
</mgrwt>
</event>
<event>
12    6  0.1553355E-007  0.1334614E+04  0.7818608E-02  0.9002558E-01
          2   -1    0    0  501    0  0.00000000000E+00  0.00000000000E+00  0.11338312853E+04  0.11338312853E+04  0.00000000000E+00 0. -1.
         -1   -1    0    0    0  501 -0.00000000000E+00 -0.00000000000E+00 -0.39273773059E+03  0.39273773059E+03  0.00000000000E+00 0.  1.
         24    2    1    2    0    0 -0.92877088752E+01 -0.81109929133E+02  0.59056633700E+03  0.60138312519E+03  0.78917569183E+02 0.  0.
        254    2    1    2    0    0  0.92877088752E+01  0.81109929133E+02  0.15052721768E+03  0.92518589067E+03  0.90920042174E+03 0.  0.
         23    2    4    4    0    0  0.28352502149E+03 -0.86473997485E+02  0.40156441546E+03  0.50739283819E+03  0.91265121649E+02 0.  0.
         23    2    4    4    0    0 -0.27423731262E+03  0.16758392662E+03 -0.25103719778E+03  0.41779305249E+03  0.90779314521E+02 0.  0.
          2    1    3    3  502    0 -0.16112611668E+02 -0.32708272265E+02  0.46816302344E+03  0.46958073198E+03  0.00000000000E+00 0. -1.
         -1    1    3    3    0  502  0.68249027928E+01 -0.48401656868E+02  0.12240331356E+03  0.13180239321E+03  0.00000000000E+00 0.  1.
         11    1    5    5    0    0  0.16425141351E+03 -0.36935202989E+02  0.29625334169E+03  0.34074738227E+03  0.00000000000E+00 0. -1.
        -11    1    5    5    0    0  0.11927360798E+03 -0.49538794497E+02  0.10531107377E+03  0.16664545592E+03  0.00000000000E+00 0.  1.
          2    1    6    6  503    0 -0.16196042882E+03  0.59915717569E+02 -0.17028101326E+03  0.24252153965E+03  0.00000000000E+00 0. -1.
         -2    1    6    6    0  503 -0.11227688380E+03  0.10766820905E+03 -0.80756184515E+02  0.17527151284E+03  0.00000000000E+00 0.  1.
<mgrwt>
<rscale>  0 0.13346135E+04</rscale>
<asrwt>0</asrwt>
<pdfrwt beam="1">  1        2 0.17443558E+00 0.13346135E+04</pdfrwt>
<pdfrwt beam="2">  1       -1 0.60421190E-01 0.13346135E+04</pdfrwt>
<totfact> 0.64325665E+01</totfact>
</mgrwt>
</event>
<event>
12    6  0.1553355E-007  0.1688603E+04  0.7818608E-02  0.8767891E-01
         -1   -1    0    0    0  501 -0.00000000000E+00  0.00000000000E+00  0.38043966672E+03  0.38043966672E+03  0.00000000000E+00 0.  1.
          2   -1    0    0  501    0  0.00000000000E+00 -0.00000000000E+00 -0.18737403612E+04  0.18737403612E+04  0.00000000000E+00 0. -1.
         24    2    1    2    0    0 -0.19144127867E+03  0.58676429783E+03 -0.53342718572E+03  0.81973181006E+03  0.80458520830E+02 0.  0.
        254    2    1    2    0    0  0.19144127867E+03 -0.58676429783E+03 -0.95987350873E+03  0.14344482178E+04  0.86910438526E+03 0.  0.
         23    2    4    4    0    0  0.44235203061E+03 -0.37125605581E+03 -0.22859441210E+03  0.62672184249E+03  0.83776396696E+02 0.  0.
         23    2    4    4    0    0 -0.25091075194E+03 -0.21550824202E+03 -0.73127909662E+03  0.80772637534E+03  0.90844771114E+02 0.  0.
          4    1    3    3  502    0 -0.94298207759E+02  0.24957301717E+03 -0.28090507169E+03  0.38740999237E+03  0.00000000000E+00 0. -1.
         -3    1    3    3    0  502 -0.97143070910E+02  0.33719128066E+03 -0.25252211403E+03  0.43232181769E+03  0.00000000000E+00 0.  1.
         11    1    5    5    0    0  0.43611389375E+03 -0.35924293257E+03 -0.20803030362E+03  0.60210249970E+03  0.00000000000E+00 0. -1.
        -11    1    5    5    0    0  0.62381368661E+01 -0.12013123244E+02 -0.20564108486E+02  0.24619342791E+02  0.00000000000E+00 0.  1.
          3    1    6    6  503    0 -0.18456066034E+03 -0.12335549517E+03 -0.39922757474E+03  0.45679521885E+03  0.00000000000E+00 0. -1.
         -3    1    6    6    0  503 -0.66350091610E+02 -0.92152746852E+02 -0.33205152189E+03  0.35093115649E+03  0.00000000000E+00 0.  1.
<mgrwt>
<rscale>  0 0.16886032E+04</rscale>
<asrwt>0</asrwt>
<pdfrwt beam="1">  1        2 0.28826775E+00 0.16886032E+04</pdfrwt>
<pdfrwt beam="2">  1       -1 0.58529179E-01 0.16886032E+04</pdfrwt>
<totfact> 0.25199774E+01</totfact>
</mgrwt>
</event>
<event>
12    6  0.1553355E-007  0.4125272E+04  0.7818608E-02  0.7979741E-01
          2   -1    0    0  501    0  0.00000000000E+00  0.00000000000E+00  0.12946008583E+04  0.12946008583E+04  0.00000000000E+00 0. -1.
         -1   -1    0    0    0  501 -0.00000000000E+00 -0.00000000000E+00 -0.32863150700E+04  0.32863150700E+04  0.00000000000E+00 0.  1.
         24    2    1    2    0    0  0.14732405263E+04  0.11832972484E+04 -0.35611985113E+03  0.19245447601E+04  0.80132134417E+02 0.  0.
        254    2    1    2    0    0 -0.14732405263E+04 -0.11832972484E+04 -0.16355943606E+04  0.26563711682E+04  0.90028264680E+03 0.  0.
         23    2    4    4    0    0 -0.77002390047E+03 -0.31491392806E+03 -0.24831337723E+03  0.87267700261E+03  0.88306444758E+02 0.  0.
         23    2    4    4    0    0 -0.70321662580E+03 -0.86838332037E+03 -0.13872809834E+04  0.17836941655E+04  0.91723145497E+02 0.  0.
          2    1    3    3  502    0  0.12421950799E+04  0.10227687646E+04 -0.32415587997E+03  0.16413962340E+04  0.00000000000E+00 0. -1.
         -3    1    3    3    0  502  0.23104544641E+03  0.16052848380E+03 -0.31963971161E+02  0.28314852616E+03  0.00000000000E+00 0.  1.
         11    1    5    5    0    0 -0.14154597149E+02 -0.15335849643E+02 -0.18144686381E+02  0.27654485144E+02  0.00000000000E+00 0.  1.
        -11    1    5    5    0    0 -0.75586930332E+03 -0.29957807842E+03 -0.23016869084E+03  0.84502251746E+03  0.00000000000E+00 0. -1.
          4    1    6    6  503    0 -0.42037839678E+03 -0.54421572887E+03 -0.78604173622E+03  0.10443899497E+04  0.00000000000E+00 0. -1.
         -4    1    6    6    0  503 -0.28283822902E+03 -0.32416759150E+03 -0.60123924717E+03  0.73930421581E+03  0.00000000000E+00 0.  1.
<mgrwt>
<rscale>  0 0.41252715E+04</rscale>
<asrwt>0</asrwt>
<pdfrwt beam="1">  1        2 0.19916936E+00 0.41252715E+04</pdfrwt>
<pdfrwt beam="2">  1       -1 0.50558693E+00 0.41252715E+04</pdfrwt>
<totfact> 0.20369492E-02</totfact>
</mgrwt>
</event>
<event>
12    6  0.1553355E-007  0.1807878E+04  0.7818608E-02  0.8702121E-01
         -1   -1    0    0    0  501 -0.00000000000E+00  0.00000000000E+00  0.11661023316E+04  0.11661023316E+04  0.00000000000E+00 0.  1.
          2   -1    0    0  501    0  0.00000000000E+00 -0.00000000000E+00 -0.70071551057E+03  0.70071551057E+03  0.00000000000E+00 0. -1.
         24    2    1    2    0    0  0.29542947125E+03 -0.98698412624E+02 -0.44977240724E+03  0.55271389051E+03  0.78596929405E+02 0.  0.
        254    2    1    2    0    0 -0.29542947125E+03  0.98698412624E+02  0.91515922828E+03  0.13141039517E+04  0.89013079576E+03 0.  0.
         23    2    4    4    0    0 -0.25020875038E+03 -0.17888665990E+03  0.96303538991E+03  0.10152057240E+04  0.92739656615E+02 0.  0.
         23    2    4    4    0    0 -0.45220720871E+02  0.27758507252E+03 -0.47876161629E+02  0.29889822770E+03  0.89160740184E+02 0.  0.
          2    1    3    3  502    0  0.24923591462E+03 -0.10035070752E+03 -0.41695948584E+03  0.49602824362E+03  0.00000000000E+00 0. -1.
         -1    1    3    3    0  502  0.46193556634E+02  0.16522948935E+01 -0.32812921397E+02  0.56685646892E+02  0.00000000000E+00 0.  1.
         11    1    5    5    0    0 -0.22870909572E+02  0.49212149051E+01  0.13651940448E+03  0.13850936668E+03  0.00000000000E+00 0.  1.
        -11    1    5    5    0    0 -0.22733784081E+03 -0.18380787480E+03  0.82651598544E+03  0.87669635729E+03  0.00000000000E+00 0. -1.
          2    1    6    6  503    0 -0.46375182061E+00  0.17912112576E+03 -0.62592042250E+02  0.18974286946E+03  0.00000000000E+00 0. -1.
         -2    1    6    6    0  503 -0.44756969051E+02  0.98463946761E+02  0.14715880620E+02  0.10915535824E+03  0.00000000000E+00 0.  1.
<mgrwt>
<rscale>  0 0.18078783E+04</rscale>
<asrwt>0</asrwt>
<pdfrwt beam="1">  1        2 0.10780239E+00 0.18078783E+04</pdfrwt>
<pdfrwt beam="2">  1       -1 0.17940036E+00 0.18078783E+04</pdfrwt>
<totfact> 0.92648380E+00</totfact>
</mgrwt>
</event>
<event>
12    6  0.1553355E-007  0.2072872E+04  0.7818608E-02  0.8573289E-01
          2   -1    0    0  501    0  0.00000000000E+00  0.00000000000E+00  0.16404015410E+04  0.16404015410E+04  0.00000000000E+00 0. -1.
         -1   -1    0    0    0  501 -0.00000000000E+00 -0.00000000000E+00 -0.65483936150E+03  0.65483936150E+03  0.00000000000E+00 0.  1.
         24    2    1    2    0    0 -0.54665016702E+03  0.42138240093E+03  0.94884759273E+03  0.11761262942E+04  0.81066470801E+02 0.  0.
        254    2    1    2    0    0  0.54665016702E+03 -0.42138240093E+03  0.36714586798E+02  0.11191146084E+04  0.88015908384E+03 0.  0.
         23    2    4    4    0    0  0.35723693230E+03  0.31113720917E+01 -0.34947360066E+03  0.50794159331E+03  0.90801752275E+02 0.  0.
         23    2    4    4    0    0  0.18941323472E+03 -0.42449377302E+03  0.38618818746E+03  0.61117301506E+03  0.91207463394E+02 0.  0.
          2    1    3    3  502    0 -0.43367888073E+03  0.29699257204E+03  0.74885552805E+03  0.91491341739E+03  0.00000000000E+00 0. -1.
         -1    1    3    3    0  502 -0.11297128629E+03  0.12438982889E+03  0.19999206468E+03  0.26121287677E+03  0.00000000000E+00 0.  1.
         11    1    5    5    0    0  0.10481086680E+02  0.18131958801E+02 -0.27044405250E+02  0.34205569185E+02  0.00000000000E+00 0. -1.
        -11    1    5    5    0    0  0.34675584562E+03 -0.15020586709E+02 -0.32242919541E+03  0.47373602413E+03  0.00000000000E+00 0.  1.
          2    1    6    6  503    0 -0.61812962392E+01 -0.11189027888E+01  0.10788576563E+02  0.12484139974E+02  0.00000000000E+00 0. -1.
         -2    1    6    6    0  503  0.19559453095E+03 -0.42337487023E+03  0.37539961090E+03  0.59868887508E+03  0.00000000000E+00 0.  1.
<mgrwt>
<rscale>  0 0.20728719E+04</rscale>
<asrwt>0</asrwt>
<pdfrwt beam="1">  1        2 0.25236947E+00 0.20728719E+04</pdfrwt>
<pdfrwt beam="2">  1       -1 0.10074452E+00 0.20728719E+04</pdfrwt>
<totfact> 0.10435288E+01</totfact>
</mgrwt>
</event>
<event>
12    6  0.1553355E-007  0.2671702E+04  0.7818608E-02  0.8344246E-01
          2   -1    0    0  501    0  0.00000000000E+00  0.00000000000E+00  0.22224851013E+04  0.22224851013E+04  0.00000000000E+00 0. -1.
         -1   -1    0    0    0  501 -0.00000000000E+00 -0.00000000000E+00 -0.80292880926E+03  0.80292880926E+03  0.00000000000E+00 0.  1.
         24    2    1    2    0    0  0.87690087675E+03  0.79545217444E+03  0.61434594751E+03  0.13360030828E+04  0.76052511107E+02 0.  0.
        254    2    1    2    0    0 -0.87690087675E+03 -0.79545217444E+03  0.80521034449E+03  0.16894108278E+04  0.89668608588E+03 0.  0.
         23    2    4    4    0    0 -0.92476622682E+03 -0.60048262626E+03  0.31234705326E+03  0.11496336321E+04  0.91240602858E+02 0.  0.
         23    2    4    4    0    0  0.47865350062E+02 -0.19496954818E+03  0.49286329123E+03  0.53977719569E+03  0.90227383242E+02 0.  0.
          2    1    3    3  502    0  0.52988397468E+03  0.43847813571E+03  0.33290209661E+03  0.76410987956E+03  0.00000000000E+00 0. -1.
         -1    1    3    3    0  502  0.34701690208E+03  0.35697403873E+03  0.28144385090E+03  0.57189320320E+03  0.00000000000E+00 0.  1.
         11    1    5    5    0    0 -0.66330584972E+03 -0.39366338221E+03  0.24707901598E+03  0.80993428678E+03  0.00000000000E+00 0. -1.
        -11    1    5    5    0    0 -0.26146037710E+03 -0.20681924405E+03  0.65268037283E+02  0.33969934529E+03  0.00000000000E+00 0.  1.
          2    1    6    6  503    0  0.23617638619E+02 -0.36317494511E+02  0.21119962770E+03  0.21559692948E+03  0.00000000000E+00 0.  1.
         -2    1    6    6    0  503  0.24247711443E+02 -0.15865205367E+03  0.28166366354E+03  0.32418026621E+03  0.00000000000E+00 0. -1.
<mgrwt>
<rscale>  0 0.26717016E+04</rscale>
<asrwt>0</asrwt>
<pdfrwt beam="1">  1        2 0.34192078E+00 0.26717016E+04</pdfrwt>
<pdfrwt beam="2">  1       -1 0.12352751E+00 0.26717016E+04</pdfrwt>
<totfact> 0.28906102E+00</totfact>
</mgrwt>
</event>
<event>
12    6  0.1553355E-007  0.1914852E+04  0.7818608E-02  0.8647499E-01
         -1   -1    0    0    0  501 -0.00000000000E+00  0.00000000000E+00  0.19065025787E+04  0.19065025787E+04  0.00000000000E+00 0.  1.
          2   -1    0    0  501    0  0.00000000000E+00 -0.00000000000E+00 -0.48080928162E+03  0.48080928162E+03  0.00000000000E+00 0. -1.
         24    2    1    2    0    0 -0.41223661458E+03 -0.20623188691E+03  0.12815116576E+04  0.13641450843E+04  0.78415973061E+02 0.  0.
        254    2    1    2    0    0  0.41223661458E+03  0.20623188691E+03  0.14418163950E+03  0.10231667760E+04  0.90200404038E+03 0.  0.
         23    2    4    4    0    0  0.46309586846E+03  0.43715043519E+03  0.31354580478E+03  0.71692265585E+03  0.10054270932E+03 0.  0.
         23    2    4    4    0    0 -0.50859253880E+02 -0.23091854828E+03 -0.16936416528E+03  0.30624412020E+03  0.95870751688E+02 0.  0.
          2    1    3    3  502    0 -0.39412667838E+02  0.33720352374E+01  0.95423136184E+02  0.10329716321E+03  0.00000000000E+00 0. -1.
         -1    1    3    3    0  502 -0.37282394674E+03 -0.20960392215E+03  0.11860885214E+04  0.12608479211E+04  0.00000000000E+00 0.  1.
         11    1    5    5    0    0  0.50215961491E+02  0.16036136744E+02  0.10062438190E+02  0.53666126490E+02  0.00000000000E+00 0. -1.
        -11    1    5    5    0    0  0.41287990697E+03  0.42111429845E+03  0.30348336659E+03  0.66325652936E+03  0.00000000000E+00 0.  1.
          4    1    6    6  503    0  0.57405640485E+00 -0.55155110731E+02 -0.92364590341E+02  0.10758082231E+03  0.00000000000E+00 0. -1.
         -4    1    6    6    0  503 -0.51433310285E+02 -0.17576343755E+03 -0.76999574944E+02  0.19866329789E+03  0.00000000000E+00 0.  1.
<mgrwt>
<rscale>  0 0.19148516E+04</rscale>
<asrwt>0</asrwt>
<pdfrwt beam="1">  1        2 0.73970660E-01 0.19148516E+04</pdfrwt>
<pdfrwt beam="2">  1       -1 0.29330809E+00 0.19148516E+04</pdfrwt>
<totfact> 0.25155879E+00</totfact>
</mgrwt>
</event>
<event>
12    6  0.1553355E-007  0.3208767E+04  0.7818608E-02  0.8186506E-01
         -1   -1    0    0    0  501 -0.00000000000E+00  0.00000000000E+00  0.22981232889E+04  0.22981232889E+04  0.00000000000E+00 0.  1.
          2   -1    0    0  501    0  0.00000000000E+00 -0.00000000000E+00 -0.11200648907E+04  0.11200648907E+04  0.00000000000E+00 0. -1.
         24    2    1    2    0    0 -0.41485429816E+02 -0.14629075003E+04  0.32923651579E+03  0.15021726620E+04  0.79414279910E+02 0.  0.
        254    2    1    2    0    0  0.41485429816E+02  0.14629075003E+04  0.84882188242E+03  0.19160155177E+04  0.89933168550E+03 0.  0.
         23    2    4    4    0    0 -0.32962491032E+03  0.20178987408E+03  0.14887503045E+03  0.42391514366E+03  0.90379973175E+02 0.  0.
         23    2    4    4    0    0  0.37111034014E+03  0.12611176262E+04  0.69994685197E+03  0.14921003740E+04  0.91089948940E+02 0.  0.
          4    1    3    3  502    0 -0.59396561904E+02 -0.99265050230E+03  0.24390779816E+03  0.10239013553E+04  0.00000000000E+00 0. -1.
         -3    1    3    3    0  502  0.17911132087E+02 -0.47025699799E+03  0.85328717628E+02  0.47827130675E+03  0.00000000000E+00 0.  1.
         11    1    5    5    0    0 -0.50910380324E+01 -0.72411525495E+01  0.10741307855E+02  0.13918644076E+02  0.00000000000E+00 0. -1.
        -11    1    5    5    0    0 -0.32453387229E+03  0.20903102663E+03  0.13813372259E+03  0.40999649959E+03  0.00000000000E+00 0.  1.
          1    1    6    6  503    0  0.17907554338E+02  0.30001008342E+02  0.61506057771E+01  0.35476343601E+02  0.00000000000E+00 0. -1.
         -1    1    6    6    0  503  0.35320278580E+03  0.12311166179E+04  0.69379624620E+03  0.14566240304E+04  0.00000000000E+00 0.  1.
<mgrwt>
<rscale>  0 0.32087675E+04</rscale>
<asrwt>0</asrwt>
<pdfrwt beam="1">  1        2 0.17231768E+00 0.32087675E+04</pdfrwt>
<pdfrwt beam="2">  1       -1 0.35355743E+00 0.32087675E+04</pdfrwt>
<totfact> 0.29859593E-01</totfact>
</mgrwt>
</event>
<event>
12    6  0.1553355E-007  0.1820031E+04  0.7818608E-02  0.8695719E-01
         -1   -1    0    0    0  501 -0.00000000000E+00  0.00000000000E+00  0.61253787610E+03  0.61253787610E+03  0.00000000000E+00 0.  1.
          2   -1    0    0  501    0  0.00000000000E+00 -0.00000000000E+00 -0.13519623197E+04  0.13519623197E+04  0.00000000000E+00 0. -1.
         24    2    1    2    0    0  0.38955210802E+03 -0.54611441838E+03 -0.19425631778E+03  0.70289769655E+03  0.79610627417E+02 0.  0.
        254    2    1    2    0    0 -0.38955210802E+03  0.54611441838E+03 -0.54516812585E+03  0.12616024993E+04  0.91893458849E+03 0.  0.
         23    2    4    4    0    0 -0.32079706663E+03  0.73607103849E+03 -0.17035207658E+03  0.82624387608E+03  0.94592711720E+02 0.  0.
         23    2    4    4    0    0 -0.68755041391E+02 -0.18995662010E+03 -0.37481604928E+03  0.43535862320E+03  0.90770517028E+02 0.  0.
          2    1    3    3  502    0  0.39154652328E+03 -0.54441922565E+03 -0.19716817621E+03  0.69898230511E+03  0.00000000000E+00 0. -1.
         -1    1    3    3    0  502 -0.19944152624E+01 -0.16951927343E+01  0.29118584293E+01  0.39153914437E+01  0.00000000000E+00 0.  1.
         11    1    5    5    0    0 -0.29202957713E+03  0.67726442043E+03 -0.18220139752E+03  0.75971423466E+03  0.00000000000E+00 0.  1.
        -11    1    5    5    0    0 -0.28767489502E+02  0.58806618060E+02  0.11849320949E+02  0.66529641415E+02  0.00000000000E+00 0. -1.
          2    1    6    6  503    0 -0.79624246090E+02 -0.91632962277E+02 -0.22841573608E+03  0.25867038646E+03  0.00000000000E+00 0.  1.
         -2    1    6    6    0  503  0.10869204699E+02 -0.98323657826E+02 -0.14640031320E+03  0.17668823674E+03  0.00000000000E+00 0. -1.
<mgrwt>
<rscale>  0 0.18200309E+04</rscale>
<asrwt>0</asrwt>
<pdfrwt beam="1">  1        2 0.20799420E+00 0.18200309E+04</pdfrwt>
<pdfrwt beam="2">  1       -1 0.94236597E-01 0.18200309E+04</pdfrwt>
<totfact> 0.18065991E+01</totfact>
</mgrwt>
</event>
<event>
12    6  0.1553355E-007  0.1694818E+04  0.7818608E-02  0.8764325E-01
          2   -1    0    0  501    0  0.00000000000E+00  0.00000000000E+00  0.68827606349E+03  0.68827606349E+03  0.00000000000E+00 0. -1.
         -1   -1    0    0    0  501 -0.00000000000E+00 -0.00000000000E+00 -0.10433341746E+04  0.10433341746E+04  0.00000000000E+00 0.  1.
         24    2    1    2    0    0  0.33374814121E+03  0.50992548440E+03  0.16382684311E+02  0.61498449855E+03  0.80781926860E+02 0.  0.
        254    2    1    2    0    0 -0.33374814121E+03 -0.50992548440E+03 -0.37144079539E+03  0.11166257395E+04  0.85876245624E+03 0.  0.
         23    2    4    4    0    0 -0.40439663340E+03 -0.70623462903E+03 -0.33683597018E+03  0.88524678431E+03  0.88878624998E+02 0.  0.
         23    2    4    4    0    0  0.70648492185E+02  0.19630914463E+03 -0.34604825213E+02  0.23137895520E+03  0.93862864169E+02 0.  0.
          2    1    3    3  502    0  0.24275947512E+03  0.41593492900E+03  0.34923268613E+02  0.48285987886E+03  0.00000000000E+00 0. -1.
         -1    1    3    3    0  502  0.90988666092E+02  0.93990555402E+02 -0.18540584303E+02  0.13212461969E+03  0.00000000000E+00 0.  1.
         11    1    5    5    0    0 -0.59346764852E+01 -0.37678247315E+01  0.46294517413E+01  0.84171676718E+01  0.00000000000E+00 0.  1.
        -11    1    5    5    0    0 -0.39846195691E+03 -0.70246680430E+03 -0.34146542192E+03  0.87682961664E+03  0.00000000000E+00 0. -1.
          3    1    6    6  503    0  0.76270205319E+02  0.17616793351E+03 -0.12051881436E+01  0.19197327287E+03  0.00000000000E+00 0. -1.
         -3    1    6    6    0  503 -0.56217131341E+01  0.20141211113E+02 -0.33399637069E+02  0.39405682331E+02  0.00000000000E+00 0.  1.
<mgrwt>
<rscale>  0 0.16948179E+04</rscale>
<asrwt>0</asrwt>
<pdfrwt beam="1">  1        2 0.10588863E+00 0.16948179E+04</pdfrwt>
<pdfrwt beam="2">  1       -1 0.16051295E+00 0.16948179E+04</pdfrwt>
<totfact> 0.13180010E+01</totfact>
</mgrwt>
</event>
<event>
12    6  0.1553355E-007  0.1372631E+04  0.7818608E-02  0.8973871E-01
          2   -1    0    0  501    0  0.00000000000E+00  0.00000000000E+00  0.23875411592E+04  0.23875411592E+04  0.00000000000E+00 0. -1.
         -1   -1    0    0    0  501 -0.00000000000E+00 -0.00000000000E+00 -0.19728629341E+03  0.19728629341E+03  0.00000000000E+00 0.  1.
         24    2    1    2    0    0 -0.23706870949E+03  0.27141970631E+03  0.36125490314E+03  0.51635657285E+03  0.79049195400E+02 0.  0.
        254    2    1    2    0    0  0.23706870949E+03 -0.27141970631E+03  0.18289999627E+04  0.20684708798E+04  0.89635968618E+03 0.  0.
         23    2    4    4    0    0 -0.17778609085E+03 -0.12026829835E+03  0.56416457445E+02  0.23951953235E+03  0.90080142204E+02 0.  0.
         23    2    4    4    0    0  0.41485480034E+03 -0.15115140796E+03  0.17725835052E+04  0.18289513474E+04  0.89774688742E+02 0.  0.
          2    1    3    3  502    0 -0.12013671417E+03  0.17814562544E+03  0.17264843251E+03  0.27563776084E+03  0.00000000000E+00 0. -1.
         -1    1    3    3    0  502 -0.11693199532E+03  0.93274080870E+02  0.18860647063E+03  0.24071881201E+03  0.00000000000E+00 0.  1.
         11    1    5    5    0    0 -0.12007212116E+03 -0.12574145851E+03  0.51543882127E+02  0.18134221916E+03  0.00000000000E+00 0. -1.
        -11    1    5    5    0    0 -0.57713969690E+02  0.54731601533E+01  0.48725753184E+01  0.58177313187E+02  0.00000000000E+00 0.  1.
          4    1    6    6  503    0  0.33534322008E+02 -0.36786482061E+02  0.26847782681E+03  0.27305336383E+03  0.00000000000E+00 0. -1.
         -4    1    6    6    0  503  0.38132047833E+03 -0.11436492590E+03  0.15041056784E+04  0.15558979836E+04  0.00000000000E+00 0.  1.
<mgrwt>
<rscale>  0 0.13726313E+04</rscale>
<asrwt>0</asrwt>
<pdfrwt beam="1">  1        2 0.36731400E+00 0.13726313E+04</pdfrwt>
<pdfrwt beam="2">  1       -1 0.30351739E-01 0.13726313E+04</pdfrwt>
<totfact> 0.45008855E+01</totfact>
</mgrwt>
</event>
<event>
12    6  0.1553355E-007  0.1051065E+04  0.7818608E-02  0.9254245E-01
         -1   -1    0    0    0  501 -0.00000000000E+00  0.00000000000E+00  0.36513675940E+03  0.36513675940E+03  0.00000000000E+00 0.  1.
          2   -1    0    0  501    0  0.00000000000E+00 -0.00000000000E+00 -0.75638643186E+03  0.75638643186E+03  0.00000000000E+00 0. -1.
         24    2    1    2    0    0  0.11317325104E+03  0.19236101817E+03  0.23698477681E+02  0.23880911401E+03  0.81591844125E+02 0.  0.
        254    2    1    2    0    0 -0.11317325104E+03 -0.19236101817E+03 -0.41494815014E+03  0.88271407725E+03  0.74645242903E+03 0.  0.
         23    2    4    4    0    0  0.28292121246E+03  0.34001904607E+02 -0.24368837068E+03  0.38700718235E+03  0.95864462726E+02 0.  0.
         23    2    4    4    0    0 -0.39609446350E+03 -0.22636292278E+03 -0.17125977946E+03  0.49570689489E+03  0.90908837653E+02 0.  0.
          4    1    3    3  502    0  0.30203008993E+02  0.20791404812E+02  0.31109590378E+02  0.48086493736E+02  0.00000000000E+00 0. -1.
         -3    1    3    3    0  502  0.82970242047E+02  0.17156961336E+03 -0.74111126971E+01  0.19072262027E+03  0.00000000000E+00 0.  1.
         11    1    5    5    0    0  0.82654027517E+02  0.47155251122E+02 -0.47532724719E+02  0.10637041831E+03  0.00000000000E+00 0.  1.
        -11    1    5    5    0    0  0.20026718494E+03 -0.13153346515E+02 -0.19615564596E+03  0.28063676404E+03  0.00000000000E+00 0. -1.
          4    1    6    6  503    0 -0.38986287477E+03 -0.23421182470E+03 -0.16460419358E+03  0.48367631790E+03  0.00000000000E+00 0. -1.
         -4    1    6    6    0  503 -0.62315887287E+01  0.78489019224E+01 -0.66555858727E+01  0.12030576993E+02  0.00000000000E+00 0.  1.
<mgrwt>
<rscale>  0 0.10510652E+04</rscale>
<asrwt>0</asrwt>
<pdfrwt beam="1">  1        2 0.11636714E+00 0.10510652E+04</pdfrwt>
<pdfrwt beam="2">  1       -1 0.56174887E-01 0.10510652E+04</pdfrwt>
<totfact> 0.13516454E+02</totfact>
</mgrwt>
</event>
<event>
12    6  0.1553355E-007  0.2664079E+04  0.7818608E-02  0.8346755E-01
          2   -1    0    0  501    0  0.00000000000E+00  0.00000000000E+00  0.37046107400E+04  0.37046107400E+04  0.00000000000E+00 0. -1.
         -1   -1    0    0    0  501 -0.00000000000E+00 -0.00000000000E+00 -0.47895154270E+03  0.47895154270E+03  0.00000000000E+00 0.  1.
         24    2    1    2    0    0  0.53741500709E+02  0.94745919915E+03  0.25309339772E+04  0.27040641605E+04  0.75954620683E+02 0.  0.
        254    2    1    2    0    0 -0.53741500709E+02 -0.94745919915E+03  0.69472522010E+03  0.14794981222E+04  0.89761042724E+03 0.  0.
         23    2    4    4    0    0  0.11160596424E+03 -0.10548407549E+04  0.67737755774E+03  0.12618759965E+04  0.91355160417E+02 0.  0.
         23    2    4    4    0    0 -0.16534746495E+03  0.10738155572E+03  0.17347662359E+02  0.21762212570E+03  0.90486825179E+02 0.  0.
          4    1    3    3  502    0  0.43774347359E+02  0.81019661707E+03  0.20822615648E+04  0.22347590420E+04  0.00000000000E+00 0. -1.
         -3    1    3    3    0  502  0.99671533500E+01  0.13726258208E+03  0.44867241241E+03  0.46930511849E+03  0.00000000000E+00 0.  1.
         11    1    5    5    0    0  0.85804403857E+02 -0.57748871285E+03  0.41757490893E+03  0.71779134416E+03  0.00000000000E+00 0.  1.
        -11    1    5    5    0    0  0.25801560381E+02 -0.47735204202E+03  0.25980264881E+03  0.54408465230E+03  0.00000000000E+00 0. -1.
          3    1    6    6  503    0 -0.13058774775E+02  0.23024473227E+02  0.33599200017E+02  0.42773405380E+02  0.00000000000E+00 0. -1.
         -3    1    6    6    0  503 -0.15228869017E+03  0.84357082492E+02 -0.16251537657E+02  0.17484872032E+03  0.00000000000E+00 0.  1.
<mgrwt>
<rscale>  0 0.26640788E+04</rscale>
<asrwt>0</asrwt>
<pdfrwt beam="1">  1        2 0.56994009E+00 0.26640788E+04</pdfrwt>
<pdfrwt beam="2">  1       -1 0.73684855E-01 0.26640788E+04</pdfrwt>
<totfact> 0.10756817E+00</totfact>
</mgrwt>
</event>
<event>
12    6  0.1553355E-007  0.1358882E+04  0.7818608E-02  0.8984132E-01
         -1   -1    0    0    0  501 -0.00000000000E+00  0.00000000000E+00  0.70313348599E+03  0.70313348599E+03  0.00000000000E+00 0.  1.
          2   -1    0    0  501    0  0.00000000000E+00 -0.00000000000E+00 -0.65654685607E+03  0.65654685607E+03  0.00000000000E+00 0. -1.
         24    2    1    2    0    0 -0.34683370666E+03 -0.91205944552E+02  0.12280527830E+03  0.38759819637E+03  0.80864584662E+02 0.  0.
        254    2    1    2    0    0  0.34683370666E+03  0.91205944552E+02 -0.76218648380E+02  0.97208214569E+03  0.90029010391E+03 0.  0.
         23    2    4    4    0    0  0.49351745335E+03  0.10229475323E+03 -0.36905864089E+03  0.63159743696E+03  0.93205947541E+02 0.  0.
         23    2    4    4    0    0 -0.14668374668E+03 -0.11088808680E+02  0.29283999251E+03  0.34048470873E+03  0.92387728865E+02 0.  0.
          2    1    3    3  502    0 -0.23705454656E+03 -0.35006574203E+02  0.10980813354E+03  0.26358707190E+03  0.00000000000E+00 0. -1.
         -1    1    3    3    0  502 -0.10977916011E+03 -0.56199370348E+02  0.12997144765E+02  0.12401112447E+03  0.00000000000E+00 0.  1.
         11    1    5    5    0    0  0.14199128763E+03  0.28913540645E+02 -0.56531246182E+02  0.15554195701E+03  0.00000000000E+00 0. -1.
        -11    1    5    5    0    0  0.35152616572E+03  0.73381212586E+02 -0.31252739471E+03  0.47605547995E+03  0.00000000000E+00 0.  1.
          1    1    6    6  503    0 -0.11901677748E+03 -0.11010602246E+02  0.13529870723E+03  0.18053245376E+03  0.00000000000E+00 0. -1.
         -1    1    6    6    0  503 -0.27666969209E+02 -0.78206433936E-01  0.15754128528E+03  0.15995225497E+03  0.00000000000E+00 0.  1.
<mgrwt>
<rscale>  0 0.13588820E+04</rscale>
<asrwt>0</asrwt>
<pdfrwt beam="1">  1        2 0.10100721E+00 0.13588820E+04</pdfrwt>
<pdfrwt beam="2">  1       -1 0.10817438E+00 0.13588820E+04</pdfrwt>
<totfact> 0.39337055E+01</totfact>
</mgrwt>
</event>
<event>
12    6  0.1682898E-007  0.2603315E+04  0.7818608E-02  0.8367076E-01
          2   -1    0    0  501    0  0.00000000000E+00  0.00000000000E+00  0.30433281810E+04  0.30433281810E+04  0.00000000000E+00 0. -1.
         -1   -1    0    0    0  501 -0.00000000000E+00 -0.00000000000E+00 -0.55672996090E+03  0.55672996090E+03  0.00000000000E+00 0.  1.
         24    2    1    2    0    0 -0.43344215565E+02  0.10672629731E+04  0.16635612566E+04  0.19788401493E+04  0.86274603902E+02 0.  0.
        254    2    1    2    0    0  0.43344215565E+02 -0.10672629731E+04  0.82303696355E+03  0.16212179926E+04  0.90001608950E+03 0.  0.
         23    2    4    4    0    0 -0.12245576050E+03  0.42976254271E+02  0.37912443789E+03  0.41032502615E+03  0.88254835415E+02 0.  0.
         23    2    4    4    0    0  0.16579997606E+03 -0.11102392274E+04  0.44391252566E+03  0.12108929665E+04  0.95303051633E+02 0.  0.
          2    1    3    3  502    0 -0.43670225888E+02  0.10563071664E+04  0.16584152873E+04  0.19667315992E+04  0.00000000000E+00 0. -1.
         -1    1    3    3    0  502  0.32601032241E+00  0.10955806762E+02  0.51459692753E+01  0.12108550050E+02  0.00000000000E+00 0.  1.
         11    1    5    5    0    0 -0.21603513556E+02  0.29987390426E+02  0.32913209372E+02  0.49489743722E+02  0.00000000000E+00 0.  1.
        -11    1    5    5    0    0 -0.10085224694E+03  0.12988863845E+02  0.34621122851E+03  0.36083528243E+03  0.00000000000E+00 0. -1.
          1    1    6    6  503    0  0.84213107226E+02 -0.52267040964E+03  0.15871768324E+03  0.55269115021E+03  0.00000000000E+00 0. -1.
         -1    1    6    6    0  503  0.81586868836E+02 -0.58756881776E+03  0.28519484242E+03  0.65820181625E+03  0.00000000000E+00 0.  1.
<mgrwt>
<rscale>  0 0.26033148E+04</rscale>
<asrwt>0</asrwt>
<pdfrwt beam="1">  1        2 0.46820433E+00 0.26033148E+04</pdfrwt>
<pdfrwt beam="2">  1       -1 0.85650765E-01 0.26033148E+04</pdfrwt>
<totfact> 0.22136793E+00</totfact>
</mgrwt>
</event>
<event>
12    6  0.1553355E-007  0.2601984E+04  0.7818608E-02  0.8367527E-01
          2   -1    0    0  501    0  0.00000000000E+00  0.00000000000E+00  0.27233798807E+04  0.27233798807E+04  0.00000000000E+00 0. -1.
         -1   -1    0    0    0  501 -0.00000000000E+00 -0.00000000000E+00 -0.62150007648E+03  0.62150007648E+03  0.00000000000E+00 0.  1.
         24    2    1    2    0    0  0.75871994946E+03  0.84556879234E+03  0.10202841627E+04  0.15290449794E+04  0.79725980252E+02 0.  0.
        254    2    1    2    0    0 -0.75871994946E+03 -0.84556879234E+03  0.10815956415E+04  0.18158349778E+04  0.91474859421E+03 0.  0.
         23    2    4    4    0    0  0.71209060570E+02 -0.12387361207E+03  0.57805725389E+03  0.60272303140E+03  0.93324496985E+02 0.  0.
         23    2    4    4    0    0 -0.82992901003E+03 -0.72169518027E+03  0.50353838758E+03  0.12131119464E+04  0.91997781329E+02 0.  0.
          4    1    3    3  502    0  0.14996353818E+03  0.21218021043E+03  0.25273558261E+03  0.36247038389E+03  0.00000000000E+00 0. -1.
         -3    1    3    3    0  502  0.60875641128E+03  0.63338858191E+03  0.76754858013E+03  0.11665745955E+04  0.00000000000E+00 0.  1.
         11    1    5    5    0    0  0.48106262104E+02 -0.11564956264E+03  0.32215553316E+03  0.34564898573E+03  0.00000000000E+00 0.  1.
        -11    1    5    5    0    0  0.23102798466E+02 -0.82240494286E+01  0.25590172073E+03  0.25707404567E+03  0.00000000000E+00 0. -1.
          4    1    6    6  503    0 -0.22523125511E+03 -0.23969908707E+03  0.12193421424E+03  0.35078871593E+03  0.00000000000E+00 0. -1.
         -4    1    6    6    0  503 -0.60469775492E+03 -0.48199609320E+03  0.38160417334E+03  0.86232323045E+03  0.00000000000E+00 0.  1.
<mgrwt>
<rscale>  0 0.26019845E+04</rscale>
<asrwt>0</asrwt>
<pdfrwt beam="1">  1        2 0.41898151E+00 0.26019845E+04</pdfrwt>
<pdfrwt beam="2">  1       -1 0.95615398E-01 0.26019845E+04</pdfrwt>
<totfact> 0.27283910E+00</totfact>
</mgrwt>
</event>
<event>
12    6  0.1553355E-007  0.1201797E+04  0.7818608E-02  0.9111285E-01
          2   -1    0    0  501    0  0.00000000000E+00  0.00000000000E+00  0.14782748247E+04  0.14782748247E+04  0.00000000000E+00 0. -1.
         -3   -1    0    0    0  501 -0.00000000000E+00 -0.00000000000E+00 -0.24425690468E+03  0.24425690468E+03  0.00000000000E+00 0.  1.
         24    2    1    2    0    0  0.34438171150E+02  0.31979134260E+02  0.63232380533E+03  0.63908105989E+03  0.79890886039E+02 0.  0.
        254    2    1    2    0    0 -0.34438171150E+02 -0.31979134260E+02  0.60169411472E+03  0.10834506695E+04  0.89978936030E+03 0.  0.
         23    2    4    4    0    0  0.14854043549E+02 -0.43066503594E+03  0.13373607372E+03  0.46005036078E+03  0.89821941891E+02 0.  0.
         23    2    4    4    0    0 -0.49292214699E+02  0.39868590168E+03  0.46795804100E+03  0.62340030874E+03  0.90901299024E+02 0.  0.
          4    1    3    3  502    0  0.21042731815E+02  0.54423909531E+02  0.53953244823E+03  0.54267856156E+03  0.00000000000E+00 0. -1.
         -3    1    3    3    0  502  0.13395439335E+02 -0.22444775271E+02  0.92791357100E+02  0.96402498330E+02  0.00000000000E+00 0.  1.
         11    1    5    5    0    0  0.45911917886E+02 -0.35671045900E+03  0.11604733451E+03  0.37791168229E+03  0.00000000000E+00 0.  1.
        -11    1    5    5    0    0 -0.31057874337E+02 -0.73954576938E+02  0.17688739213E+02  0.82138678486E+02  0.00000000000E+00 0. -1.
          1    1    6    6  503    0  0.17680054753E+02  0.19587493090E+03  0.19678307851E+03  0.27821422120E+03  0.00000000000E+00 0. -1.
         -1    1    6    6    0  503 -0.66972269451E+02  0.20281097078E+03  0.27117496249E+03  0.34518608754E+03  0.00000000000E+00 0.  1.
<mgrwt>
<rscale>  0 0.12017967E+04</rscale>
<asrwt>0</asrwt>
<pdfrwt beam="1">  1        2 0.22742689E+00 0.12017967E+04</pdfrwt>
<pdfrwt beam="2">  1       -3 0.37577986E-01 0.12017967E+04</pdfrwt>
<totfact> 0.58141538E+01</totfact>
</mgrwt>
</event>
<event>
12    6  0.1553355E-007  0.4057797E+04  0.7818608E-02  0.7992987E-01
          2   -1    0    0  501    0  0.00000000000E+00  0.00000000000E+00  0.22429474226E+04  0.22429474226E+04  0.00000000000E+00 0. -1.
         -1   -1    0    0    0  501 -0.00000000000E+00 -0.00000000000E+00 -0.18352768251E+04  0.18352768251E+04  0.00000000000E+00 0.  1.
         24    2    1    2    0    0  0.12720985260E+04 -0.10183659159E+03  0.16452907716E+04  0.20837272851E+04  0.79575902915E+02 0.  0.
        254    2    1    2    0    0 -0.12720985260E+04  0.10183659159E+03 -0.12376201740E+04  0.19944969626E+04  0.90427268422E+03 0.  0.
         23    2    4    4    0    0 -0.10191635181E+04 -0.91658504436E+00 -0.38313282750E+03  0.10926412620E+04  0.91537135404E+02 0.  0.
         23    2    4    4    0    0 -0.25293500790E+03  0.10275317663E+03 -0.85448734651E+03  0.90185570060E+03  0.93063128169E+02 0.  0.
          4    1    3    3  502    0  0.64108566685E+03 -0.67654783025E+02  0.88996719503E+03  0.10989129220E+04  0.00000000000E+00 0. -1.
         -1    1    3    3    0  502  0.63101285914E+03 -0.34181808564E+02  0.75532357654E+03  0.98481436307E+03  0.00000000000E+00 0.  1.
         11    1    5    5    0    0 -0.26900538107E+03  0.71451190593E+01 -0.59444090132E+02  0.27558764055E+03  0.00000000000E+00 0. -1.
        -11    1    5    5    0    0 -0.75015813702E+03 -0.80617041036E+01 -0.32368873737E+03  0.81705362144E+03  0.00000000000E+00 0.  1.
          2    1    6    6  503    0 -0.42828559452E+02  0.17220119754E+02 -0.60509137212E+02  0.76106331638E+02  0.00000000000E+00 0. -1.
         -2    1    6    6    0  503 -0.21010644845E+03  0.85533056879E+02 -0.79397820930E+03  0.82574936896E+03  0.00000000000E+00 0.  1.
<mgrwt>
<rscale>  0 0.40577971E+04</rscale>
<asrwt>0</asrwt>
<pdfrwt beam="1">  1        2 0.34506884E+00 0.40577971E+04</pdfrwt>
<pdfrwt beam="2">  1       -1 0.28235028E+00 0.40577971E+04</pdfrwt>
<totfact> 0.18742020E-01</totfact>
</mgrwt>
</event>
<event>
12    6  0.1553355E-007  0.1079434E+04  0.7818608E-02  0.9225472E-01
         -1   -1    0    0    0  501 -0.00000000000E+00  0.00000000000E+00  0.13779534686E+03  0.13779534686E+03  0.00000000000E+00 0.  1.
          2   -1    0    0  501    0  0.00000000000E+00 -0.00000000000E+00 -0.21139628265E+04  0.21139628265E+04  0.00000000000E+00 0. -1.
         24    2    1    2    0    0  0.58541422489E+01  0.16974813945E+02 -0.64585385623E+03  0.65058411527E+03  0.76223829238E+02 0.  0.
        254    2    1    2    0    0 -0.58541422489E+01 -0.16974813945E+02 -0.13303136234E+04  0.16011740581E+04  0.89089932788E+03 0.  0.
         23    2    4    4    0    0 -0.36922098647E+03  0.22740935933E+03 -0.67388712735E+03  0.80672754976E+03  0.92985620164E+02 0.  0.
         23    2    4    4    0    0  0.36336684422E+03 -0.24438417328E+03 -0.65642649606E+03  0.79444650835E+03  0.92143487362E+02 0.  0.
          2    1    3    3  502    0  0.12168377652E+02  0.37807117959E+02 -0.57713238505E+03  0.57849739624E+03  0.00000000000E+00 0. -1.
         -1    1    3    3    0  502 -0.63142354033E+01 -0.20832304014E+02 -0.68721471181E+02  0.72086719030E+02  0.00000000000E+00 0.  1.
         11    1    5    5    0    0 -0.27317046261E+03  0.20308442138E+03 -0.47315429243E+03  0.58287251462E+03  0.00000000000E+00 0. -1.
        -11    1    5    5    0    0 -0.96050523858E+02  0.24324937953E+02 -0.20073283492E+03  0.22385503514E+03  0.00000000000E+00 0.  1.
          2    1    6    6  503    0  0.26339108169E+03 -0.16795859445E+03 -0.53529444917E+03  0.61977826573E+03  0.00000000000E+00 0. -1.
         -2    1    6    6    0  503  0.99975762535E+02 -0.76425578833E+02 -0.12113204690E+03  0.17466824262E+03  0.00000000000E+00 0.  1.
<mgrwt>
<rscale>  0 0.10794336E+04</rscale>
<asrwt>0</asrwt>
<pdfrwt beam="1">  1        2 0.32522504E+00 0.10794336E+04</pdfrwt>
<pdfrwt beam="2">  1       -1 0.21199285E-01 0.10794336E+04</pdfrwt>
<totfact> 0.12164943E+02</totfact>
</mgrwt>
</event>
<event>
12    6  0.1553355E-007  0.1768115E+04  0.7818608E-02  0.8723441E-01
         -1   -1    0    0    0  501 -0.00000000000E+00  0.00000000000E+00  0.55671538363E+03  0.55671538363E+03  0.00000000000E+00 0.  1.
          2   -1    0    0  501    0  0.00000000000E+00 -0.00000000000E+00 -0.14038736377E+04  0.14038736377E+04  0.00000000000E+00 0. -1.
         24    2    1    2    0    0  0.41220194938E+03 -0.50419818439E+03 -0.30694582833E+03  0.72458371230E+03  0.81728565297E+02 0.  0.
        254    2    1    2    0    0 -0.41220194938E+03  0.50419818439E+03 -0.54021242574E+03  0.12360053090E+04  0.90097358609E+03 0.  0.
         23    2    4    4    0    0 -0.42652318889E+03  0.70907418112E+03 -0.24858147461E+03  0.86861081763E+03  0.89351989318E+02 0.  0.
         23    2    4    4    0    0  0.14321239505E+02 -0.20487599673E+03 -0.29163095113E+03  0.36739449140E+03  0.88038791002E+02 0.  0.
          2    1    3    3  502    0  0.26570493090E+03 -0.33920641661E+03 -0.24383531062E+03  0.49509167038E+03  0.00000000000E+00 0. -1.
         -1    1    3    3    0  502  0.14649701849E+03 -0.16499176778E+03 -0.63110517710E+02  0.22949204192E+03  0.00000000000E+00 0.  1.
         11    1    5    5    0    0 -0.20341479513E+03  0.25867046243E+03 -0.11418756024E+03  0.34831994764E+03  0.00000000000E+00 0. -1.
        -11    1    5    5    0    0 -0.22310839376E+03  0.45040371869E+03 -0.13439391437E+03  0.52029086999E+03  0.00000000000E+00 0.  1.
          1    1    6    6  503    0  0.47937708342E+02 -0.92009052779E+02 -0.11266870368E+03  0.15315980695E+03  0.00000000000E+00 0. -1.
         -1    1    6    6    0  503 -0.33616468837E+02 -0.11286694395E+03 -0.17896224744E+03  0.21423468446E+03  0.00000000000E+00 0.  1.
<mgrwt>
<rscale>  0 0.17681154E+04</rscale>
<asrwt>0</asrwt>
<pdfrwt beam="1">  1        2 0.21598056E+00 0.17681154E+04</pdfrwt>
<pdfrwt beam="2">  1       -1 0.85648521E-01 0.17681154E+04</pdfrwt>
<totfact> 0.20913807E+01</totfact>
</mgrwt>
</event>
<event>
12    6  0.1553355E-007  0.2040448E+04  0.7818608E-02  0.8587940E-01
          2   -1    0    0  501    0  0.00000000000E+00  0.00000000000E+00  0.19327567210E+04  0.19327567210E+04  0.00000000000E+00 0. -1.
         -1   -1    0    0    0  501 -0.00000000000E+00 -0.00000000000E+00 -0.53853496598E+03  0.53853496598E+03  0.00000000000E+00 0.  1.
         24    2    1    2    0    0 -0.45125751353E+03  0.33506080900E+03  0.13017621093E+04  0.14201746684E+04  0.80077526406E+02 0.  0.
        254    2    1    2    0    0  0.45125751353E+03 -0.33506080900E+03  0.92459645670E+02  0.10511170186E+04  0.88340201006E+03 0.  0.
         23    2    4    4    0    0 -0.83807860782E+02 -0.40964440618E+03  0.23217283559E+03  0.48582094149E+03  0.85354932877E+02 0.  0.
         23    2    4    4    0    0  0.53506537431E+03  0.74583597178E+02 -0.13971318992E+03  0.56529607707E+03  0.90455577789E+02 0.  0.
          2    1    3    3  502    0 -0.27766747140E+03  0.22228574435E+03  0.91089541978E+03  0.97787557623E+03  0.00000000000E+00 0. -1.
         -1    1    3    3    0  502 -0.17359004213E+03  0.11277506465E+03  0.39086668954E+03  0.44229909216E+03  0.00000000000E+00 0.  1.
         11    1    5    5    0    0 -0.81818762954E+02 -0.29183052523E+03  0.12971496860E+03  0.32967459487E+03  0.00000000000E+00 0. -1.
        -11    1    5    5    0    0 -0.19890978282E+01 -0.11781388095E+03  0.10245786699E+03  0.15614634662E+03  0.00000000000E+00 0.  1.
          4    1    6    6  503    0  0.48966225127E+03  0.57002202575E+02 -0.10127706514E+03  0.50326475670E+03  0.00000000000E+00 0. -1.
         -4    1    6    6    0  503  0.45403123048E+02  0.17581394603E+02 -0.38436124775E+02  0.62031320366E+02  0.00000000000E+00 0.  1.
<mgrwt>
<rscale>  0 0.20404481E+04</rscale>
<asrwt>0</asrwt>
<pdfrwt beam="1">  1        2 0.29734718E+00 0.20404481E+04</pdfrwt>
<pdfrwt beam="2">  1       -1 0.82851534E-01 0.20404481E+04</pdfrwt>
<totfact> 0.11109317E+01</totfact>
</mgrwt>
</event>
<event>
12    6  0.1553355E-007  0.1582801E+04  0.7818608E-02  0.8831184E-01
         -1   -1    0    0    0  501 -0.00000000000E+00  0.00000000000E+00  0.21722234199E+03  0.21722234199E+03  0.00000000000E+00 0.  1.
          2   -1    0    0  501    0  0.00000000000E+00 -0.00000000000E+00 -0.28832876715E+04  0.28832876715E+04  0.00000000000E+00 0. -1.
         24    2    1    2    0    0 -0.20860212244E+03  0.33732998808E+03 -0.16416034035E+04  0.16907583350E+04  0.80595573954E+02 0.  0.
        254    2    1    2    0    0  0.20860212244E+03 -0.33732998808E+03 -0.10244619260E+04  0.14097516785E+04  0.88349940061E+03 0.  0.
         23    2    4    4    0    0  0.42217715043E+03  0.12330470968E+03 -0.41185219728E+03  0.60927557956E+03  0.90315567134E+02 0.  0.
         23    2    4    4    0    0 -0.21357502799E+03 -0.46063469776E+03 -0.61260972873E+03  0.80047609895E+03  0.87593880507E+02 0.  0.
          4    1    3    3  502    0 -0.18978486081E+03  0.31534956742E+03 -0.14056205162E+04  0.14530081481E+04  0.00000000000E+00 0. -1.
         -3    1    3    3    0  502 -0.18817261623E+02  0.21980420661E+02 -0.23598288734E+03  0.23775018684E+03  0.00000000000E+00 0.  1.
         11    1    5    5    0    0  0.40078192199E+03  0.11179196481E+03 -0.35315620905E+03  0.54574985147E+03  0.00000000000E+00 0. -1.
        -11    1    5    5    0    0  0.21395228434E+02  0.11512744869E+02 -0.58695988228E+02  0.63525728081E+02  0.00000000000E+00 0.  1.
          2    1    6    6  503    0 -0.21704989342E+03 -0.43051993937E+03 -0.55348255369E+03  0.73403066126E+03  0.00000000000E+00 0. -1.
         -2    1    6    6    0  503  0.34748654248E+01 -0.30114758389E+02 -0.59127175040E+02  0.66445437697E+02  0.00000000000E+00 0.  1.
<mgrwt>
<rscale>  0 0.15828007E+04</rscale>
<asrwt>0</asrwt>
<pdfrwt beam="1">  1        2 0.44358268E+00 0.15828007E+04</pdfrwt>
<pdfrwt beam="2">  1       -1 0.33418825E-01 0.15828007E+04</pdfrwt>
<totfact> 0.19055901E+01</totfact>
</mgrwt>
</event>
<event>
12    6  0.1553355E-007  0.1312816E+04  0.7818608E-02  0.9019463E-01
         -1   -1    0    0    0  501 -0.00000000000E+00  0.00000000000E+00  0.16274580764E+03  0.16274580764E+03  0.00000000000E+00 0.  1.
          2   -1    0    0  501    0  0.00000000000E+00 -0.00000000000E+00 -0.26475116332E+04  0.26475116332E+04  0.00000000000E+00 0. -1.
         24    2    1    2    0    0 -0.96454762365E+02  0.43900465774E+02 -0.13892451176E+04  0.13955662865E+04  0.79827884182E+02 0.  0.
        254    2    1    2    0    0  0.96454762365E+02 -0.43900465774E+02 -0.10955207080E+04  0.14146911544E+04  0.88879394046E+03 0.  0.
         23    2    4    4    0    0 -0.30057648830E+03  0.21723679350E+03 -0.31907173149E+03  0.49977040584E+03  0.10210601815E+03 0.  0.
         23    2    4    4    0    0  0.39703125067E+03 -0.26113725927E+03 -0.77644897646E+03  0.91492074853E+03  0.91544966255E+02 0.  0.
          4    1    3    3  502    0 -0.82966832271E+02 -0.12174354991E+01 -0.10114067045E+04  0.10148046606E+04  0.00000000000E+00 0. -1.
         -3    1    3    3    0  502 -0.13487930094E+02  0.45117901273E+02 -0.37783841314E+03  0.38076162584E+03  0.00000000000E+00 0.  1.
         11    1    5    5    0    0 -0.24856573183E+03  0.12818347990E+03 -0.21059352575E+03  0.35009364553E+03  0.00000000000E+00 0.  1.
        -11    1    5    5    0    0 -0.52010756477E+02  0.89053313602E+02 -0.10847820575E+03  0.14967676030E+03  0.00000000000E+00 0. -1.
          1    1    6    6  503    0  0.35521764637E+03 -0.25453625752E+03 -0.66531581003E+03  0.79599837296E+03  0.00000000000E+00 0. -1.
         -1    1    6    6    0  503  0.41813604301E+02 -0.66010017590E+01 -0.11113316644E+03  0.11892237557E+03  0.00000000000E+00 0.  1.
<mgrwt>
<rscale>  0 0.13128159E+04</rscale>
<asrwt>0</asrwt>
<pdfrwt beam="1">  1        2 0.40730944E+00 0.13128159E+04</pdfrwt>
<pdfrwt beam="2">  1       -1 0.25037819E-01 0.13128159E+04</pdfrwt>
<totfact> 0.44738068E+01</totfact>
</mgrwt>
</event>
<event>
12    6  0.1553355E-007  0.1201170E+04  0.7818608E-02  0.9111833E-01
          2   -1    0    0  501    0  0.00000000000E+00  0.00000000000E+00  0.10566401619E+04  0.10566401619E+04  0.00000000000E+00 0. -1.
         -1   -1    0    0    0  501 -0.00000000000E+00 -0.00000000000E+00 -0.34136723118E+03  0.34136723118E+03  0.00000000000E+00 0.  1.
         24    2    1    2    0    0 -0.20476970104E+03  0.11323434382E+03  0.24896214412E+03  0.35194751664E+03  0.84452697863E+02 0.  0.
        254    2    1    2    0    0  0.20476970104E+03 -0.11323434382E+03  0.46631078657E+03  0.10460598764E+04  0.90666579747E+03 0.  0.
         23    2    4    4    0    0 -0.28489377136E+03 -0.16998285859E+03  0.41955117502E+03  0.54272614302E+03  0.92031759142E+02 0.  0.
         23    2    4    4    0    0  0.48966347240E+03  0.56748514776E+02  0.46759611553E+02  0.50333373339E+03  0.90375194441E+02 0.  0.
          4    1    3    3  502    0 -0.52625213075E+01 -0.52333985597E+01  0.36805184351E+02  0.37546027568E+02  0.00000000000E+00 0. -1.
         -3    1    3    3    0  502 -0.19950717973E+03  0.11846774238E+03  0.21215695977E+03  0.31440148907E+03  0.00000000000E+00 0.  1.
         11    1    5    5    0    0 -0.22630612042E+03 -0.15000078436E+03  0.38713320622E+03  0.47284967464E+03  0.00000000000E+00 0. -1.
        -11    1    5    5    0    0 -0.58587650942E+02 -0.19982074230E+02  0.32417968800E+02  0.69876468389E+02  0.00000000000E+00 0.  1.
          1    1    6    6  503    0  0.31129224592E+03 -0.73359683787E+01  0.21437906570E+02  0.31211578403E+03  0.00000000000E+00 0. -1.
         -1    1    6    6    0  503  0.17837122648E+03  0.64084483154E+02  0.25321704982E+02  0.19121794937E+03  0.00000000000E+00 0.  1.
<mgrwt>
<rscale>  0 0.12011700E+04</rscale>
<asrwt>0</asrwt>
<pdfrwt beam="1">  1        2 0.16256002E+00 0.12011700E+04</pdfrwt>
<pdfrwt beam="2">  1       -1 0.52518036E-01 0.12011700E+04</pdfrwt>
<totfact> 0.95287166E+01</totfact>
</mgrwt>
</event>
<event>
12    6  0.1553355E-007  0.2179463E+04  0.7818608E-02  0.8527025E-01
         -1   -1    0    0    0  501 -0.00000000000E+00  0.00000000000E+00  0.51837078799E+03  0.51837078799E+03  0.00000000000E+00 0.  1.
          2   -1    0    0  501    0  0.00000000000E+00 -0.00000000000E+00 -0.22908592504E+04  0.22908592504E+04  0.00000000000E+00 0. -1.
         24    2    1    2    0    0 -0.43137244057E+03  0.62416793214E+03 -0.13847374731E+04  0.15810221928E+04  0.80408425064E+02 0.  0.
        254    2    1    2    0    0  0.43137244057E+03 -0.62416793214E+03 -0.38775098928E+03  0.12282078455E+04  0.88457667397E+03 0.  0.
         23    2    4    4    0    0  0.34142635890E+03  0.12411365451E+03 -0.26736268117E+03  0.45951281961E+03  0.87710149423E+02 0.  0.
         23    2    4    4    0    0  0.89946081670E+02 -0.74828158665E+03 -0.12038830811E+03  0.76869502592E+03  0.91559093563E+02 0.  0.
          4    1    3    3  502    0 -0.28871499996E+03  0.39830108044E+03 -0.81907427349E+03  0.95544898732E+03  0.00000000000E+00 0. -1.
         -3    1    3    3    0  502 -0.14265744061E+03  0.22586685171E+03 -0.56566319960E+03  0.62557320551E+03  0.00000000000E+00 0.  1.
         11    1    5    5    0    0  0.18920567252E+02  0.33739429601E+02 -0.31172205908E+02  0.49679406157E+02  0.00000000000E+00 0. -1.
        -11    1    5    5    0    0  0.32250579165E+03  0.90374224910E+02 -0.23619047526E+03  0.40983341345E+03  0.00000000000E+00 0.  1.
          1    1    6    6  503    0  0.50271505801E+02 -0.19288972966E+03 -0.62423810491E+02  0.20887892239E+03  0.00000000000E+00 0. -1.
         -1    1    6    6    0  503  0.39674575869E+02 -0.55539185700E+03 -0.57964497620E+02  0.55981610353E+03  0.00000000000E+00 0.  1.
<mgrwt>
<rscale>  0 0.21794628E+04</rscale>
<asrwt>0</asrwt>
<pdfrwt beam="1">  1        2 0.35243988E+00 0.21794628E+04</pdfrwt>
<pdfrwt beam="2">  1       -1 0.79749353E-01 0.21794628E+04</pdfrwt>
<totfact> 0.75072458E+00</totfact>
</mgrwt>
</event>
<event>
12    6  0.1553355E-007  0.1563137E+04  0.7818608E-02  0.8843520E-01
         -3   -1    0    0    0  501 -0.00000000000E+00  0.00000000000E+00  0.13497069571E+04  0.13497069571E+04  0.00000000000E+00 0.  1.
          4   -1    0    0  501    0  0.00000000000E+00 -0.00000000000E+00 -0.45257905925E+03  0.45257905925E+03  0.00000000000E+00 0. -1.
         24    2    1    2    0    0  0.49583017208E+03 -0.15626700669E+03  0.29792835183E+03  0.60451245652E+03  0.80044177385E+02 0.  0.
        254    2    1    2    0    0 -0.49583017208E+03  0.15626700669E+03  0.59919954598E+03  0.11977735598E+04  0.89741543764E+03 0.  0.
         23    2    4    4    0    0  0.31752412452E+02 -0.12823654664E+03  0.56830192039E+03  0.59061885310E+03  0.91710028511E+02 0.  0.
         23    2    4    4    0    0 -0.52758258453E+03  0.28450355333E+03  0.30897625585E+02  0.60715470669E+03  0.91632522776E+02 0.  0.
          2    1    3    3  502    0  0.11887656633E+03 -0.67210374325E+01  0.49585013781E+02  0.12897861822E+03  0.00000000000E+00 0. -1.
         -1    1    3    3    0  502  0.37695360575E+03 -0.14954596926E+03  0.24834333805E+03  0.47553383829E+03  0.00000000000E+00 0.  1.
         11    1    5    5    0    0 -0.60209897806E+00  0.31698922781E+01 -0.24441866491E+01  0.40478128180E+01  0.00000000000E+00 0. -1.
        -11    1    5    5    0    0  0.32354511430E+02 -0.13140643892E+03  0.57074610704E+03  0.58657104028E+03  0.00000000000E+00 0.  1.
          1    1    6    6  503    0 -0.16766787421E+02 -0.18702557697E+01 -0.10844841149E+02  0.20055762179E+02  0.00000000000E+00 0. -1.
         -1    1    6    6    0  503 -0.51081579711E+03  0.28637380910E+03  0.41742466734E+02  0.58709894451E+03  0.00000000000E+00 0.  1.
<mgrwt>
<rscale>  0 0.15631367E+04</rscale>
<asrwt>0</asrwt>
<pdfrwt beam="1">  1        4 0.69627548E-01 0.15631367E+04</pdfrwt>
<pdfrwt beam="2">  1       -3 0.20764722E+00 0.15631367E+04</pdfrwt>
<totfact> 0.54721044E-01</totfact>
</mgrwt>
</event>
<event>
12    6  0.1553355E-007  0.1881838E+04  0.7818608E-02  0.8663950E-01
          2   -1    0    0  501    0  0.00000000000E+00  0.00000000000E+00  0.70012829703E+03  0.70012829703E+03  0.00000000000E+00 0. -1.
         -1   -1    0    0    0  501 -0.00000000000E+00 -0.00000000000E+00 -0.12645230752E+04  0.12645230752E+04  0.00000000000E+00 0.  1.
         24    2    1    2    0    0  0.15270517411E+03 -0.32626306473E+03 -0.87604171543E+03  0.95068395902E+03  0.81144594183E+02 0.  0.
        254    2    1    2    0    0 -0.15270517411E+03  0.32626306473E+03  0.31164693725E+03  0.10139674132E+04  0.89511990481E+03 0.  0.
         23    2    4    4    0    0 -0.31412166174E+03  0.41963518785E+03 -0.11013440839E+03  0.54334390779E+03  0.91251876499E+02 0.  0.
         23    2    4    4    0    0  0.16141648764E+03 -0.93372123121E+02  0.42178134564E+03  0.47062350543E+03  0.93879414573E+02 0.  0.
          2    1    3    3  502    0 -0.75272806260E+01 -0.34972241304E+01 -0.29318091965E+02  0.30470330597E+02  0.00000000000E+00 0. -1.
         -1    1    3    3    0  502  0.16023245473E+03 -0.32276584060E+03 -0.84672362346E+03  0.92021362842E+03  0.00000000000E+00 0.  1.
         11    1    5    5    0    0  0.53320841618E+01  0.15673145403E+02 -0.76406965185E+01  0.18233454188E+02  0.00000000000E+00 0.  1.
        -11    1    5    5    0    0 -0.31945374591E+03  0.40396204245E+03 -0.10249371187E+03  0.52511045360E+03  0.00000000000E+00 0. -1.
          1    1    6    6  503    0  0.55455127795E+02 -0.54120200078E+02  0.83250099040E+02  0.11373146550E+03  0.00000000000E+00 0.  1.
         -1    1    6    6    0  503  0.10596135984E+03 -0.39251923043E+02  0.33853124660E+03  0.35689203993E+03  0.00000000000E+00 0. -1.
<mgrwt>
<rscale>  0 0.18818378E+04</rscale>
<asrwt>0</asrwt>
<pdfrwt beam="1">  1        2 0.10771205E+00 0.18818378E+04</pdfrwt>
<pdfrwt beam="2">  1       -1 0.19454201E+00 0.18818378E+04</pdfrwt>
<totfact> 0.72028117E+00</totfact>
</mgrwt>
</event>
<event>
12    6  0.1553355E-007  0.2149369E+04  0.7818608E-02  0.8539803E-01
          2   -1    0    0  501    0  0.00000000000E+00  0.00000000000E+00  0.13433150788E+04  0.13433150788E+04  0.00000000000E+00 0. -1.
         -1   -1    0    0    0  501 -0.00000000000E+00 -0.00000000000E+00 -0.85977330343E+03  0.85977330343E+03  0.00000000000E+00 0.  1.
         24    2    1    2    0    0  0.75875539417E+03 -0.45854790679E+03  0.24970387937E+03  0.92446739727E+03  0.79448160795E+02 0.  0.
        254    2    1    2    0    0 -0.75875539417E+03  0.45854790679E+03  0.23383789600E+03  0.12786209850E+04  0.89118770783E+03 0.  0.
         23    2    4    4    0    0 -0.88651461226E+03  0.47717402256E+03  0.18699974905E+02  0.10113182102E+04  0.93870270705E+02 0.  0.
         23    2    4    4    0    0  0.12775921809E+03 -0.18626115769E+02  0.21513792110E+03  0.26730277474E+03  0.92179706509E+02 0.  0.
          2    1    3    3  502    0  0.72011669455E+03 -0.45379280971E+03  0.23837191463E+03  0.88392145442E+03  0.00000000000E+00 0. -1.
         -1    1    3    3    0  502  0.38638699619E+02 -0.47550970758E+01  0.11331964747E+02  0.40545942849E+02  0.00000000000E+00 0.  1.
         11    1    5    5    0    0 -0.43010577972E+03  0.17842812705E+03  0.64929777059E+01  0.46569274960E+03  0.00000000000E+00 0. -1.
        -11    1    5    5    0    0 -0.45640883254E+03  0.29874589551E+03  0.12206997199E+02  0.54562546063E+03  0.00000000000E+00 0.  1.
          1    1    6    6  503    0  0.99467036792E+02 -0.35481739914E+02  0.20848288417E+03  0.23370442501E+03  0.00000000000E+00 0. -1.
         -1    1    6    6    0  503  0.28292181301E+02  0.16855624144E+02  0.66550369239E+01  0.33598349729E+02  0.00000000000E+00 0.  1.
<mgrwt>
<rscale>  0 0.21493687E+04</rscale>
<asrwt>0</asrwt>
<pdfrwt beam="1">  1        2 0.20666386E+00 0.21493687E+04</pdfrwt>
<pdfrwt beam="2">  1       -1 0.13227282E+00 0.21493687E+04</pdfrwt>
<totfact> 0.79200404E+00</totfact>
</mgrwt>
</event>
<event>
12    6  0.1553355E-007  0.1309130E+04  0.7818608E-02  0.9022356E-01
         -1   -1    0    0    0  501 -0.00000000000E+00  0.00000000000E+00  0.74117206383E+03  0.74117206383E+03  0.00000000000E+00 0.  1.
          2   -1    0    0  501    0  0.00000000000E+00 -0.00000000000E+00 -0.57807773672E+03  0.57807773672E+03  0.00000000000E+00 0. -1.
         24    2    1    2    0    0  0.17554695765E+03  0.66832041104E+02 -0.23653221981E+03  0.31238982357E+03  0.79728632261E+02 0.  0.
        254    2    1    2    0    0 -0.17554695765E+03 -0.66832041104E+02  0.39962654691E+03  0.10068599770E+04  0.90486594598E+03 0.  0.
         23    2    4    4    0    0 -0.29460723839E+01 -0.37682039862E+03  0.49278211601E+03  0.62767946457E+03  0.95629515452E+02 0.  0.
         23    2    4    4    0    0 -0.17260088527E+03  0.30998835752E+03 -0.93155569098E+02  0.37918051242E+03  0.96000278909E+02 0.  0.
          2    1    3    3  502    0  0.14950156576E+03  0.22894513603E+02 -0.19354410110E+03  0.24563020170E+03  0.00000000000E+00 0. -1.
         -1    1    3    3    0  502  0.26045391897E+02  0.43937527501E+02 -0.42988118710E+02  0.66759621869E+02  0.00000000000E+00 0.  1.
         11    1    5    5    0    0  0.11208749161E+02 -0.19569859952E+03  0.32957547870E+03  0.38346261104E+03  0.00000000000E+00 0.  1.
        -11    1    5    5    0    0 -0.14154821545E+02 -0.18112179910E+03  0.16320663731E+03  0.24421685353E+03  0.00000000000E+00 0. -1.
          3    1    6    6  503    0 -0.11213552589E+02  0.92514729567E+02 -0.12645236381E+01  0.93200418285E+02  0.00000000000E+00 0. -1.
         -3    1    6    6    0  503 -0.16138733268E+03  0.21747362795E+03 -0.91891045460E+02  0.28598009413E+03  0.00000000000E+00 0.  1.
<mgrwt>
<rscale>  0 0.13091296E+04</rscale>
<asrwt>0</asrwt>
<pdfrwt beam="1">  1        2 0.88935036E-01 0.13091296E+04</pdfrwt>
<pdfrwt beam="2">  1       -1 0.11402647E+00 0.13091296E+04</pdfrwt>
<totfact> 0.40704815E+01</totfact>
</mgrwt>
</event>
<event>
12    6  0.1553355E-007  0.1987947E+04  0.7818608E-02  0.8612277E-01
          2   -1    0    0  501    0  0.00000000000E+00  0.00000000000E+00  0.85606819608E+03  0.85606819608E+03  0.00000000000E+00 0. -1.
         -1   -1    0    0    0  501 -0.00000000000E+00 -0.00000000000E+00 -0.11540939578E+04  0.11540939578E+04  0.00000000000E+00 0.  1.
         24    2    1    2    0    0 -0.50901676524E+03 -0.21447732153E+02 -0.73473635257E+03  0.89716333493E+03  0.74205587729E+02 0.  0.
        254    2    1    2    0    0  0.50901676524E+03  0.21447732153E+02  0.43671059087E+03  0.11129988189E+04  0.88797080937E+03 0.  0.
         23    2    4    4    0    0  0.33260281790E+03  0.38923103142E+03  0.16616250326E+02  0.52032318352E+03  0.91294497288E+02 0.  0.
         23    2    4    4    0    0  0.17641394734E+03 -0.36778329927E+03  0.42009434054E+03  0.59267563542E+03  0.91644518839E+02 0.  0.
          4    1    3    3  502    0 -0.22737599394E+02  0.14508481513E+02 -0.45283446615E+02  0.52707542149E+02  0.00000000000E+00 0. -1.
         -3    1    3    3    0  502 -0.48627916584E+03 -0.35956213667E+02 -0.68945290595E+03  0.84445579278E+03  0.00000000000E+00 0.  1.
         11    1    5    5    0    0  0.14664967560E+03  0.10535725020E+03  0.25179079228E+00  0.18057225955E+03  0.00000000000E+00 0. -1.
        -11    1    5    5    0    0  0.18595314230E+03  0.28387378122E+03  0.16364459533E+02  0.33975092396E+03  0.00000000000E+00 0.  1.
          4    1    6    6  503    0  0.40072060324E+02 -0.25396292297E+02  0.68514204166E+02  0.83336293735E+02  0.00000000000E+00 0. -1.
         -4    1    6    6    0  503  0.13634188702E+03 -0.34238700697E+03  0.35158013637E+03  0.50933934169E+03  0.00000000000E+00 0.  1.
<mgrwt>
<rscale>  0 0.19879468E+04</rscale>
<asrwt>0</asrwt>
<pdfrwt beam="1">  1        2 0.13170280E+00 0.19879468E+04</pdfrwt>
<pdfrwt beam="2">  1       -1 0.17755292E+00 0.19879468E+04</pdfrwt>
<totfact> 0.72289896E+00</totfact>
</mgrwt>
</event>
<event>
12    6  0.1553355E-007  0.1415784E+04  0.7818608E-02  0.8942472E-01
         -1   -1    0    0    0  501 -0.00000000000E+00  0.00000000000E+00  0.66102091034E+03  0.66102091034E+03  0.00000000000E+00 0.  1.
          2   -1    0    0  501    0  0.00000000000E+00 -0.00000000000E+00 -0.75808698066E+03  0.75808698066E+03  0.00000000000E+00 0. -1.
         24    2    1    2    0    0  0.16195463485E+03 -0.96417481607E+02  0.34454921541E+03  0.40104649687E+03  0.81231128911E+02 0.  0.
        254    2    1    2    0    0 -0.16195463485E+03  0.96417481607E+02 -0.44161528573E+03  0.10180613941E+04  0.89771894662E+03 0.  0.
         23    2    4    4    0    0 -0.52527985156E+03  0.42412275875E+02 -0.30599286817E+03  0.61644909171E+03  0.93059785586E+02 0.  0.
         23    2    4    4    0    0  0.36332521671E+03  0.54005205733E+02 -0.13562241756E+03  0.40161230243E+03  0.89315317658E+02 0.  0.
          2    1    3    3  502    0  0.55404293085E+01 -0.36799235772E+02  0.51144660548E+02  0.63250742390E+02  0.00000000000E+00 0. -1.
         -1    1    3    3    0  502  0.15641420554E+03 -0.59618245835E+02  0.29340455487E+03  0.33779575448E+03  0.00000000000E+00 0.  1.
         11    1    5    5    0    0 -0.24892395795E+03 -0.16658869616E+02 -0.11071255867E+03  0.27294308093E+03  0.00000000000E+00 0. -1.
        -11    1    5    5    0    0 -0.27635589361E+03  0.59071145490E+02 -0.19528030950E+03  0.34350601078E+03  0.00000000000E+00 0.  1.
          2    1    6    6  503    0  0.20532897386E+03 -0.10780845797E+02 -0.55402477751E+02  0.21294517765E+03  0.00000000000E+00 0.  1.
         -2    1    6    6    0  503  0.15799624285E+03  0.64786051530E+02 -0.80219939811E+02  0.18866712477E+03  0.00000000000E+00 0. -1.
<mgrwt>
<rscale>  0 0.14157844E+04</rscale>
<asrwt>0</asrwt>
<pdfrwt beam="1">  1        2 0.11662877E+00 0.14157844E+04</pdfrwt>
<pdfrwt beam="2">  1       -1 0.10169553E+00 0.14157844E+04</pdfrwt>
<totfact> 0.37659945E+01</totfact>
</mgrwt>
</event>
<event>
12    6  0.1553355E-007  0.1876101E+04  0.7818608E-02  0.8666845E-01
          2   -1    0    0  501    0  0.00000000000E+00  0.00000000000E+00  0.15134488648E+04  0.15134488648E+04  0.00000000000E+00 0. -1.
         -1   -1    0    0    0  501 -0.00000000000E+00 -0.00000000000E+00 -0.58141295822E+03  0.58141295822E+03  0.00000000000E+00 0.  1.
         24    2    1    2    0    0  0.27205632259E+03 -0.56504105463E+03  0.76631440195E+03  0.99320802887E+03  0.77060949265E+02 0.  0.
        254    2    1    2    0    0 -0.27205632259E+03  0.56504105463E+03  0.16572150460E+03  0.11016537941E+04  0.89044451197E+03 0.  0.
         23    2    4    4    0    0 -0.54621446384E+03  0.51544951646E+03 -0.13642437229E+02  0.75690861955E+03  0.93199236749E+02 0.  0.
         23    2    4    4    0    0  0.27415814125E+03  0.49591538177E+02  0.17936394183E+03  0.34474517456E+03  0.95161991778E+02 0.  0.
          2    1    3    3  502    0  0.25779126148E+03 -0.55945661079E+03  0.75341308867E+03  0.97318000186E+03  0.00000000000E+00 0. -1.
         -1    1    3    3    0  502  0.14265061109E+02 -0.55844438432E+01  0.12901313279E+02  0.20028027007E+02  0.00000000000E+00 0.  1.
         11    1    5    5    0    0 -0.33772006941E+03  0.37475912045E+03  0.71298705303E+01  0.50452956177E+03  0.00000000000E+00 0.  1.
        -11    1    5    5    0    0 -0.20849439443E+03  0.14069039601E+03 -0.20772307760E+02  0.25237905778E+03  0.00000000000E+00 0. -1.
          1    1    6    6  503    0  0.27871477023E+02  0.14306605701E+02  0.62397917697E+02  0.69821188267E+02  0.00000000000E+00 0. -1.
         -1    1    6    6    0  503  0.24628666423E+03  0.35284932476E+02  0.11696602413E+03  0.27492398629E+03  0.00000000000E+00 0.  1.
<mgrwt>
<rscale>  0 0.18761010E+04</rscale>
<asrwt>0</asrwt>
<pdfrwt beam="1">  1        2 0.23283829E+00 0.18761010E+04</pdfrwt>
<pdfrwt beam="2">  1       -1 0.89448148E-01 0.18761010E+04</pdfrwt>
<totfact> 0.16330004E+01</totfact>
</mgrwt>
</event>
<event>
12    6  0.1553355E-007  0.2058613E+04  0.7818608E-02  0.8579697E-01
         -1   -1    0    0    0  501 -0.00000000000E+00  0.00000000000E+00  0.55967519298E+03  0.55967519298E+03  0.00000000000E+00 0.  1.
          2   -1    0    0  501    0  0.00000000000E+00 -0.00000000000E+00 -0.18930111987E+04  0.18930111987E+04  0.00000000000E+00 0. -1.
         24    2    1    2    0    0  0.43028065854E+03  0.60930912861E+03 -0.96707074021E+03  0.12240250709E+04  0.81317269724E+02 0.  0.
        254    2    1    2    0    0 -0.43028065854E+03 -0.60930912861E+03 -0.36626526548E+03  0.12286613207E+04  0.90501897054E+03 0.  0.
         23    2    4    4    0    0 -0.21702476485E+03 -0.14695225891E+03  0.28478890573E+03  0.39712023316E+03  0.88910313263E+02 0.  0.
         23    2    4    4    0    0 -0.21325589369E+03 -0.46235686970E+03 -0.65105417120E+03  0.83154108757E+03  0.91307695827E+02 0.  0.
          2    1    3    3  502    0  0.40701648497E+03  0.53426159081E+03 -0.87268706289E+03  0.11012177696E+04  0.00000000000E+00 0. -1.
         -1    1    3    3    0  502  0.23264173565E+02  0.75047537801E+02 -0.94383677321E+02  0.12280730127E+03  0.00000000000E+00 0.  1.
         11    1    5    5    0    0  0.89961430221E+00  0.83585726875E+01  0.14539927669E+02  0.16795372574E+02  0.00000000000E+00 0. -1.
        -11    1    5    5    0    0 -0.21792437915E+03 -0.15531083159E+03  0.27024897806E+03  0.38032486058E+03  0.00000000000E+00 0.  1.
          4    1    6    6  503    0 -0.51339037564E+02 -0.41507218461E+02 -0.73287376219E+02  0.98638661160E+02  0.00000000000E+00 0. -1.
         -4    1    6    6    0  503 -0.16191685613E+03 -0.42084965124E+03 -0.57776679498E+03  0.73290242641E+03  0.00000000000E+00 0.  1.
<mgrwt>
<rscale>  0 0.20586126E+04</rscale>
<asrwt>0</asrwt>
<pdfrwt beam="1">  1        2 0.29123249E+00 0.20586126E+04</pdfrwt>
<pdfrwt beam="2">  1       -1 0.86103876E-01 0.20586126E+04</pdfrwt>
<totfact> 0.10736946E+01</totfact>
</mgrwt>
</event>
<event>
12    6  0.1553355E-007  0.1289154E+04  0.7818608E-02  0.9038211E-01
          2   -1    0    0  501    0  0.00000000000E+00  0.00000000000E+00  0.20354068836E+04  0.20354068836E+04  0.00000000000E+00 0. -1.
         -1   -1    0    0    0  501 -0.00000000000E+00 -0.00000000000E+00 -0.20412589684E+03  0.20412589684E+03  0.00000000000E+00 0.  1.
         24    2    1    2    0    0 -0.30043206411E+03 -0.11267840849E+03  0.51442883858E+03  0.61131359491E+03  0.78175651420E+02 0.  0.
        254    2    1    2    0    0  0.30043206411E+03  0.11267840849E+03  0.13168521482E+04  0.16282191855E+04  0.90224292023E+03 0.  0.
         23    2    4    4    0    0  0.52008946598E+03  0.30787957064E+03  0.64126391556E+03  0.88599963649E+03  0.92157820198E+02 0.  0.
         23    2    4    4    0    0 -0.21965740187E+03 -0.19520116216E+03  0.67558823263E+03  0.74221954905E+03  0.90097341914E+02 0.  0.
          4    1    3    3  502    0 -0.62471193566E+02 -0.18631783414E+02  0.54369436124E+02  0.84887154289E+02  0.00000000000E+00 0. -1.
         -3    1    3    3    0  502 -0.23796087054E+03 -0.94046625074E+02  0.46005940245E+03  0.52642644062E+03  0.00000000000E+00 0.  1.
         11    1    5    5    0    0  0.41740308859E+03  0.23796296172E+03  0.55846961559E+03  0.73670891202E+03  0.00000000000E+00 0.  1.
        -11    1    5    5    0    0  0.10268637739E+03  0.69916608929E+02  0.82794299961E+02  0.14929072447E+03  0.00000000000E+00 0. -1.
          4    1    6    6  503    0 -0.44840877707E+01 -0.42232203956E+02  0.11453031893E+03  0.12215097236E+03  0.00000000000E+00 0. -1.
         -4    1    6    6    0  503 -0.21517331410E+03 -0.15296895820E+03  0.56105791370E+03  0.62006857669E+03  0.00000000000E+00 0.  1.
<mgrwt>
<rscale>  0 0.12891536E+04</rscale>
<asrwt>0</asrwt>
<pdfrwt beam="1">  1        2 0.31313951E+00 0.12891536E+04</pdfrwt>
<pdfrwt beam="2">  1       -1 0.31403985E-01 0.12891536E+04</pdfrwt>
<totfact> 0.67228543E+01</totfact>
</mgrwt>
</event>
<event>
12    6  0.1553355E-007  0.1533518E+04  0.7818608E-02  0.8862465E-01
          2   -1    0    0  501    0  0.00000000000E+00  0.00000000000E+00  0.31132477672E+04  0.31132477672E+04  0.00000000000E+00 0. -1.
         -1   -1    0    0    0  501 -0.00000000000E+00 -0.00000000000E+00 -0.18884439410E+03  0.18884439410E+03  0.00000000000E+00 0.  1.
         24    2    1    2    0    0 -0.99015688324E+02 -0.36924506028E+03  0.27086380869E+03  0.47493244165E+03  0.77766317865E+02 0.  0.
        254    2    1    2    0    0  0.99015688324E+02  0.36924506028E+03  0.26535395644E+04  0.28271597196E+04  0.89744851636E+03 0.  0.
         23    2    4    4    0    0 -0.34789078789E+03  0.37107760452E+03  0.15169064826E+04  0.16024795450E+04  0.90602572953E+02 0.  0.
         23    2    4    4    0    0  0.44690647622E+03 -0.18325442425E+01  0.11366330817E+04  0.12246801746E+04  0.90432355434E+02 0.  0.
          2    1    3    3  502    0 -0.25566612330E+02 -0.19345331987E+03  0.10119185749E+03  0.21981271724E+03  0.00000000000E+00 0. -1.
         -1    1    3    3    0  502 -0.73449075994E+02 -0.17579174041E+03  0.16967195120E+03  0.25511972441E+03  0.00000000000E+00 0.  1.
         11    1    5    5    0    0 -0.82812832520E+02  0.43429295668E+02  0.22845608900E+03  0.24685269606E+03  0.00000000000E+00 0.  1.
        -11    1    5    5    0    0 -0.26507795537E+03  0.32764830885E+03  0.12884503936E+04  0.13556268489E+04  0.00000000000E+00 0. -1.
          3    1    6    6  503    0  0.42407663467E+03 -0.22926216818E+02  0.10676136820E+04  0.11489845854E+04  0.00000000000E+00 0. -1.
         -3    1    6    6    0  503  0.22829841542E+02  0.21093672575E+02  0.69019399770E+02  0.75695589252E+02  0.00000000000E+00 0.  1.
<mgrwt>
<rscale>  0 0.15335180E+04</rscale>
<asrwt>0</asrwt>
<pdfrwt beam="1">  1        2 0.47896116E+00 0.15335180E+04</pdfrwt>
<pdfrwt beam="2">  1       -1 0.29052986E-01 0.15335180E+04</pdfrwt>
<totfact> 0.17624394E+01</totfact>
</mgrwt>
</event>
<event>
12    6  0.1553355E-007  0.1393040E+04  0.7818608E-02  0.8958872E-01
         -1   -1    0    0    0  501 -0.00000000000E+00  0.00000000000E+00  0.41652803550E+03  0.41652803550E+03  0.00000000000E+00 0.  1.
          2   -1    0    0  501    0  0.00000000000E+00 -0.00000000000E+00 -0.11647245077E+04  0.11647245077E+04  0.00000000000E+00 0. -1.
         24    2    1    2    0    0  0.88352087048E+02 -0.32883950467E+03 -0.47161884615E+03  0.58716272530E+03  0.79963859445E+02 0.  0.
        254    2    1    2    0    0 -0.88352087048E+02  0.32883950467E+03 -0.27657762608E+03  0.99408981794E+03  0.89206382718E+03 0.  0.
         23    2    4    4    0    0  0.26341316506E+03  0.46648886119E+03 -0.26982507089E+03  0.60648386243E+03  0.89547492190E+02 0.  0.
         23    2    4    4    0    0 -0.35176525211E+03 -0.13764935653E+03 -0.67525551928E+01  0.38760595551E+03  0.86640878382E+02 0.  0.
          2    1    3    3  502    0  0.21524855252E+02 -0.21222423438E+03 -0.25780499295E+03  0.33461299951E+03  0.00000000000E+00 0. -1.
         -1    1    3    3    0  502  0.66827231796E+02 -0.11661527029E+03 -0.21381385321E+03  0.25254972579E+03  0.00000000000E+00 0.  1.
         11    1    5    5    0    0  0.65361448227E+02  0.53849351003E+02 -0.54050610261E+02  0.10046561595E+03  0.00000000000E+00 0.  1.
        -11    1    5    5    0    0  0.19805171683E+03  0.41263951019E+03 -0.21577446063E+03  0.50601824648E+03  0.00000000000E+00 0. -1.
          4    1    6    6  503    0 -0.31696341830E+02 -0.10700991491E+01  0.21739552324E+02  0.38450114861E+02  0.00000000000E+00 0.  1.
         -4    1    6    6    0  503 -0.32006891028E+03 -0.13657925738E+03 -0.28492107517E+02  0.34915584065E+03  0.00000000000E+00 0. -1.
<mgrwt>
<rscale>  0 0.13930404E+04</rscale>
<asrwt>0</asrwt>
<pdfrwt beam="1">  1        2 0.17918838E+00 0.13930404E+04</pdfrwt>
<pdfrwt beam="2">  1       -1 0.64081237E-01 0.13930404E+04</pdfrwt>
<totfact> 0.54544194E+01</totfact>
</mgrwt>
</event>
<event>
12    6  0.1553355E-007  0.1794356E+04  0.7818608E-02  0.8709307E-01
          2   -1    0    0  501    0  0.00000000000E+00  0.00000000000E+00  0.22593191804E+04  0.22593191804E+04  0.00000000000E+00 0. -1.
         -1   -1    0    0    0  501 -0.00000000000E+00 -0.00000000000E+00 -0.35627035835E+03  0.35627035835E+03  0.00000000000E+00 0.  1.
         24    2    1    2    0    0 -0.40307641312E+03  0.90861891940E+02 -0.73940970712E+02  0.42733069571E+03  0.80111036250E+02 0.  0.
        254    2    1    2    0    0  0.40307641312E+03 -0.90861891940E+02  0.19769897928E+04  0.21882588431E+04  0.84217673042E+03 0.  0.
         23    2    4    4    0    0 -0.18975113169E+03 -0.61726703245E+01  0.13663026756E+03  0.25083066384E+03  0.90579236423E+02 0.  0.
         23    2    4    4    0    0  0.59282754481E+03 -0.84689221615E+02  0.18403595252E+04  0.19374281792E+04  0.89933338804E+02 0.  0.
          4    1    3    3  502    0 -0.22086571718E+03  0.26293622556E+02 -0.72729829059E+02  0.23401420395E+03  0.00000000000E+00 0. -1.
         -3    1    3    3    0  502 -0.18221069593E+03  0.64568269383E+02 -0.12111416527E+01  0.19331649176E+03  0.00000000000E+00 0.  1.
         11    1    5    5    0    0  0.18736849146E+01  0.15874136971E+02  0.19300010358E+02  0.25059715073E+02  0.00000000000E+00 0. -1.
        -11    1    5    5    0    0 -0.19162481661E+03 -0.22046807295E+02  0.11733025721E+03  0.22577094877E+03  0.00000000000E+00 0.  1.
          1    1    6    6  503    0  0.35957797526E+03 -0.91475493846E+02  0.11879025195E+04  0.12444984862E+04  0.00000000000E+00 0. -1.
         -1    1    6    6    0  503  0.23324956955E+03  0.67862722303E+01  0.65245700567E+03  0.69292969299E+03  0.00000000000E+00 0.  1.
<mgrwt>
<rscale>  0 0.17943561E+04</rscale>
<asrwt>0</asrwt>
<pdfrwt beam="1">  1        2 0.34758755E+00 0.17943561E+04</pdfrwt>
<pdfrwt beam="2">  1       -1 0.54810826E-01 0.17943561E+04</pdfrwt>
<totfact> 0.17301859E+01</totfact>
</mgrwt>
</event>
<event>
12    6  0.1553355E-007  0.2667648E+04  0.7818608E-02  0.8345579E-01
         -1   -1    0    0    0  501 -0.00000000000E+00  0.00000000000E+00  0.34580715060E+03  0.34580715060E+03  0.00000000000E+00 0.  1.
          2   -1    0    0  501    0  0.00000000000E+00 -0.00000000000E+00 -0.51447369551E+04  0.51447369551E+04  0.00000000000E+00 0. -1.
         24    2    1    2    0    0 -0.11760348023E+03  0.20574219960E+03  0.25226561016E+03  0.35524784408E+03  0.80016631971E+02 0.  0.
        254    2    1    2    0    0  0.11760348023E+03 -0.20574219960E+03 -0.50511954146E+04  0.51352962616E+04  0.89472462033E+03 0.  0.
         23    2    4    4    0    0 -0.18410533058E+03 -0.14876108357E+03 -0.40649542211E+03  0.47956277732E+03  0.93366463269E+02 0.  0.
         23    2    4    4    0    0  0.30170881082E+03 -0.56981116027E+02 -0.46446999925E+04  0.46557334843E+04  0.91330180361E+02 0.  0.
          2    1    3    3  502    0  0.82943443737E+01  0.45960749076E+02  0.46655342455E+02  0.66014449811E+02  0.00000000000E+00 0. -1.
         -1    1    3    3    0  502 -0.12589782461E+03  0.15978145052E+03  0.20561026771E+03  0.28923339427E+03  0.00000000000E+00 0.  1.
         11    1    5    5    0    0 -0.61312459082E+02 -0.43510691761E+01 -0.68452567068E+02  0.91999474890E+02  0.00000000000E+00 0. -1.
        -11    1    5    5    0    0 -0.12279287150E+03 -0.14441001439E+03 -0.33804285504E+03  0.38756330243E+03  0.00000000000E+00 0.  1.
          3    1    6    6  503    0  0.17001704085E+03 -0.24097465966E+02 -0.19232334684E+04  0.19308841125E+04  0.00000000000E+00 0. -1.
         -3    1    6    6    0  503  0.13169176997E+03 -0.32883650061E+02 -0.27214665242E+04  0.27248493718E+04  0.00000000000E+00 0.  1.
<mgrwt>
<rscale>  0 0.26676483E+04</rscale>
<asrwt>0</asrwt>
<pdfrwt beam="1">  1        2 0.79149796E+00 0.26676483E+04</pdfrwt>
<pdfrwt beam="2">  1       -1 0.53201102E-01 0.26676483E+04</pdfrwt>
<totfact> 0.79218138E-02</totfact>
</mgrwt>
</event>
<event>
12    6  0.1553355E-007  0.1668031E+04  0.7818608E-02  0.8779810E-01
         -1   -1    0    0    0  501 -0.00000000000E+00  0.00000000000E+00  0.39145959746E+03  0.39145959746E+03  0.00000000000E+00 0.  1.
          2   -1    0    0  501    0  0.00000000000E+00 -0.00000000000E+00 -0.17768930540E+04  0.17768930540E+04  0.00000000000E+00 0. -1.
         24    2    1    2    0    0 -0.39859733548E+03  0.15449138293E+03 -0.10115385489E+04  0.11010592524E+04  0.79836195091E+02 0.  0.
        254    2    1    2    0    0  0.39859733548E+03 -0.15449138293E+03 -0.37389490764E+03  0.10672933991E+04  0.90364283572E+03 0.  0.
         23    2    4    4    0    0  0.49654911247E+03  0.25534231599E+03 -0.17096336276E+03  0.59088937336E+03  0.90338589253E+02 0.  0.
         23    2    4    4    0    0 -0.97951776994E+02 -0.40983369892E+03 -0.20293154488E+03  0.47640402574E+03  0.90671784199E+02 0.  0.
          4    1    3    3  502    0 -0.31091540009E+03  0.10899010560E+03 -0.68877591580E+03  0.76351783955E+03  0.00000000000E+00 0. -1.
         -3    1    3    3    0  502 -0.87681935387E+02  0.45501277327E+02 -0.32276263313E+03  0.33754141283E+03  0.00000000000E+00 0.  1.
         11    1    5    5    0    0  0.20389648687E+03  0.99269803507E+02 -0.23752415572E+02  0.22801852664E+03  0.00000000000E+00 0. -1.
        -11    1    5    5    0    0  0.29265262561E+03  0.15607251248E+03 -0.14721094719E+03  0.36287084672E+03  0.00000000000E+00 0.  1.
          3    1    6    6  503    0 -0.14203321397E+02 -0.85688655466E+02 -0.84787308952E+02  0.12138026105E+03  0.00000000000E+00 0. -1.
         -3    1    6    6    0  503 -0.83748455598E+02 -0.32414504345E+03 -0.11814423593E+03  0.35502376469E+03  0.00000000000E+00 0.  1.
<mgrwt>
<rscale>  0 0.16680310E+04</rscale>
<asrwt>0</asrwt>
<pdfrwt beam="1">  1        2 0.27336816E+00 0.16680310E+04</pdfrwt>
<pdfrwt beam="2">  1       -1 0.60224553E-01 0.16680310E+04</pdfrwt>
<totfact> 0.26998832E+01</totfact>
</mgrwt>
</event>
<event>
12    6  0.1553355E-007  0.1788547E+04  0.7818608E-02  0.8712414E-01
          2   -1    0    0  501    0  0.00000000000E+00  0.00000000000E+00  0.30310324286E+04  0.30310324286E+04  0.00000000000E+00 0. -1.
         -1   -1    0    0    0  501 -0.00000000000E+00 -0.00000000000E+00 -0.26384563793E+03  0.26384563793E+03  0.00000000000E+00 0.  1.
         24    2    1    2    0    0  0.22234494466E+03 -0.58006232516E+03  0.14958910652E+04  0.16217698481E+04  0.80856576148E+02 0.  0.
        254    2    1    2    0    0 -0.22234494466E+03  0.58006232516E+03  0.12712957255E+04  0.16731082184E+04  0.89285425094E+03 0.  0.
         23    2    4    4    0    0 -0.42902462286E+03  0.12362176487E+03  0.99480436709E+03  0.10942723420E+04  0.91933464457E+02 0.  0.
         23    2    4    4    0    0  0.20667967820E+03  0.45644056029E+03  0.27649135842E+03  0.57883587645E+03  0.86885131806E+02 0.  0.
          2    1    3    3  502    0  0.22819097989E+02 -0.10312862122E+03  0.32747670206E+03  0.34408896254E+03  0.00000000000E+00 0. -1.
         -1    1    3    3    0  502  0.19952584667E+03 -0.47693370394E+03  0.11684143631E+04  0.12776808856E+04  0.00000000000E+00 0.  1.
         11    1    5    5    0    0 -0.78292221585E+02  0.16341864074E+01  0.25087251436E+03  0.26281050396E+03  0.00000000000E+00 0.  1.
        -11    1    5    5    0    0 -0.35073240127E+03  0.12198757846E+03  0.74393185272E+03  0.83146183803E+03  0.00000000000E+00 0. -1.
          2    1    6    6  503    0  0.19752311653E+03  0.36379069928E+03  0.24230241034E+03  0.47965561865E+03  0.00000000000E+00 0. -1.
         -2    1    6    6    0  503  0.91565616691E+01  0.92649861008E+02  0.34188948077E+02  0.99180257799E+02  0.00000000000E+00 0.  1.
<mgrwt>
<rscale>  0 0.17885465E+04</rscale>
<asrwt>0</asrwt>
<pdfrwt beam="1">  1        2 0.46631266E+00 0.17885465E+04</pdfrwt>
<pdfrwt beam="2">  1       -1 0.40591639E-01 0.17885465E+04</pdfrwt>
<totfact> 0.10662057E+01</totfact>
</mgrwt>
</event>
<event>
12    6  0.1553355E-007  0.2771607E+04  0.7818608E-02  0.8312138E-01
          2   -1    0    0  501    0  0.00000000000E+00  0.00000000000E+00  0.11649706970E+04  0.11649706970E+04  0.00000000000E+00 0. -1.
         -1   -1    0    0    0  501 -0.00000000000E+00 -0.00000000000E+00 -0.16484977454E+04  0.16484977454E+04  0.00000000000E+00 0.  1.
         24    2    1    2    0    0  0.58267423513E+02 -0.10531614017E+04  0.43303964329E+03  0.11452407236E+04  0.10727978191E+03 0.  0.
        254    2    1    2    0    0 -0.58267423513E+02  0.10531614017E+04 -0.91656669170E+03  0.16682277189E+04  0.91123278635E+03 0.  0.
         23    2    4    4    0    0 -0.19173988000E+03 -0.73867439912E+02 -0.33132139504E+02  0.22710482159E+03  0.90875084927E+02 0.  0.
         23    2    4    4    0    0  0.13347245649E+03  0.11270288416E+04 -0.88343455220E+03  0.14411228973E+04  0.91486012640E+02 0.  0.
          4    1    3    3  502    0  0.64476380930E+02 -0.99332205731E+03  0.43189017542E+03  0.10850691392E+04  0.00000000000E+00 0. -1.
         -3    1    3    3    0  502 -0.62089574176E+01 -0.59839344408E+02  0.11494678739E+01  0.60171584388E+02  0.00000000000E+00 0.  1.
         11    1    5    5    0    0 -0.12321417708E+03 -0.69264105752E+02  0.16585912372E+02  0.14231775107E+03  0.00000000000E+00 0. -1.
        -11    1    5    5    0    0 -0.68525702917E+02 -0.46033341602E+01 -0.49718051876E+02  0.84787070524E+02  0.00000000000E+00 0.  1.
          3    1    6    6  503    0  0.25541853306E+02  0.35790958031E+03 -0.32957698614E+03  0.48720903495E+03  0.00000000000E+00 0. -1.
         -3    1    6    6    0  503  0.10793060318E+03  0.76911926132E+03 -0.55385756606E+03  0.95391386232E+03  0.00000000000E+00 0.  1.
<mgrwt>
<rscale>  0 0.27716072E+04</rscale>
<asrwt>0</asrwt>
<pdfrwt beam="1">  1        2 0.17922626E+00 0.27716072E+04</pdfrwt>
<pdfrwt beam="2">  1       -1 0.25361504E+00 0.27716072E+04</pdfrwt>
<totfact> 0.13047301E+00</totfact>
</mgrwt>
</event>
<event>
12    6  0.1553355E-007  0.3576386E+04  0.7818608E-02  0.8095922E-01
         -3   -1    0    0    0  501 -0.00000000000E+00  0.00000000000E+00  0.15341542119E+04  0.15341542119E+04  0.00000000000E+00 0.  1.
          2   -1    0    0  501    0  0.00000000000E+00 -0.00000000000E+00 -0.20842972947E+04  0.20842972947E+04  0.00000000000E+00 0. -1.
         24    2    1    2    0    0  0.15429828516E+04  0.61638487217E+03 -0.15760272890E+03  0.16709884162E+04  0.81469477465E+02 0.  0.
        254    2    1    2    0    0 -0.15429828516E+04 -0.61638487217E+03 -0.39254035381E+03  0.19474630904E+04  0.93690883665E+03 0.  0.
         23    2    4    4    0    0 -0.89057581307E+03  0.13793628120E+03 -0.18701770902E+03  0.92502112358E+03  0.92394583637E+02 0.  0.
         23    2    4    4    0    0 -0.65240703855E+03 -0.75432115338E+03 -0.20552264479E+03  0.10224419668E+04  0.92264140803E+02 0.  0.
          2    1    3    3  502    0  0.15057559908E+04  0.61171583276E+03 -0.14648014407E+03  0.16318559362E+04  0.00000000000E+00 0. -1.
         -1    1    3    3    0  502  0.37226860801E+02  0.46690394188E+01 -0.11122584829E+02  0.39132479956E+02  0.00000000000E+00 0.  1.
         11    1    5    5    0    0 -0.33438637942E+03  0.33373595870E+02 -0.11155133686E+03  0.35407873192E+03  0.00000000000E+00 0. -1.
        -11    1    5    5    0    0 -0.55618943366E+03  0.10456268533E+03 -0.75466372160E+02  0.57094239167E+03  0.00000000000E+00 0.  1.
          4    1    6    6  503    0 -0.12374767478E+02 -0.23601054306E+02 -0.20427706285E+02  0.33577311068E+02  0.00000000000E+00 0. -1.
         -4    1    6    6    0  503 -0.64003227107E+03 -0.73072009907E+03 -0.18509493851E+03  0.98886465578E+03  0.00000000000E+00 0.  1.
<mgrwt>
<rscale>  0 0.35763856E+04</rscale>
<asrwt>0</asrwt>
<pdfrwt beam="1">  1        2 0.32066112E+00 0.35763856E+04</pdfrwt>
<pdfrwt beam="2">  1       -3 0.23602373E+00 0.35763856E+04</pdfrwt>
<totfact> 0.27280810E-01</totfact>
</mgrwt>
</event>
<event>
12    6  0.1553355E-007  0.1601174E+04  0.7818608E-02  0.8819827E-01
         -1   -1    0    0    0  501 -0.00000000000E+00  0.00000000000E+00  0.25098201371E+03  0.25098201371E+03  0.00000000000E+00 0.  1.
          2   -1    0    0  501    0  0.00000000000E+00 -0.00000000000E+00 -0.25537254288E+04  0.25537254288E+04  0.00000000000E+00 0. -1.
         24    2    1    2    0    0  0.14267227285E+03  0.10052167641E+02 -0.16780996011E+04  0.16860592943E+04  0.79506284271E+02 0.  0.
        254    2    1    2    0    0 -0.14267227285E+03 -0.10052167641E+02 -0.62464381396E+03  0.11186481482E+04  0.91691731446E+03 0.  0.
         23    2    4    4    0    0 -0.46679966768E+03  0.20128519396E+03 -0.25823515574E+03  0.57702596774E+03  0.88633586933E+02 0.  0.
         23    2    4    4    0    0  0.32412739483E+03 -0.21133736160E+03 -0.36640865822E+03  0.54162218043E+03  0.96836114272E+02 0.  0.
          4    1    3    3  502    0  0.74640548178E+02 -0.27214841520E+02 -0.10856522076E+04  0.10885552696E+04  0.00000000000E+00 0. -1.
         -3    1    3    3    0  502  0.68031724677E+02  0.37267009161E+02 -0.59244739346E+03  0.59750402471E+03  0.00000000000E+00 0.  1.
         11    1    5    5    0    0 -0.16277768102E+03  0.10632113571E+03 -0.67680303549E+02  0.20586738650E+03  0.00000000000E+00 0.  1.
        -11    1    5    5    0    0 -0.30402198667E+03  0.94964058243E+02 -0.19055485219E+03  0.37115858124E+03  0.00000000000E+00 0. -1.
          1    1    6    6  503    0  0.24626063791E+03 -0.19313133341E+03 -0.32643476324E+03  0.45222081816E+03  0.00000000000E+00 0. -1.
         -1    1    6    6    0  503  0.77866756913E+02 -0.18206028188E+02 -0.39973894983E+02  0.89401362263E+02  0.00000000000E+00 0.  1.
<mgrwt>
<rscale>  0 0.16011735E+04</rscale>
<asrwt>0</asrwt>
<pdfrwt beam="1">  1        2 0.39288082E+00 0.16011735E+04</pdfrwt>
<pdfrwt beam="2">  1       -1 0.38612619E-01 0.16011735E+04</pdfrwt>
<totfact> 0.23035850E+01</totfact>
</mgrwt>
</event>
<event>
12    6  0.1553355E-007  0.1440727E+04  0.7818608E-02  0.8924855E-01
         -1   -1    0    0    0  501 -0.00000000000E+00  0.00000000000E+00  0.40433949424E+03  0.40433949424E+03  0.00000000000E+00 0.  1.
          2   -1    0    0  501    0  0.00000000000E+00 -0.00000000000E+00 -0.12833859086E+04  0.12833859086E+04  0.00000000000E+00 0. -1.
         24    2    1    2    0    0  0.25187969850E+03  0.52065512201E+02  0.15021063684E+03  0.30813565015E+03  0.78931257410E+02 0.  0.
        254    2    1    2    0    0 -0.25187969850E+03 -0.52065512201E+02 -0.10292570512E+04  0.13795897527E+04  0.88189773117E+03 0.  0.
         23    2    4    4    0    0 -0.19011545370E+03 -0.39098147170E+03 -0.22055970384E+03  0.49596014611E+03  0.91211219825E+02 0.  0.
         23    2    4    4    0    0 -0.61764244802E+02  0.33891595950E+03 -0.80869734739E+03  0.88362960661E+03  0.90172237808E+02 0.  0.
          2    1    3    3  502    0  0.71747406440E+02  0.14638494172E+02  0.43561072373E+01  0.73354969243E+02  0.00000000000E+00 0. -1.
         -3    1    3    3    0  502  0.18013229206E+03  0.37427018029E+02  0.14585452960E+03  0.23478068091E+03  0.00000000000E+00 0.  1.
         11    1    5    5    0    0 -0.89268895910E+00  0.20940568245E+01  0.45257296170E+01  0.50659842210E+01  0.00000000000E+00 0. -1.
        -11    1    5    5    0    0 -0.18922276474E+03 -0.39307552853E+03 -0.22508543345E+03  0.49089416189E+03  0.00000000000E+00 0.  1.
          4    1    6    6  503    0 -0.83784750784E+01  0.20011818475E+03 -0.37489555734E+03  0.42504607471E+03  0.00000000000E+00 0.  1.
         -4    1    6    6    0  503 -0.53385769724E+02  0.13879777475E+03 -0.43380179004E+03  0.45858353190E+03  0.00000000000E+00 0. -1.
<mgrwt>
<rscale>  0 0.14407271E+04</rscale>
<asrwt>0</asrwt>
<pdfrwt beam="1">  1        2 0.19744399E+00 0.14407271E+04</pdfrwt>
<pdfrwt beam="2">  1       -1 0.62206075E-01 0.14407271E+04</pdfrwt>
<totfact> 0.49021310E+01</totfact>
</mgrwt>
</event>
<event>
12    6  0.1553355E-007  0.3625446E+04  0.7818608E-02  0.8084688E-01
         -1   -1    0    0    0  501 -0.00000000000E+00  0.00000000000E+00  0.16041661848E+04  0.16041661848E+04  0.00000000000E+00 0.  1.
          2   -1    0    0  501    0  0.00000000000E+00 -0.00000000000E+00 -0.20483942757E+04  0.20483942757E+04  0.00000000000E+00 0. -1.
         24    2    1    2    0    0 -0.10320441129E+04  0.13157055745E+04  0.10495980333E+03  0.16774995636E+04  0.82413687179E+02 0.  0.
        254    2    1    2    0    0  0.10320441129E+04 -0.13157055745E+04 -0.54918789428E+03  0.19750608969E+04  0.89613726267E+03 0.  0.
         23    2    4    4    0    0  0.11575006022E+02 -0.20525818103E+03  0.18817125878E+03  0.29378729785E+03  0.92938969768E+02 0.  0.
         23    2    4    4    0    0  0.10204691069E+04 -0.11104473935E+04 -0.73735915306E+03  0.16812735991E+04  0.92367648917E+02 0.  0.
          2    1    3    3  502    0 -0.23473186272E+02  0.14246554926E+02  0.53491999133E+01  0.27974430124E+02  0.00000000000E+00 0. -1.
         -1    1    3    3    0  502 -0.10085709266E+04  0.13014590196E+04  0.99610603417E+02  0.16495251335E+04  0.00000000000E+00 0.  1.
         11    1    5    5    0    0  0.46865824731E+01 -0.21354142905E+03  0.17143283784E+03  0.27388158731E+03  0.00000000000E+00 0. -1.
        -11    1    5    5    0    0  0.68884235492E+01  0.82832480157E+01  0.16738420938E+02  0.19905710542E+02  0.00000000000E+00 0.  1.
          2    1    6    6  503    0  0.84417250626E+03 -0.88705797673E+03 -0.56530153218E+03  0.13487271394E+04  0.00000000000E+00 0. -1.
         -2    1    6    6    0  503  0.17629660061E+03 -0.22338941676E+03 -0.17205762088E+03  0.33254645963E+03  0.00000000000E+00 0.  1.
<mgrwt>
<rscale>  0 0.36254461E+04</rscale>
<asrwt>0</asrwt>
<pdfrwt beam="1">  1        2 0.31513758E+00 0.36254461E+04</pdfrwt>
<pdfrwt beam="2">  1       -1 0.24679480E+00 0.36254461E+04</pdfrwt>
<totfact> 0.42502611E-01</totfact>
</mgrwt>
</event>
<event>
12    6  0.1553355E-007  0.1582756E+04  0.7818608E-02  0.8831212E-01
          2   -1    0    0  501    0  0.00000000000E+00  0.00000000000E+00  0.16713716851E+04  0.16713716851E+04  0.00000000000E+00 0. -1.
         -1   -1    0    0    0  501 -0.00000000000E+00 -0.00000000000E+00 -0.37470974606E+03  0.37470974606E+03  0.00000000000E+00 0.  1.
         24    2    1    2    0    0  0.12133777470E+03 -0.20172120967E+03 -0.17541305708E+03  0.30732224273E+03  0.90900595602E+02 0.  0.
        254    2    1    2    0    0 -0.12133777470E+03  0.20172120967E+03  0.14720749961E+04  0.17387591885E+04  0.89491028554E+03 0.  0.
         23    2    4    4    0    0 -0.34940821239E+03 -0.23032230812E+03  0.70043490724E+03  0.82100767845E+03  0.91159663714E+02 0.  0.
         23    2    4    4    0    0  0.22807043769E+03  0.43204351779E+03  0.77164008890E+03  0.91775151000E+03  0.90342025142E+02 0.  0.
          4    1    3    3  502    0  0.18752969200E+02 -0.64985035104E+02 -0.99434025591E+02  0.12025744919E+03  0.00000000000E+00 0. -1.
         -3    1    3    3    0  502  0.10258480550E+03 -0.13673617457E+03 -0.75979031493E+02  0.18706479353E+03  0.00000000000E+00 0.  1.
         11    1    5    5    0    0 -0.21922075992E+03 -0.14898835880E+03  0.35530772690E+03  0.44328191192E+03  0.00000000000E+00 0. -1.
        -11    1    5    5    0    0 -0.13018745246E+03 -0.81333949323E+02  0.34512718034E+03  0.37772576653E+03  0.00000000000E+00 0.  1.
          2    1    6    6  503    0  0.16470922591E+03  0.36707068213E+03  0.66976230194E+03  0.78131399314E+03  0.00000000000E+00 0. -1.
         -2    1    6    6    0  503  0.63361211780E+02  0.64972835666E+02  0.10187778696E+03  0.13643751686E+03  0.00000000000E+00 0.  1.
<mgrwt>
<rscale>  0 0.15827562E+04</rscale>
<asrwt>0</asrwt>
<pdfrwt beam="1">  1        2 0.25713410E+00 0.15827562E+04</pdfrwt>
<pdfrwt beam="2">  1       -1 0.57647654E-01 0.15827562E+04</pdfrwt>
<totfact> 0.33918476E+01</totfact>
</mgrwt>
</event>
<event>
12    6  0.1553355E-007  0.1802265E+04  0.7818608E-02  0.8705096E-01
         -1   -1    0    0    0  501 -0.00000000000E+00  0.00000000000E+00  0.54803531046E+03  0.54803531046E+03  0.00000000000E+00 0.  1.
          2   -1    0    0  501    0  0.00000000000E+00 -0.00000000000E+00 -0.14817290644E+04  0.14817290644E+04  0.00000000000E+00 0. -1.
         24    2    1    2    0    0  0.33334346173E+03  0.11580773120E+02 -0.10109354432E+04  0.10675177835E+04  0.79697993132E+02 0.  0.
        254    2    1    2    0    0 -0.33334346173E+03 -0.11580773120E+02  0.77241689212E+02  0.96224659134E+03  0.89927762466E+03 0.  0.
         23    2    4    4    0    0  0.15377739295E+03  0.31292619702E+03 -0.22200177629E+02  0.36163406838E+03  0.93359842361E+02 0.  0.
         23    2    4    4    0    0 -0.48712085467E+03 -0.32450697014E+03  0.99441866841E+02  0.60061252296E+03  0.90858225416E+02 0.  0.
          2    1    3    3  502    0  0.28475977381E+03  0.56997617596E+01 -0.93287551308E+03  0.97538573856E+03  0.00000000000E+00 0. -1.
         -1    1    3    3    0  502  0.48583687914E+02  0.58810113608E+01 -0.78059930096E+02  0.92132044982E+02  0.00000000000E+00 0.  1.
         11    1    5    5    0    0 -0.10475117623E+01  0.77749333965E+01 -0.17769297582E+02  0.19424078016E+02  0.00000000000E+00 0.  1.
        -11    1    5    5    0    0  0.15482490471E+03  0.30515126362E+03 -0.44308800469E+01  0.34220999037E+03  0.00000000000E+00 0. -1.
          4    1    6    6  503    0 -0.25547518351E+03 -0.21626132044E+03  0.80250227880E+02  0.34420433929E+03  0.00000000000E+00 0. -1.
         -4    1    6    6    0  503 -0.23164567117E+03 -0.10824564970E+03  0.19191638961E+02  0.25640818367E+03  0.00000000000E+00 0.  1.
<mgrwt>
<rscale>  0 0.18022651E+04</rscale>
<asrwt>0</asrwt>
<pdfrwt beam="1">  1        2 0.22795832E+00 0.18022651E+04</pdfrwt>
<pdfrwt beam="2">  1       -1 0.84313124E-01 0.18022651E+04</pdfrwt>
<totfact> 0.19482812E+01</totfact>
</mgrwt>
</event>
<event>
12    6  0.1553355E-007  0.1935900E+04  0.7818608E-02  0.8637190E-01
          2   -1    0    0  501    0  0.00000000000E+00  0.00000000000E+00  0.36711424435E+04  0.36711424435E+04  0.00000000000E+00 0. -1.
         -1   -1    0    0    0  501 -0.00000000000E+00 -0.00000000000E+00 -0.25521401492E+03  0.25521401492E+03  0.00000000000E+00 0.  1.
         24    2    1    2    0    0 -0.18613138472E+02 -0.73161362661E+03  0.16796943655E+04  0.18336084618E+04  0.71706920147E+02 0.  0.
        254    2    1    2    0    0  0.18613138472E+02  0.73161362661E+03  0.17362340631E+04  0.20927479966E+04  0.91075820484E+03 0.  0.
         23    2    4    4    0    0  0.29484405557E+03  0.45557366403E+01  0.19826088226E+03  0.36691211594E+03  0.91451361657E+02 0.  0.
         23    2    4    4    0    0 -0.27623091710E+03  0.72705788997E+03  0.15379731809E+04  0.17258358807E+04  0.90726439944E+02 0.  0.
          2    1    3    3  502    0  0.95909926869E+01 -0.24137500702E+03  0.48159133408E+03  0.53878019100E+03  0.00000000000E+00 0. -1.
         -1    1    3    3    0  502 -0.28204131159E+02 -0.49023861959E+03  0.11981030314E+04  0.12948282708E+04  0.00000000000E+00 0.  1.
         11    1    5    5    0    0  0.18230360910E+03  0.38177124125E+02  0.15298650874E+03  0.24103313165E+03  0.00000000000E+00 0. -1.
        -11    1    5    5    0    0  0.11254044647E+03 -0.33621387485E+02  0.45274373516E+02  0.12587898429E+03  0.00000000000E+00 0.  1.
          1    1    6    6  503    0 -0.18039193394E+03  0.34711919233E+03  0.77090921002E+03  0.86448481399E+03  0.00000000000E+00 0. -1.
         -1    1    6    6    0  503 -0.95838983163E+02  0.37993869764E+03  0.76706397087E+03  0.86135106667E+03  0.00000000000E+00 0.  1.
<mgrwt>
<rscale>  0 0.19358998E+04</rscale>
<asrwt>0</asrwt>
<pdfrwt beam="1">  1        2 0.56479111E+00 0.19358998E+04</pdfrwt>
<pdfrwt beam="2">  1       -1 0.39263697E-01 0.19358998E+04</pdfrwt>
<totfact> 0.41391050E+00</totfact>
</mgrwt>
</event>
<event>
12    6  0.1553355E-007  0.1912277E+04  0.7818608E-02  0.8648769E-01
         -1   -1    0    0    0  501 -0.00000000000E+00  0.00000000000E+00  0.66040460314E+03  0.66040460314E+03  0.00000000000E+00 0.  1.
          2   -1    0    0  501    0  0.00000000000E+00 -0.00000000000E+00 -0.13843039471E+04  0.13843039471E+04  0.00000000000E+00 0. -1.
         24    2    1    2    0    0  0.27352766809E+02 -0.60601002177E+03  0.17593305628E+03  0.63661254637E+03  0.79541018091E+02 0.  0.
        254    2    1    2    0    0 -0.27352766809E+02  0.60601002177E+03 -0.89983240027E+03  0.14080960039E+04  0.89724003882E+03 0.  0.
         23    2    4    4    0    0 -0.39920903235E+03  0.25134139408E+03 -0.16401809871E+03  0.50569642762E+03  0.79288033844E+02 0.  0.
         23    2    4    4    0    0  0.37185626554E+03  0.35466862769E+03 -0.73581430157E+03  0.90239957628E+03  0.93996761574E+02 0.  0.
          2    1    3    3  502    0  0.14995127154E+02 -0.25557675876E+03  0.33749055060E+02  0.25823116035E+03  0.00000000000E+00 0. -1.
         -1    1    3    3    0  502  0.12357639654E+02 -0.35043326301E+03  0.14218400122E+03  0.37838138602E+03  0.00000000000E+00 0.  1.
         11    1    5    5    0    0 -0.10862817671E+03  0.11205244934E+03 -0.49928033409E+02  0.16385554827E+03  0.00000000000E+00 0.  1.
        -11    1    5    5    0    0 -0.29058085564E+03  0.13928894474E+03 -0.11409006530E+03  0.34184087935E+03  0.00000000000E+00 0. -1.
          2    1    6    6  503    0  0.31481112295E+03  0.29528834137E+03 -0.66996504723E+03  0.79696575346E+03  0.00000000000E+00 0. -1.
         -2    1    6    6    0  503  0.57045142592E+02  0.59380286324E+02 -0.65849254339E+02  0.10543382282E+03  0.00000000000E+00 0.  1.
<mgrwt>
<rscale>  0 0.19122769E+04</rscale>
<asrwt>0</asrwt>
<pdfrwt beam="1">  1        2 0.21296984E+00 0.19122769E+04</pdfrwt>
<pdfrwt beam="2">  1       -1 0.10160071E+00 0.19122769E+04</pdfrwt>
<totfact> 0.14477560E+01</totfact>
</mgrwt>
</event>
<event>
12    6  0.1553355E-007  0.1184555E+04  0.7818608E-02  0.9126484E-01
         -1   -1    0    0    0  501 -0.00000000000E+00  0.00000000000E+00  0.96310084970E+03  0.96310084970E+03  0.00000000000E+00 0.  1.
          2   -1    0    0  501    0  0.00000000000E+00 -0.00000000000E+00 -0.36423273982E+03  0.36423273982E+03  0.00000000000E+00 0. -1.
         24    2    1    2    0    0  0.16425183746E+03  0.15794704355E+03  0.49467203027E+02  0.24668340781E+03  0.80496986515E+02 0.  0.
        254    2    1    2    0    0 -0.16425183746E+03 -0.15794704355E+03  0.54940090685E+03  0.10806501817E+04  0.90224028069E+03 0.  0.
         23    2    4    4    0    0 -0.51249110906E+03 -0.18093168382E+03  0.22380886345E+03  0.59484177700E+03  0.91449008887E+02 0.  0.
         23    2    4    4    0    0  0.34823927160E+03  0.22984640268E+02  0.32559204340E+03  0.48580840471E+03  0.90557955957E+02 0.  0.
          4    1    3    3  502    0  0.51186022424E+01  0.19299096525E+02 -0.16125840957E+02  0.25665111770E+02  0.00000000000E+00 0. -1.
         -3    1    3    3    0  502  0.15913323522E+03  0.13864794703E+03  0.65593043984E+02  0.22101829604E+03  0.00000000000E+00 0.  1.
         11    1    5    5    0    0 -0.32877610321E+03 -0.12987258036E+03  0.18954838031E+03  0.40110996204E+03  0.00000000000E+00 0. -1.
        -11    1    5    5    0    0 -0.18371500585E+03 -0.51059103464E+02  0.34260483138E+02  0.19373181495E+03  0.00000000000E+00 0.  1.
          4    1    6    6  503    0  0.66443438990E+02 -0.22249050151E+02  0.34344920289E+02  0.78034123094E+02  0.00000000000E+00 0. -1.
         -4    1    6    6    0  503  0.28179583261E+03  0.45233690419E+02  0.29124712311E+03  0.40777428162E+03  0.00000000000E+00 0.  1.
<mgrwt>
<rscale>  0 0.11845554E+04</rscale>
<asrwt>0</asrwt>
<pdfrwt beam="1">  1        2 0.56035807E-01 0.11845554E+04</pdfrwt>
<pdfrwt beam="2">  1       -1 0.14816936E+00 0.11845554E+04</pdfrwt>
<totfact> 0.36043019E+01</totfact>
</mgrwt>
</event>
<event>
12    6  0.1553355E-007  0.1805533E+04  0.7818608E-02  0.8703362E-01
          2   -1    0    0  501    0  0.00000000000E+00  0.00000000000E+00  0.12915043905E+04  0.12915043905E+04  0.00000000000E+00 0. -1.
         -1   -1    0    0    0  501 -0.00000000000E+00 -0.00000000000E+00 -0.63103741681E+03  0.63103741681E+03  0.00000000000E+00 0.  1.
         24    2    1    2    0    0 -0.16281408619E+03  0.48252107226E+03  0.70873647093E+03  0.87629112140E+03  0.79017291637E+02 0.  0.
        254    2    1    2    0    0  0.16281408619E+03 -0.48252107226E+03 -0.48269497246E+02  0.10462506859E+04  0.91267493751E+03 0.  0.
         23    2    4    4    0    0 -0.10844841360E+03 -0.52945581558E+03 -0.33162831428E+03  0.64072716800E+03  0.92029592612E+02 0.  0.
         23    2    4    4    0    0  0.27126249979E+03  0.46934743316E+02  0.28335881704E+03  0.40552351791E+03  0.91492570546E+02 0.  0.
          2    1    3    3  502    0 -0.13104478425E+03  0.45418795306E+03  0.65380406474E+03  0.80679562917E+03  0.00000000000E+00 0. -1.
         -1    1    3    3    0  502 -0.31769301946E+02  0.28333119199E+02  0.54932406196E+02  0.69495492229E+02  0.00000000000E+00 0.  1.
         11    1    5    5    0    0 -0.28364549807E+02 -0.26973056563E+02 -0.28927911258E+02  0.48671526747E+02  0.00000000000E+00 0.  1.
        -11    1    5    5    0    0 -0.80083863792E+02 -0.50248275901E+03 -0.30270040302E+03  0.59205564125E+03  0.00000000000E+00 0. -1.
          1    1    6    6  503    0  0.25403751021E+03  0.67735759105E+02  0.26095974338E+03  0.37043646867E+03  0.00000000000E+00 0. -1.
         -1    1    6    6    0  503  0.17224989579E+02 -0.20801015790E+02  0.22399073660E+02  0.35087049245E+02  0.00000000000E+00 0.  1.
<mgrwt>
<rscale>  0 0.18055333E+04</rscale>
<asrwt>0</asrwt>
<pdfrwt beam="1">  1        2 0.19869298E+00 0.18055333E+04</pdfrwt>
<pdfrwt beam="2">  1       -1 0.97082680E-01 0.18055333E+04</pdfrwt>
<totfact> 0.18342289E+01</totfact>
</mgrwt>
</event>
<event>
12    6  0.1553355E-007  0.1667070E+04  0.7818608E-02  0.8780372E-01
          2   -1    0    0  501    0  0.00000000000E+00  0.00000000000E+00  0.23214596679E+04  0.23214596679E+04  0.00000000000E+00 0. -1.
         -1   -1    0    0    0  501 -0.00000000000E+00 -0.00000000000E+00 -0.29928592371E+03  0.29928592371E+03  0.00000000000E+00 0.  1.
         24    2    1    2    0    0 -0.29518128890E+03 -0.22486244281E+03  0.14704853770E+04  0.15186723863E+04  0.79645850200E+02 0.  0.
        254    2    1    2    0    0  0.29518128890E+03  0.22486244281E+03  0.55168836723E+03  0.11020732053E+04  0.87892558495E+03 0.  0.
         23    2    4    4    0    0  0.26471940766E+03  0.45967573795E+03  0.50190726119E+02  0.54005211719E+03  0.88085364507E+02 0.  0.
         23    2    4    4    0    0  0.30461881245E+02 -0.23481329514E+03  0.50149764111E+03  0.56202108815E+03  0.91118657231E+02 0.  0.
          4    1    3    3  502    0 -0.21153165222E+03 -0.11731940427E+03  0.87675223230E+03  0.90950753672E+03  0.00000000000E+00 0. -1.
         -3    1    3    3    0  502 -0.83649636686E+02 -0.10754303854E+03  0.59373314467E+03  0.60916484956E+03  0.00000000000E+00 0.  1.
         11    1    5    5    0    0  0.24962720104E+03  0.36942538425E+03  0.34256155627E+02  0.44717148637E+03  0.00000000000E+00 0. -1.
        -11    1    5    5    0    0  0.15092206617E+02  0.90250353703E+02  0.15934570493E+02  0.92880630817E+02  0.00000000000E+00 0.  1.
          4    1    6    6  503    0  0.35576155931E+02 -0.24203254696E+02  0.83453327882E+02  0.93893121917E+02  0.00000000000E+00 0.  1.
         -4    1    6    6    0  503 -0.51142746853E+01 -0.21061004044E+03  0.41804431323E+03  0.46812796623E+03  0.00000000000E+00 0. -1.
<mgrwt>
<rscale>  0 0.16670695E+04</rscale>
<asrwt>0</asrwt>
<pdfrwt beam="1">  1        2 0.35714763E+00 0.16670695E+04</pdfrwt>
<pdfrwt beam="2">  1       -1 0.46043990E-01 0.16670695E+04</pdfrwt>
<totfact> 0.22489560E+01</totfact>
</mgrwt>
</event>
<event>
12    6  0.1553355E-007  0.1948540E+04  0.7818608E-02  0.8631065E-01
         -1   -1    0    0    0  501 -0.00000000000E+00  0.00000000000E+00  0.29340240232E+03  0.29340240232E+03  0.00000000000E+00 0.  1.
          2   -1    0    0  501    0  0.00000000000E+00 -0.00000000000E+00 -0.32351540782E+04  0.32351540782E+04  0.00000000000E+00 0. -1.
         24    2    1    2    0    0  0.33569535576E+03 -0.46439809466E+03 -0.24429066824E+03  0.63002928576E+03  0.94350453768E+02 0.  0.
        254    2    1    2    0    0 -0.33569535576E+03  0.46439809466E+03 -0.26974610076E+04  0.28985271947E+04  0.89264049248E+03 0.  0.
         23    2    4    4    0    0  0.69147236626E+02  0.57209010787E+02  0.63365806323E+01  0.13310335969E+03  0.98092511729E+02 0.  0.
         23    2    4    4    0    0 -0.40484259238E+03  0.40718908388E+03 -0.27037975882E+04  0.27654238350E+04  0.85715311453E+02 0.  0.
          4    1    3    3  502    0 -0.32941252401E+01 -0.18811191820E+02  0.19840157010E+00  0.19098470148E+02  0.00000000000E+00 0. -1.
         -3    1    3    3    0  502  0.33898948100E+03 -0.44558690284E+03 -0.24448906981E+03  0.61093081561E+03  0.00000000000E+00 0.  1.
         11    1    5    5    0    0  0.48113859216E+02  0.81897781924E+02 -0.12169338882E+02  0.95761594293E+02  0.00000000000E+00 0. -1.
        -11    1    5    5    0    0  0.21033377410E+02 -0.24688771137E+02  0.18505919515E+02  0.37341765392E+02  0.00000000000E+00 0.  1.
          1    1    6    6  503    0 -0.68736726978E+02  0.35931808554E+02 -0.45234765247E+03  0.45894905076E+03  0.00000000000E+00 0. -1.
         -1    1    6    6    0  503 -0.33610586541E+03  0.37125727532E+03 -0.22514499358E+04  0.23064747843E+04  0.00000000000E+00 0.  1.
<mgrwt>
<rscale>  0 0.19485399E+04</rscale>
<asrwt>0</asrwt>
<pdfrwt beam="1">  1        2 0.49771600E+00 0.19485399E+04</pdfrwt>
<pdfrwt beam="2">  1       -1 0.45138832E-01 0.19485399E+04</pdfrwt>
<totfact> 0.63854195E+00</totfact>
</mgrwt>
</event>
<event>
12    6  0.1553355E-007  0.2294659E+04  0.7818608E-02  0.8480030E-01
          2   -1    0    0  501    0  0.00000000000E+00  0.00000000000E+00  0.24617273741E+04  0.24617273741E+04  0.00000000000E+00 0. -1.
         -1   -1    0    0    0  501 -0.00000000000E+00 -0.00000000000E+00 -0.53473220013E+03  0.53473220013E+03  0.00000000000E+00 0.  1.
         24    2    1    2    0    0 -0.81188923780E+03  0.43804128142E+03  0.12044206207E+04  0.15192636518E+04  0.80552550494E+02 0.  0.
        254    2    1    2    0    0  0.81188923780E+03 -0.43804128142E+03  0.72257455327E+03  0.14771959224E+04  0.89941620485E+03 0.  0.
         23    2    4    4    0    0  0.49202863216E+03  0.22080696201E+03  0.35474879464E+03  0.65187483041E+03  0.90808578241E+02 0.  0.
         23    2    4    4    0    0  0.31986060564E+03 -0.65884824343E+03  0.36782575863E+03  0.82532109203E+03  0.97300058171E+02 0.  0.
          4    1    3    3  502    0 -0.46474923857E+03  0.24797887315E+03  0.75237332475E+03  0.91845032314E+03  0.00000000000E+00 0. -1.
         -3    1    3    3    0  502 -0.34713999923E+03  0.19006240828E+03  0.45204729591E+03  0.60081332862E+03  0.00000000000E+00 0.  1.
         11    1    5    5    0    0  0.43064942683E+03  0.17345465002E+03  0.27022513572E+03  0.53718438959E+03  0.00000000000E+00 0.  1.
        -11    1    5    5    0    0  0.61379205330E+02  0.47352311990E+02  0.84523658923E+02  0.11469044082E+03  0.00000000000E+00 0. -1.
          4    1    6    6  503    0  0.29076719477E+02 -0.26904653243E+02  0.40047658999E+02  0.56330550973E+02  0.00000000000E+00 0. -1.
         -4    1    6    6    0  503  0.29078388616E+03 -0.63194359019E+03  0.32777809963E+03  0.76899054106E+03  0.00000000000E+00 0.  1.
<mgrwt>
<rscale>  0 0.22946589E+04</rscale>
<asrwt>0</asrwt>
<pdfrwt beam="1">  1        2 0.37872728E+00 0.22946589E+04</pdfrwt>
<pdfrwt beam="2">  1       -1 0.82266493E-01 0.22946589E+04</pdfrwt>
<totfact> 0.55543922E+00</totfact>
</mgrwt>
</event>
<event>
12    6  0.1553355E-007  0.2024935E+04  0.7818608E-02  0.8595050E-01
          2   -1    0    0  501    0  0.00000000000E+00  0.00000000000E+00  0.11716962788E+04  0.11716962788E+04  0.00000000000E+00 0. -1.
         -1   -1    0    0    0  501 -0.00000000000E+00 -0.00000000000E+00 -0.87487763405E+03  0.87487763405E+03  0.00000000000E+00 0.  1.
         24    2    1    2    0    0 -0.67357997119E+03  0.43695594125E+03  0.21364000055E+03  0.83476340639E+03  0.80916145594E+02 0.  0.
        254    2    1    2    0    0  0.67357997119E+03 -0.43695594125E+03  0.83178644204E+02  0.12118105065E+04  0.90383933557E+03 0.  0.
         23    2    4    4    0    0  0.64907015611E+03 -0.19907525749E+03 -0.30242193659E+03  0.74855245794E+03  0.89155643998E+02 0.  0.
         23    2    4    4    0    0  0.24509815088E+02 -0.23788068376E+03  0.38560058080E+03  0.46325804853E+03  0.93446566907E+02 0.  0.
          4    1    3    3  502    0 -0.61704762373E+03  0.42446916218E+03  0.20200023481E+03  0.77570995511E+03  0.00000000000E+00 0. -1.
         -3    1    3    3    0  502 -0.56532347462E+02  0.12486779074E+02  0.11639765739E+02  0.59053451277E+02  0.00000000000E+00 0.  1.
         11    1    5    5    0    0  0.32728718971E+03 -0.96338216477E+02 -0.20050012028E+03  0.39572497360E+03  0.00000000000E+00 0.  1.
        -11    1    5    5    0    0  0.32178296640E+03 -0.10273704101E+03 -0.10192181631E+03  0.35282748433E+03  0.00000000000E+00 0. -1.
          1    1    6    6  503    0  0.38454656620E+02 -0.40459501049E+02  0.11684249433E+03  0.12949092757E+03  0.00000000000E+00 0. -1.
         -1    1    6    6    0  503 -0.13944841531E+02 -0.19742118272E+03  0.26875808647E+03  0.33376712096E+03  0.00000000000E+00 0.  1.
<mgrwt>
<rscale>  0 0.20249354E+04</rscale>
<asrwt>0</asrwt>
<pdfrwt beam="1">  1        2 0.18026097E+00 0.20249354E+04</pdfrwt>
<pdfrwt beam="2">  1       -1 0.13459656E+00 0.20249354E+04</pdfrwt>
<totfact> 0.96671674E+00</totfact>
</mgrwt>
</event>
<event>
12    6  0.1553355E-007  0.1786931E+04  0.7818608E-02  0.8713280E-01
         -1   -1    0    0    0  501 -0.00000000000E+00  0.00000000000E+00  0.75843595959E+03  0.75843595959E+03  0.00000000000E+00 0.  1.
          2   -1    0    0  501    0  0.00000000000E+00 -0.00000000000E+00 -0.10525355430E+04  0.10525355430E+04  0.00000000000E+00 0. -1.
         24    2    1    2    0    0  0.53202124802E+03  0.30090101369E+03 -0.37686176344E+03  0.72241551051E+03  0.79191872647E+02 0.  0.
        254    2    1    2    0    0 -0.53202124802E+03 -0.30090101369E+03  0.82762180050E+02  0.10885559921E+04  0.89694846063E+03 0.  0.
         23    2    4    4    0    0 -0.10649424755E+03 -0.37985668081E+03  0.37982201512E+03  0.55501992500E+03  0.90278631262E+02 0.  0.
         23    2    4    4    0    0 -0.42552700046E+03  0.78955667120E+02 -0.29705983507E+03  0.53353606706E+03  0.95440891399E+02 0.  0.
          4    1    3    3  502    0  0.39732818734E+03  0.25722124409E+03 -0.26905042873E+03  0.54444521310E+03  0.00000000000E+00 0. -1.
         -3    1    3    3    0  502  0.13469306067E+03  0.43679769599E+02 -0.10781133471E+03  0.17797029740E+03  0.00000000000E+00 0.  1.
         11    1    5    5    0    0 -0.64773124810E+02 -0.16591165221E+03  0.11491369070E+03  0.21196082267E+03  0.00000000000E+00 0.  1.
        -11    1    5    5    0    0 -0.41721122744E+02 -0.21394502859E+03  0.26490832442E+03  0.34305910233E+03  0.00000000000E+00 0. -1.
          3    1    6    6  503    0 -0.30246953737E+03  0.34912322775E+02 -0.25216031073E+03  0.39533721508E+03  0.00000000000E+00 0. -1.
         -3    1    6    6    0  503 -0.12305746309E+03  0.44043344345E+02 -0.44899524341E+02  0.13819885198E+03  0.00000000000E+00 0.  1.
<mgrwt>
<rscale>  0 0.17869312E+04</rscale>
<asrwt>0</asrwt>
<pdfrwt beam="1">  1        2 0.16192854E+00 0.17869312E+04</pdfrwt>
<pdfrwt beam="2">  1       -1 0.11668246E+00 0.17869312E+04</pdfrwt>
<totfact> 0.16666680E+01</totfact>
</mgrwt>
</event>
<event>
12    6  0.1553355E-007  0.1981029E+04  0.7818608E-02  0.8615542E-01
         -1   -1    0    0    0  501 -0.00000000000E+00  0.00000000000E+00  0.87058207742E+03  0.87058207742E+03  0.00000000000E+00 0.  1.
          2   -1    0    0  501    0  0.00000000000E+00 -0.00000000000E+00 -0.11269692764E+04  0.11269692764E+04  0.00000000000E+00 0. -1.
         24    2    1    2    0    0  0.51877153712E+03 -0.57328767607E+03 -0.79803958434E+01  0.77683860764E+03  0.75045774986E+02 0.  0.
        254    2    1    2    0    0 -0.51877153712E+03  0.57328767607E+03 -0.24840680317E+03  0.12207127462E+04  0.91140057144E+03 0.  0.
         23    2    4    4    0    0 -0.87523629834E+02  0.71935936994E+03 -0.16415152874E+03  0.74867747775E+03  0.91836552659E+02 0.  0.
         23    2    4    4    0    0 -0.43124790729E+03 -0.14607169387E+03 -0.84255274428E+02  0.47203526845E+03  0.91687764189E+02 0.  0.
          2    1    3    3  502    0  0.38666970967E+03 -0.46486538608E+03 -0.24410381193E+02  0.60515217777E+03  0.00000000000E+00 0. -1.
         -1    1    3    3    0  502  0.13210182746E+03 -0.10842228999E+03  0.16429985350E+02  0.17168642988E+03  0.00000000000E+00 0.  1.
         11    1    5    5    0    0 -0.86357915050E+02  0.71612652720E+03 -0.15347502004E+03  0.73746150695E+03  0.00000000000E+00 0. -1.
        -11    1    5    5    0    0 -0.11657147838E+01  0.32328427383E+01 -0.10676508694E+02  0.11215970802E+02  0.00000000000E+00 0.  1.
          2    1    6    6  503    0 -0.43447500537E+03 -0.13860184711E+03 -0.84861879191E+02  0.46387556613E+03  0.00000000000E+00 0. -1.
         -2    1    6    6    0  503  0.32270980812E+01 -0.74698467572E+01  0.60660476334E+00  0.81597023194E+01  0.00000000000E+00 0.  1.
<mgrwt>
<rscale>  0 0.19810293E+04</rscale>
<asrwt>0</asrwt>
<pdfrwt beam="1">  1        2 0.17337989E+00 0.19810293E+04</pdfrwt>
<pdfrwt beam="2">  1       -1 0.13393570E+00 0.19810293E+04</pdfrwt>
<totfact> 0.10460719E+01</totfact>
</mgrwt>
</event>
<event>
12    6  0.1553355E-007  0.1554014E+04  0.7818608E-02  0.8849308E-01
          2   -1    0    0  501    0  0.00000000000E+00  0.00000000000E+00  0.15247688582E+03  0.15247688582E+03  0.00000000000E+00 0. -1.
         -1   -1    0    0    0  501 -0.00000000000E+00 -0.00000000000E+00 -0.39595525973E+04  0.39595525973E+04  0.00000000000E+00 0.  1.
         24    2    1    2    0    0 -0.51322524504E+03  0.47637674888E+02 -0.12580141155E+04  0.13618166463E+04  0.79218452002E+02 0.  0.
        254    2    1    2    0    0  0.51322524504E+03 -0.47637674888E+02 -0.25490615960E+04  0.27502128369E+04  0.89458712685E+03 0.  0.
         23    2    4    4    0    0  0.28669412975E+03  0.21108678923E+03 -0.30484965332E+03  0.47792674730E+03  0.93431836313E+02 0.  0.
         23    2    4    4    0    0  0.22653111529E+03 -0.25872446412E+03 -0.22442119427E+04  0.22722860896E+04  0.92423668638E+02 0.  0.
          4    1    3    3  502    0 -0.35805202065E+03  0.35857582363E+02 -0.77756564174E+03  0.85679364080E+03  0.00000000000E+00 0. -1.
         -3    1    3    3    0  502 -0.15517322439E+03  0.11780092524E+02 -0.48044847377E+03  0.50502300551E+03  0.00000000000E+00 0.  1.
         11    1    5    5    0    0  0.24375166535E+02  0.18503421966E+01  0.19718880315E+00  0.24446091575E+02  0.00000000000E+00 0.  1.
        -11    1    5    5    0    0  0.26231896321E+03  0.20923644703E+03 -0.30504684212E+03  0.45348065573E+03  0.00000000000E+00 0. -1.
          1    1    6    6  503    0  0.97524337478E+02 -0.93295185084E+02 -0.61576804904E+03  0.63038502376E+03  0.00000000000E+00 0. -1.
         -1    1    6    6    0  503  0.12900677781E+03 -0.16542927903E+03 -0.16284438937E+04  0.16419010658E+04  0.00000000000E+00 0.  1.
<mgrwt>
<rscale>  0 0.15540145E+04</rscale>
<asrwt>0</asrwt>
<pdfrwt beam="1">  1        2 0.23457980E-01 0.15540145E+04</pdfrwt>
<pdfrwt beam="2">  1       -1 0.60916200E+00 0.15540145E+04</pdfrwt>
<totfact> 0.10334104E-01</totfact>
</mgrwt>
</event>
<event>
12    6  0.1553355E-007  0.1657055E+04  0.7818608E-02  0.8786244E-01
         -1   -1    0    0    0  501 -0.00000000000E+00  0.00000000000E+00  0.77253267366E+03  0.77253267366E+03  0.00000000000E+00 0.  1.
          2   -1    0    0  501    0  0.00000000000E+00 -0.00000000000E+00 -0.88858136778E+03  0.88858136778E+03  0.00000000000E+00 0. -1.
         24    2    1    2    0    0 -0.55282798183E+03 -0.14426889828E+03 -0.15306069197E+03  0.59667326228E+03  0.78480022871E+02 0.  0.
        254    2    1    2    0    0  0.55282798183E+03  0.14426889828E+03  0.37011997861E+02  0.10644407792E+04  0.89734719694E+03 0.  0.
         23    2    4    4    0    0  0.34393756236E+03 -0.36225426234E+03 -0.33853741966E+01  0.50772720972E+03  0.90852965538E+02 0.  0.
         23    2    4    4    0    0  0.20889041947E+03  0.50652316063E+03  0.40397372057E+02  0.55671356944E+03  0.89984060430E+02 0.  0.
          2    1    3    3  502    0 -0.11201471305E+03 -0.23131650576E+02  0.61550470792E+00  0.11437984108E+03  0.00000000000E+00 0. -1.
         -1    1    3    3    0  502 -0.44081326877E+03 -0.12113724771E+03 -0.15367619668E+03  0.48229342120E+03  0.00000000000E+00 0.  1.
         11    1    5    5    0    0  0.16829056268E+03 -0.24177870569E+03  0.39245938255E+01  0.29460831361E+03  0.00000000000E+00 0. -1.
        -11    1    5    5    0    0  0.17564699968E+03 -0.12047555665E+03 -0.73099680221E+01  0.21311889611E+03  0.00000000000E+00 0.  1.
          1    1    6    6  503    0  0.93136046952E+02  0.12519669391E+03  0.23935767153E+02  0.15786531081E+03  0.00000000000E+00 0. -1.
         -1    1    6    6    0  503  0.11575437252E+03  0.38132646672E+03  0.16461604905E+02  0.39884825864E+03  0.00000000000E+00 0.  1.
<mgrwt>
<rscale>  0 0.16570554E+04</rscale>
<asrwt>0</asrwt>
<pdfrwt beam="1">  1        2 0.13670483E+00 0.16570554E+04</pdfrwt>
<pdfrwt beam="2">  1       -1 0.11885118E+00 0.16570554E+04</pdfrwt>
<totfact> 0.20621000E+01</totfact>
</mgrwt>
</event>
<event>
12    6  0.1553355E-007  0.1234314E+04  0.7818608E-02  0.9083341E-01
          2   -1    0    0  501    0  0.00000000000E+00  0.00000000000E+00  0.89606542792E+03  0.89606542792E+03  0.00000000000E+00 0. -1.
         -1   -1    0    0    0  501 -0.00000000000E+00 -0.00000000000E+00 -0.42506118686E+03  0.42506118686E+03  0.00000000000E+00 0.  1.
         24    2    1    2    0    0  0.11466431816E+03  0.11745642098E+03  0.34705650567E+03  0.39111921271E+03  0.74713477580E+02 0.  0.
        254    2    1    2    0    0 -0.11466431816E+03 -0.11745642098E+03  0.12394773539E+03  0.93000740207E+03  0.90697674177E+03 0.  0.
         23    2    4    4    0    0  0.14240834425E+03  0.33781172735E+03  0.12884759331E+03  0.39924599865E+03  0.91644778852E+02 0.  0.
         23    2    4    4    0    0 -0.25707266240E+03 -0.45526814833E+03 -0.48998579148E+01  0.53076140342E+03  0.91259071431E+02 0.  0.
          2    1    3    3  502    0  0.11608817932E+03  0.12599358326E+03  0.32428305200E+03  0.36675652171E+03  0.00000000000E+00 0. -1.
         -1    1    3    3    0  502 -0.14238611683E+01 -0.85371622841E+01  0.22773453672E+02  0.24362690998E+02  0.00000000000E+00 0.  1.
         11    1    5    5    0    0  0.32992841118E+02  0.10155884097E+03 -0.41901667563E+01  0.10686572529E+03  0.00000000000E+00 0.  1.
        -11    1    5    5    0    0  0.10941550313E+03  0.23625288638E+03  0.13303776006E+03  0.29238027336E+03  0.00000000000E+00 0. -1.
          3    1    6    6  503    0 -0.22795760666E+03 -0.37855801190E+03 -0.35203432493E+02  0.44329462039E+03  0.00000000000E+00 0. -1.
         -3    1    6    6    0  503 -0.29115055740E+02 -0.76710136426E+02  0.30303574578E+02  0.87466783029E+02  0.00000000000E+00 0.  1.
<mgrwt>
<rscale>  0 0.12343138E+04</rscale>
<asrwt>0</asrwt>
<pdfrwt beam="1">  1        2 0.13785622E+00 0.12343138E+04</pdfrwt>
<pdfrwt beam="2">  1       -1 0.65394029E-01 0.12343138E+04</pdfrwt>
<totfact> 0.78589577E+01</totfact>
</mgrwt>
</event>
<event>
12    6  0.1553355E-007  0.2345421E+04  0.7818608E-02  0.8460224E-01
          2   -1    0    0  501    0  0.00000000000E+00  0.00000000000E+00  0.16941969538E+04  0.16941969538E+04  0.00000000000E+00 0. -1.
         -1   -1    0    0    0  501 -0.00000000000E+00 -0.00000000000E+00 -0.81174147828E+03  0.81174147828E+03  0.00000000000E+00 0.  1.
         24    2    1    2    0    0  0.47088575481E+02  0.48933547403E+03 -0.55027397114E+03  0.74213023451E+03  0.79305116885E+02 0.  0.
        254    2    1    2    0    0 -0.47088575481E+02 -0.48933547403E+03  0.14327294466E+04  0.17638081975E+04  0.90368088966E+03 0.  0.
         23    2    4    4    0    0 -0.37816888937E+03 -0.47019861103E+03  0.12102740826E+04  0.13554014158E+04  0.90836117468E+02 0.  0.
         23    2    4    4    0    0  0.33108031389E+03 -0.19136863007E+02  0.22245536400E+03  0.40840678170E+03  0.85611427982E+02 0.  0.
          4    1    3    3  502    0  0.28096868961E+02  0.18556419806E+03 -0.26683243380E+03  0.32622546402E+03  0.00000000000E+00 0. -1.
         -3    1    3    3    0  502  0.18991706520E+02  0.30377127598E+03 -0.28344153734E+03  0.41590477049E+03  0.00000000000E+00 0.  1.
         11    1    5    5    0    0 -0.34207503003E+03 -0.38442832162E+03  0.10662646740E+04  0.11839429106E+04  0.00000000000E+00 0. -1.
        -11    1    5    5    0    0 -0.36093859338E+02 -0.85770289404E+02  0.14400940864E+03  0.17145850520E+03  0.00000000000E+00 0.  1.
          1    1    6    6  503    0  0.12420323856E+03 -0.39904046890E+02  0.11718093598E+03  0.17535720454E+03  0.00000000000E+00 0. -1.
         -1    1    6    6    0  503  0.20687707532E+03  0.20767183883E+02  0.10527442802E+03  0.23304957716E+03  0.00000000000E+00 0.  1.
<mgrwt>
<rscale>  0 0.23454210E+04</rscale>
<asrwt>0</asrwt>
<pdfrwt beam="1">  1        2 0.26064568E+00 0.23454210E+04</pdfrwt>
<pdfrwt beam="2">  1       -1 0.12488330E+00 0.23454210E+04</pdfrwt>
<totfact> 0.57000298E+00</totfact>
</mgrwt>
</event>
<event>
12    6  0.1553355E-007  0.2297978E+04  0.7818608E-02  0.8478719E-01
         -1   -1    0    0    0  501 -0.00000000000E+00  0.00000000000E+00  0.42283724673E+03  0.42283724673E+03  0.00000000000E+00 0.  1.
          2   -1    0    0  501    0  0.00000000000E+00 -0.00000000000E+00 -0.31221848059E+04  0.31221848059E+04  0.00000000000E+00 0. -1.
         24    2    1    2    0    0  0.12395162145E+03 -0.13441742598E+03  0.32694700389E+03  0.38292907688E+03  0.79424717189E+02 0.  0.
        254    2    1    2    0    0 -0.12395162145E+03  0.13441742598E+03 -0.30262945631E+04  0.31620929758E+04  0.89829903486E+03 0.  0.
         23    2    4    4    0    0 -0.96285862042E+02  0.42987948953E+02 -0.65229309939E+01  0.13943446718E+03  0.90997203382E+02 0.  0.
         23    2    4    4    0    0 -0.27665759405E+02  0.91429477023E+02 -0.30197716321E+04  0.30226585086E+04  0.91208585827E+02 0.  0.
          4    1    3    3  502    0  0.17647269750E+02  0.93196848178E+01  0.24545724137E+02  0.31635031660E+02  0.00000000000E+00 0. -1.
         -3    1    3    3    0  502  0.10630435170E+03 -0.14373711079E+03  0.30240127975E+03  0.35129404522E+03  0.00000000000E+00 0.  1.
         11    1    5    5    0    0 -0.74485053835E+02 -0.13954133495E+02  0.95462088445E+01  0.76379782598E+02  0.00000000000E+00 0.  1.
        -11    1    5    5    0    0 -0.21800808207E+02  0.56942082448E+02 -0.16069139838E+02  0.63054684578E+02  0.00000000000E+00 0. -1.
          1    1    6    6  503    0 -0.22044826340E+02  0.25031010071E+02 -0.26630715947E+03  0.26838783321E+03  0.00000000000E+00 0. -1.
         -1    1    6    6    0  503 -0.56209330643E+01  0.66398466952E+02 -0.27534644726E+04  0.27542706754E+04  0.00000000000E+00 0.  1.
<mgrwt>
<rscale>  0 0.22979783E+04</rscale>
<asrwt>0</asrwt>
<pdfrwt beam="1">  1        2 0.48033612E+00 0.22979783E+04</pdfrwt>
<pdfrwt beam="2">  1       -1 0.65051885E-01 0.22979783E+04</pdfrwt>
<totfact> 0.36036591E+00</totfact>
</mgrwt>
</event>
<event>
12    6  0.1553355E-007  0.1826103E+04  0.7818608E-02  0.8692540E-01
          2   -1    0    0  501    0  0.00000000000E+00  0.00000000000E+00  0.82653709632E+03  0.82653709632E+03  0.00000000000E+00 0. -1.
         -1   -1    0    0    0  501 -0.00000000000E+00 -0.00000000000E+00 -0.10086213245E+04  0.10086213245E+04  0.00000000000E+00 0.  1.
         24    2    1    2    0    0 -0.21700219972E+03  0.34329385836E+03 -0.63438596826E+03  0.75773849042E+03  0.82349470369E+02 0.  0.
        254    2    1    2    0    0  0.21700219972E+03 -0.34329385836E+03  0.45230174012E+03  0.10774199304E+04  0.88955956200E+03 0.  0.
         23    2    4    4    0    0  0.15331058620E+03 -0.44393386713E+03  0.66382601576E+03  0.81865222588E+03  0.94578398747E+02 0.  0.
         23    2    4    4    0    0  0.63691613516E+02  0.10064000877E+03 -0.21152427564E+03  0.25876770448E+03  0.89627968279E+02 0.  0.
          4    1    3    3  502    0 -0.28953398504E+02  0.29073311076E+02 -0.29106839580E+02  0.50306707428E+02  0.00000000000E+00 0. -1.
         -3    1    3    3    0  502 -0.18804880121E+03  0.31422054728E+03 -0.60527912868E+03  0.70743178299E+03  0.00000000000E+00 0.  1.
         11    1    5    5    0    0  0.64851561758E+02 -0.20206275323E+03  0.38117240361E+03  0.43626538091E+03  0.00000000000E+00 0.  1.
        -11    1    5    5    0    0  0.88459024442E+02 -0.24187111390E+03  0.28265361215E+03  0.38238684497E+03  0.00000000000E+00 0. -1.
          2    1    6    6  503    0  0.58830368878E+01  0.85860098835E+02 -0.15083014191E+03  0.17365568923E+03  0.00000000000E+00 0. -1.
         -2    1    6    6    0  503  0.57808576628E+02  0.14779909935E+02 -0.60694133731E+02  0.85112015244E+02  0.00000000000E+00 0.  1.
<mgrwt>
<rscale>  0 0.18261029E+04</rscale>
<asrwt>0</asrwt>
<pdfrwt beam="1">  1        2 0.12715955E+00 0.18261029E+04</pdfrwt>
<pdfrwt beam="2">  1       -1 0.15517251E+00 0.18261029E+04</pdfrwt>
<totfact> 0.11279716E+01</totfact>
</mgrwt>
</event>
<event>
12    6  0.1553355E-007  0.1879108E+04  0.7818608E-02  0.8665326E-01
          2   -1    0    0  501    0  0.00000000000E+00  0.00000000000E+00  0.67937566051E+03  0.67937566051E+03  0.00000000000E+00 0. -1.
         -1   -1    0    0    0  501 -0.00000000000E+00 -0.00000000000E+00 -0.12993724280E+04  0.12993724280E+04  0.00000000000E+00 0.  1.
         24    2    1    2    0    0  0.12905879094E+03 -0.67573750309E+03 -0.47694290028E+03  0.84096505132E+03  0.80438441102E+02 0.  0.
        254    2    1    2    0    0 -0.12905879094E+03  0.67573750309E+03 -0.14305386716E+03  0.11377830372E+04  0.89487903435E+03 0.  0.
         23    2    4    4    0    0  0.73346730480E+02 -0.16535559405E+03 -0.17491710830E+03  0.26736248409E+03  0.90357555129E+02 0.  0.
         23    2    4    4    0    0 -0.20240552142E+03  0.84109309714E+03  0.31863241132E+02  0.87042055306E+03  0.90615009200E+02 0.  0.
          2    1    3    3  502    0  0.13336593306E+03 -0.57089705315E+03 -0.42334586209E+03  0.72314012221E+03  0.00000000000E+00 0. -1.
         -1    1    3    3    0  502 -0.43071421189E+01 -0.10484044994E+03 -0.53597038182E+02  0.11782492910E+03  0.00000000000E+00 0.  1.
         11    1    5    5    0    0 -0.19037078468E+02 -0.10122457913E+02 -0.18733964083E+02  0.28562841615E+02  0.00000000000E+00 0. -1.
        -11    1    5    5    0    0  0.92383808948E+02 -0.15523313614E+03 -0.15618314421E+03  0.23879964248E+03  0.00000000000E+00 0.  1.
          4    1    6    6  503    0 -0.15542994983E+01 -0.13398724352E+01 -0.30450361573E+01  0.36719681742E+01  0.00000000000E+00 0. -1.
         -4    1    6    6    0  503 -0.20085122193E+03  0.84243296958E+03  0.34908277290E+02  0.86674858489E+03  0.00000000000E+00 0.  1.
<mgrwt>
<rscale>  0 0.18791083E+04</rscale>
<asrwt>0</asrwt>
<pdfrwt beam="1">  1        2 0.10451933E+00 0.18791083E+04</pdfrwt>
<pdfrwt beam="2">  1       -1 0.19990345E+00 0.18791083E+04</pdfrwt>
<totfact> 0.68691789E+00</totfact>
</mgrwt>
</event>
<event>
12    6  0.1553355E-007  0.2090074E+04  0.7818608E-02  0.8565629E-01
          2   -1    0    0  501    0  0.00000000000E+00  0.00000000000E+00  0.21317112685E+04  0.21317112685E+04  0.00000000000E+00 0. -1.
         -1   -1    0    0    0  501 -0.00000000000E+00 -0.00000000000E+00 -0.51231242690E+03  0.51231242690E+03  0.00000000000E+00 0.  1.
         24    2    1    2    0    0  0.39185100008E+03 -0.41154071560E+03  0.14606394486E+04  0.15693783989E+04  0.81043157772E+02 0.  0.
        254    2    1    2    0    0 -0.39185100008E+03  0.41154071560E+03  0.15875939302E+03  0.10746452965E+04  0.89818984714E+03 0.  0.
         23    2    4    4    0    0 -0.82675380865E+02 -0.25114002844E+03 -0.95414166483E+02  0.29521674369E+03  0.90235969001E+02 0.  0.
         23    2    4    4    0    0 -0.30917561922E+03  0.66268074404E+03  0.25417355950E+03  0.77942855278E+03  0.90384393077E+02 0.  0.
          4    1    3    3  502    0  0.38988550668E+03 -0.40230147326E+03  0.14528919558E+04  0.15571615905E+04  0.00000000000E+00 0. -1.
         -1    1    3    3    0  502  0.19654934032E+01 -0.92392423400E+01  0.77474927126E+01  0.12216808367E+02  0.00000000000E+00 0.  1.
         11    1    5    5    0    0 -0.83601417773E+01 -0.15248001213E+03 -0.30666583173E+02  0.15575777795E+03  0.00000000000E+00 0.  1.
        -11    1    5    5    0    0 -0.74315239087E+02 -0.98660016311E+02 -0.64747583310E+02  0.13945896573E+03  0.00000000000E+00 0. -1.
          4    1    6    6  503    0 -0.72334429184E+01  0.39151160999E+02  0.34394368122E+02  0.52612818424E+02  0.00000000000E+00 0. -1.
         -4    1    6    6    0  503 -0.30194217630E+03  0.62352958304E+03  0.21977919138E+03  0.72681573436E+03  0.00000000000E+00 0.  1.
<mgrwt>
<rscale>  0 0.20900738E+04</rscale>
<asrwt>0</asrwt>
<pdfrwt beam="1">  1        2 0.32795557E+00 0.20900738E+04</pdfrwt>
<pdfrwt beam="2">  1       -1 0.78817298E-01 0.20900738E+04</pdfrwt>
<totfact> 0.95345250E+00</totfact>
</mgrwt>
</event>
<event>
12    6  0.1553355E-007  0.1854838E+04  0.7818608E-02  0.8677669E-01
          2   -1    0    0  501    0  0.00000000000E+00  0.00000000000E+00  0.19993339630E+04  0.19993339630E+04  0.00000000000E+00 0. -1.
         -1   -1    0    0    0  501 -0.00000000000E+00 -0.00000000000E+00 -0.43019638165E+03  0.43019638165E+03  0.00000000000E+00 0.  1.
         24    2    1    2    0    0  0.38107143046E+03 -0.44995941930E+03  0.92973546512E+02  0.60223799455E+03  0.79797290707E+02 0.  0.
        254    2    1    2    0    0 -0.38107143046E+03  0.44995941930E+03  0.14761640348E+04  0.18272923501E+04  0.90125366063E+03 0.  0.
         23    2    4    4    0    0  0.20162608268E+03  0.41801748034E+03  0.52189346590E+03  0.70448860326E+03  0.92410558290E+02 0.  0.
         23    2    4    4    0    0 -0.58269751314E+03  0.31941938959E+02  0.95427056891E+03  0.11228037468E+04  0.97464126036E+02 0.  0.
          4    1    3    3  502    0  0.31208358417E+03 -0.32848795434E+03  0.92982247513E+02  0.46254318502E+03  0.00000000000E+00 0. -1.
         -3    1    3    3    0  502  0.68987846285E+02 -0.12147146496E+03 -0.87010015615E-02  0.13969480953E+03  0.00000000000E+00 0.  1.
         11    1    5    5    0    0  0.19444588064E+03  0.42218085280E+03  0.51065502272E+03  0.69051750535E+03  0.00000000000E+00 0. -1.
        -11    1    5    5    0    0  0.71802020420E+01 -0.41633724588E+01  0.11238443180E+02  0.13971097906E+02  0.00000000000E+00 0.  1.
          1    1    6    6  503    0 -0.34994020550E+03  0.36391056237E+01  0.48335131981E+03  0.59674105681E+03  0.00000000000E+00 0. -1.
         -1    1    6    6    0  503 -0.23275730763E+03  0.28302833335E+02  0.47091924910E+03  0.52606268999E+03  0.00000000000E+00 0.  1.
<mgrwt>
<rscale>  0 0.18548383E+04</rscale>
<asrwt>0</asrwt>
<pdfrwt beam="1">  1        2 0.30758984E+00 0.18548383E+04</pdfrwt>
<pdfrwt beam="2">  1       -1 0.66184060E-01 0.18548383E+04</pdfrwt>
<totfact> 0.16559116E+01</totfact>
</mgrwt>
</event>
<event>
12    6  0.1553355E-007  0.1612691E+04  0.7818608E-02  0.8812789E-01
          2   -1    0    0  501    0  0.00000000000E+00  0.00000000000E+00  0.40250833795E+04  0.40250833795E+04  0.00000000000E+00 0. -1.
         -1   -1    0    0    0  501 -0.00000000000E+00 -0.00000000000E+00 -0.16153538653E+03  0.16153538653E+03  0.00000000000E+00 0.  1.
         24    2    1    2    0    0 -0.50525235351E+02  0.19019716755E+03  0.26965632994E+04  0.27050994068E+04  0.85915139408E+02 0.  0.
        254    2    1    2    0    0  0.50525235351E+02 -0.19019716755E+03  0.11669846936E+04  0.14815193592E+04  0.89124551878E+03 0.  0.
         23    2    4    4    0    0  0.17647613858E+03 -0.50777423549E+03  0.83017880849E+03  0.99327582642E+03  0.91768794108E+02 0.  0.
         23    2    4    4    0    0 -0.12595090322E+03  0.31757706794E+03  0.33680588511E+03  0.48824353282E+03  0.90690236472E+02 0.  0.
          4    1    3    3  502    0 -0.37642622202E+02  0.17770431184E+03  0.19808730888E+04  0.19891842507E+04  0.00000000000E+00 0. -1.
         -3    1    3    3    0  502 -0.12882613149E+02  0.12492855712E+02  0.71569021063E+03  0.71591515612E+03  0.00000000000E+00 0.  1.
         11    1    5    5    0    0  0.14886681446E+03 -0.35008402589E+03  0.64166320449E+03  0.74595698376E+03  0.00000000000E+00 0. -1.
        -11    1    5    5    0    0  0.27609324116E+02 -0.15769020960E+03  0.18851560401E+03  0.24731884266E+03  0.00000000000E+00 0.  1.
          1    1    6    6  503    0 -0.75942199201E+02  0.27852046771E+03  0.25898575585E+03  0.38783307013E+03  0.00000000000E+00 0. -1.
         -1    1    6    6    0  503 -0.50008704024E+02  0.39056600230E+02  0.77820129263E+02  0.10041046269E+03  0.00000000000E+00 0.  1.
<mgrwt>
<rscale>  0 0.16126914E+04</rscale>
<asrwt>0</asrwt>
<pdfrwt beam="1">  1        2 0.61924352E+00 0.16126914E+04</pdfrwt>
<pdfrwt beam="2">  1       -1 0.24851601E-01 0.16126914E+04</pdfrwt>
<totfact> 0.51419046E+00</totfact>
</mgrwt>
</event>
<event>
12    6  0.1553355E-007  0.1423521E+04  0.7818608E-02  0.8936967E-01
         -1   -1    0    0    0  501 -0.00000000000E+00  0.00000000000E+00  0.55577735105E+03  0.55577735105E+03  0.00000000000E+00 0.  1.
          2   -1    0    0  501    0  0.00000000000E+00 -0.00000000000E+00 -0.91152171485E+03  0.91152171485E+03  0.00000000000E+00 0. -1.
         24    2    1    2    0    0 -0.22997252449E+03  0.23012216610E+03  0.16767473871E+03  0.37474087095E+03  0.80450786273E+02 0.  0.
        254    2    1    2    0    0  0.22997252449E+03 -0.23012216610E+03 -0.52341910251E+03  0.10925581950E+04  0.90214870123E+03 0.  0.
         23    2    4    4    0    0  0.49648571202E+03 -0.37390181792E+03 -0.24616188026E+03  0.67435222658E+03  0.88626308238E+02 0.  0.
         23    2    4    4    0    0 -0.26651318753E+03  0.14377965181E+03 -0.27725722224E+03  0.41820596838E+03  0.79516019112E+02 0.  0.
          4    1    3    3  502    0 -0.12465055960E+02  0.14656447352E+02  0.37311850759E+02  0.41980510670E+02  0.00000000000E+00 0. -1.
         -1    1    3    3    0  502 -0.21750746853E+03  0.21546571875E+03  0.13036288795E+03  0.33276036028E+03  0.00000000000E+00 0.  1.
         11    1    5    5    0    0  0.39057316559E+03 -0.24681501874E+03 -0.17111975770E+03  0.49269363973E+03  0.00000000000E+00 0.  1.
        -11    1    5    5    0    0  0.10591254643E+03 -0.12708679917E+03 -0.75042122565E+02  0.18165858684E+03  0.00000000000E+00 0. -1.
          1    1    6    6  503    0 -0.18536766745E+03  0.11279391171E+03 -0.14867934185E+03  0.26303837239E+03  0.00000000000E+00 0. -1.
         -1    1    6    6    0  503 -0.81145520081E+02  0.30985740104E+02 -0.12857788039E+03  0.15516759599E+03  0.00000000000E+00 0.  1.
<mgrwt>
<rscale>  0 0.14235212E+04</rscale>
<asrwt>0</asrwt>
<pdfrwt beam="1">  1        2 0.14023411E+00 0.14235212E+04</pdfrwt>
<pdfrwt beam="2">  1       -1 0.85504207E-01 0.14235212E+04</pdfrwt>
<totfact> 0.43180049E+01</totfact>
</mgrwt>
</event>
<event>
12    6  0.1553355E-007  0.1572542E+04  0.7818608E-02  0.8837596E-01
         -1   -1    0    0    0  501 -0.00000000000E+00  0.00000000000E+00  0.31089535323E+03  0.31089535323E+03  0.00000000000E+00 0.  1.
          2   -1    0    0  501    0  0.00000000000E+00 -0.00000000000E+00 -0.19885218882E+04  0.19885218882E+04  0.00000000000E+00 0. -1.
         24    2    1    2    0    0  0.44900262897E+02 -0.34959841565E+03 -0.11011866185E+04  0.11593807153E+04  0.85537059689E+02 0.  0.
        254    2    1    2    0    0 -0.44900262897E+02  0.34959841565E+03 -0.57643991652E+03  0.11400365261E+04  0.91824028318E+03 0.  0.
         23    2    4    4    0    0 -0.30700939476E+02 -0.18172722040E+03 -0.56373450350E+03  0.60051777154E+03  0.94115212247E+02 0.  0.
         23    2    4    4    0    0 -0.14199323421E+02  0.53132563604E+03 -0.12705413015E+02  0.53951875456E+03  0.91708814726E+02 0.  0.
          4    1    3    3  502    0  0.23076223343E+02 -0.30258264719E+03 -0.84084145497E+03  0.89392568084E+03  0.00000000000E+00 0. -1.
         -3    1    3    3    0  502  0.21824039554E+02 -0.47015768453E+02 -0.26034516350E+03  0.26545503451E+03  0.00000000000E+00 0.  1.
         11    1    5    5    0    0 -0.23854890420E+02 -0.17686608987E+03 -0.56454485074E+03  0.59208239126E+03  0.00000000000E+00 0.  1.
        -11    1    5    5    0    0 -0.68460490559E+01 -0.48611305284E+01  0.81034724404E+00  0.84353802727E+01  0.00000000000E+00 0. -1.
          2    1    6    6  503    0 -0.31957947545E+02  0.13864468533E+03 -0.32476107591E+02  0.14593956539E+03  0.00000000000E+00 0. -1.
         -2    1    6    6    0  503  0.17758624124E+02  0.39268095071E+03  0.19770694576E+02  0.39357918917E+03  0.00000000000E+00 0.  1.
<mgrwt>
<rscale>  0 0.15725422E+04</rscale>
<asrwt>0</asrwt>
<pdfrwt beam="1">  1        2 0.30592646E+00 0.15725422E+04</pdfrwt>
<pdfrwt beam="2">  1       -1 0.47830053E-01 0.15725422E+04</pdfrwt>
<totfact> 0.32414660E+01</totfact>
</mgrwt>
</event>
<event>
12    6  0.1553355E-007  0.1242033E+04  0.7818608E-02  0.9076841E-01
          2   -1    0    0  501    0  0.00000000000E+00  0.00000000000E+00  0.14066295312E+04  0.14066295312E+04  0.00000000000E+00 0. -1.
         -1   -1    0    0    0  501 -0.00000000000E+00 -0.00000000000E+00 -0.27417406748E+03  0.27417406748E+03  0.00000000000E+00 0.  1.
         24    2    1    2    0    0  0.10375883730E+02  0.20526589272E+03  0.53919148176E+03  0.58268230309E+03  0.80928775181E+02 0.  0.
        254    2    1    2    0    0 -0.10375883730E+02 -0.20526589272E+03  0.59326398196E+03  0.10981212956E+04  0.90092534754E+03 0.  0.
         23    2    4    4    0    0 -0.31405287163E+03  0.13865037380E+03  0.16971670520E+02  0.35598276913E+03  0.92642117755E+02 0.  0.
         23    2    4    4    0    0  0.30367698790E+03 -0.34391626652E+03  0.57629231144E+03  0.74213852645E+03  0.90325261467E+02 0.  0.
          2    1    3    3  502    0 -0.18452472520E+02  0.13584589220E+03  0.41961427639E+03  0.44144166220E+03  0.00000000000E+00 0. -1.
         -1    1    3    3    0  502  0.28828356250E+02  0.69420000518E+02  0.11957720537E+03  0.14124064089E+03  0.00000000000E+00 0.  1.
         11    1    5    5    0    0 -0.78695909041E+02  0.70816142481E+02 -0.21538219274E+02  0.10803641527E+03  0.00000000000E+00 0. -1.
        -11    1    5    5    0    0 -0.23535696259E+03  0.67834231318E+02  0.38509889794E+02  0.24794635386E+03  0.00000000000E+00 0.  1.
          4    1    6    6  503    0  0.18224161920E+03 -0.22875144273E+03  0.42889288412E+03  0.51912266023E+03  0.00000000000E+00 0. -1.
         -4    1    6    6    0  503  0.12143536870E+03 -0.11516482379E+03  0.14739942732E+03  0.22301586622E+03  0.00000000000E+00 0.  1.
<mgrwt>
<rscale>  0 0.12420328E+04</rscale>
<asrwt>0</asrwt>
<pdfrwt beam="1">  1        2 0.21640454E+00 0.12420328E+04</pdfrwt>
<pdfrwt beam="2">  1       -1 0.42180627E-01 0.12420328E+04</pdfrwt>
<totfact> 0.88814754E+01</totfact>
</mgrwt>
</event>
<event>
12    6  0.2011911E-007  0.2273980E+04  0.7818608E-02  0.8488252E-01
          2   -1    0    0  501    0  0.00000000000E+00  0.00000000000E+00  0.19361368894E+04  0.19361368894E+04  0.00000000000E+00 0. -1.
         -1   -1    0    0    0  501 -0.00000000000E+00 -0.00000000000E+00 -0.66769356624E+03  0.66769356624E+03  0.00000000000E+00 0.  1.
         24    2    1    2    0    0  0.61809201109E+03  0.21722585843E+03 -0.25605814359E+03  0.70798944021E+03  0.80364586731E+02 0.  0.
        254    2    1    2    0    0 -0.61809201109E+03 -0.21722585843E+03  0.15245014668E+04  0.18958410154E+04  0.91699706977E+03 0.  0.
         23    2    4    4    0    0 -0.46223587947E+03 -0.17019269706E+03  0.16136101356E+04  0.16895077968E+04  0.89840765612E+02 0.  0.
         23    2    4    4    0    0 -0.15585613162E+03 -0.47033161375E+02 -0.89108668887E+02  0.20633321866E+03  0.90165349323E+02 0.  0.
          4    1    3    3  502    0  0.33866699010E+03  0.10251964143E+03 -0.17759965844E+03  0.39591317955E+03  0.00000000000E+00 0. -1.
         -3    1    3    3    0  502  0.27942502099E+03  0.11470621700E+03 -0.78458485148E+02  0.31207626066E+03  0.00000000000E+00 0.  1.
         11    1    5    5    0    0 -0.44486450139E+03 -0.17053305968E+03  0.14805493856E+04  0.15553174699E+04  0.00000000000E+00 0.  1.
        -11    1    5    5    0    0 -0.17371378083E+02  0.34036262551E+00  0.13306075008E+03  0.13419032690E+03  0.00000000000E+00 0. -1.
          2    1    6    6  503    0 -0.91251031348E+02 -0.11568572068E+02 -0.95207493614E+02  0.13238220961E+03  0.00000000000E+00 0.  1.
         -2    1    6    6    0  503 -0.64605100269E+02 -0.35464589307E+02  0.60988247263E+01  0.73951009043E+02  0.00000000000E+00 0. -1.
<mgrwt>
<rscale>  0 0.22739799E+04</rscale>
<asrwt>0</asrwt>
<pdfrwt beam="1">  1        2 0.29786721E+00 0.22739799E+04</pdfrwt>
<pdfrwt beam="2">  1       -1 0.10272209E+00 0.22739799E+04</pdfrwt>
<totfact> 0.67170032E+00</totfact>
</mgrwt>
</event>
<event>
12    6  0.1553355E-007  0.1748725E+04  0.7818608E-02  0.8734052E-01
         -1   -1    0    0    0  501 -0.00000000000E+00  0.00000000000E+00  0.11701423055E+04  0.11701423055E+04  0.00000000000E+00 0.  1.
          2   -1    0    0  501    0  0.00000000000E+00 -0.00000000000E+00 -0.65334801868E+03  0.65334801868E+03  0.00000000000E+00 0. -1.
         24    2    1    2    0    0 -0.18573477006E+03  0.51108077486E+03  0.51326624698E+03  0.75198415690E+03  0.79605079592E+02 0.  0.
        254    2    1    2    0    0  0.18573477006E+03 -0.51108077486E+03  0.35280397954E+01  0.10715061672E+04  0.92326164013E+03 0.  0.
         23    2    4    4    0    0 -0.25835964446E+02  0.13003349272E+03 -0.28884072491E+03  0.33019890550E+03  0.89588763462E+02 0.  0.
         23    2    4    4    0    0  0.21157073451E+03 -0.64111426758E+03  0.29236876471E+03  0.74130726174E+03  0.90924594809E+02 0.  0.
          4    1    3    3  502    0 -0.95044547370E+02  0.21097803715E+03  0.17023011214E+03  0.28726901891E+03  0.00000000000E+00 0. -1.
         -3    1    3    3    0  502 -0.90690222693E+02  0.30010273771E+03  0.34303613484E+03  0.46471513799E+03  0.00000000000E+00 0.  1.
         11    1    5    5    0    0 -0.76073633152E+01  0.52943121212E+02 -0.21620431002E+03  0.22272213570E+03  0.00000000000E+00 0. -1.
        -11    1    5    5    0    0 -0.18228601131E+02  0.77090371508E+02 -0.72636414896E+02  0.10747676980E+03  0.00000000000E+00 0.  1.
          2    1    6    6  503    0  0.20117826829E+03 -0.57330348810E+03  0.28850638571E+03  0.67259610442E+03  0.00000000000E+00 0. -1.
         -2    1    6    6    0  503  0.10392466221E+02 -0.67810779484E+02  0.38623789999E+01  0.68711157318E+02  0.00000000000E+00 0.  1.
<mgrwt>
<rscale>  0 0.17487254E+04</rscale>
<asrwt>0</asrwt>
<pdfrwt beam="1">  1        2 0.10051508E+00 0.17487254E+04</pdfrwt>
<pdfrwt beam="2">  1       -1 0.18002189E+00 0.17487254E+04</pdfrwt>
<totfact> 0.10061152E+01</totfact>
</mgrwt>
</event>
<event>
12    6  0.1553355E-007  0.2357956E+04  0.7818608E-02  0.8455414E-01
         -1   -1    0    0    0  501 -0.00000000000E+00  0.00000000000E+00  0.41923395825E+03  0.41923395825E+03  0.00000000000E+00 0.  1.
          2   -1    0    0  501    0  0.00000000000E+00 -0.00000000000E+00 -0.33155464110E+04  0.33155464110E+04  0.00000000000E+00 0. -1.
         24    2    1    2    0    0 -0.19710601244E+03 -0.98662777785E+03 -0.13348664429E+04  0.16734282228E+04  0.78793681606E+02 0.  0.
        254    2    1    2    0    0  0.19710601244E+03  0.98662777785E+03 -0.15614460099E+04  0.20613521465E+04  0.89374150510E+03 0.  0.
         23    2    4    4    0    0 -0.31458181310E+02  0.10786697916E+04 -0.12702286994E+04  0.16693594314E+04  0.93604626208E+02 0.  0.
         23    2    4    4    0    0  0.22856419375E+03 -0.92042013745E+02 -0.29121731048E+03  0.39199271507E+03  0.90207781194E+02 0.  0.
          4    1    3    3  502    0 -0.10162802223E+03 -0.49694857148E+03 -0.73814012818E+03  0.89562100603E+03  0.00000000000E+00 0. -1.
         -1    1    3    3    0  502 -0.95477990204E+02 -0.48967920637E+03 -0.59672631471E+03  0.77780721675E+03  0.00000000000E+00 0.  1.
         11    1    5    5    0    0 -0.18833495321E+02  0.10624137976E+04 -0.12447854626E+04  0.16366333206E+04  0.00000000000E+00 0.  1.
        -11    1    5    5    0    0 -0.12624685989E+02  0.16255993952E+02 -0.25443236774E+02  0.32726110878E+02  0.00000000000E+00 0. -1.
          2    1    6    6  503    0  0.64409843316E+02  0.12944654787E+02 -0.94610692889E+02  0.11518409271E+03  0.00000000000E+00 0. -1.
         -2    1    6    6    0  503  0.16415435043E+03 -0.10498666853E+03 -0.19660661759E+03  0.27680862236E+03  0.00000000000E+00 0.  1.
<mgrwt>
<rscale>  0 0.23579564E+04</rscale>
<asrwt>0</asrwt>
<pdfrwt beam="1">  1        2 0.51008403E+00 0.23579564E+04</pdfrwt>
<pdfrwt beam="2">  1       -1 0.64497536E-01 0.23579564E+04</pdfrwt>
<totfact> 0.27250730E+00</totfact>
</mgrwt>
</event>
<event>
12    6  0.1553355E-007  0.2695867E+04  0.7818608E-02  0.8336347E-01
          2   -1    0    0  501    0  0.00000000000E+00  0.00000000000E+00  0.13679766760E+04  0.13679766760E+04  0.00000000000E+00 0. -1.
         -1   -1    0    0    0  501 -0.00000000000E+00 -0.00000000000E+00 -0.13281841290E+04  0.13281841290E+04  0.00000000000E+00 0.  1.
         24    2    1    2    0    0 -0.60084093093E+03 -0.34068547516E+03 -0.96538532728E+03  0.11893500385E+04  0.74217698662E+02 0.  0.
        254    2    1    2    0    0  0.60084093093E+03  0.34068547516E+03  0.10051778743E+04  0.15068107664E+04  0.88488400904E+03 0.  0.
         23    2    4    4    0    0  0.44669975669E+03  0.26784884103E+03  0.11493780965E+04  0.12654329484E+04  0.94693525775E+02 0.  0.
         23    2    4    4    0    0  0.15414117424E+03  0.72836634133E+02 -0.14420022217E+03  0.24137781805E+03  0.91678078635E+02 0.  0.
          2    1    3    3  502    0 -0.85116972529E+02 -0.74164826157E+02 -0.13181152641E+03  0.17354998976E+03  0.00000000000E+00 0. -1.
         -1    1    3    3    0  502 -0.51572395841E+03 -0.26652064900E+03 -0.83357380087E+03  0.10158000488E+04  0.00000000000E+00 0.  1.
         11    1    5    5    0    0  0.62920512910E+02  0.63009008589E+02  0.13517102229E+03  0.16186516418E+03  0.00000000000E+00 0.  1.
        -11    1    5    5    0    0  0.38377924378E+03  0.20483983244E+03  0.10142070742E+04  0.11035677842E+04  0.00000000000E+00 0. -1.
          2    1    6    6  503    0  0.30966582192E+01 -0.12537084882E+02  0.36549184415E+01  0.13421110919E+02  0.00000000000E+00 0.  1.
         -2    1    6    6    0  503  0.15104451602E+03  0.85373719016E+02 -0.14785514061E+03  0.22795670713E+03  0.00000000000E+00 0. -1.
<mgrwt>
<rscale>  0 0.26958671E+04</rscale>
<asrwt>0</asrwt>
<pdfrwt beam="1">  1        2 0.21045795E+00 0.26958671E+04</pdfrwt>
<pdfrwt beam="2">  1       -1 0.20433602E+00 0.26958671E+04</pdfrwt>
<totfact> 0.21207781E+00</totfact>
</mgrwt>
</event>
<event>
12    6  0.1553355E-007  0.1323963E+04  0.7818608E-02  0.9010775E-01
          2   -1    0    0  501    0  0.00000000000E+00  0.00000000000E+00  0.67792833639E+03  0.67792833639E+03  0.00000000000E+00 0. -1.
         -1   -1    0    0    0  501 -0.00000000000E+00 -0.00000000000E+00 -0.64641014648E+03  0.64641014648E+03  0.00000000000E+00 0.  1.
         24    2    1    2    0    0 -0.25310080093E+03  0.20022891678E+03 -0.77439619549E+00  0.33326970169E+03  0.83165256129E+02 0.  0.
        254    2    1    2    0    0  0.25310080093E+03 -0.20022891678E+03  0.32292586109E+02  0.99106878118E+03  0.93649499911E+03 0.  0.
         23    2    4    4    0    0  0.36392884479E+02 -0.15804037453E+02  0.45935774292E+03  0.46997106586E+03  0.91044259145E+02 0.  0.
         23    2    4    4    0    0  0.21670791645E+03 -0.18442487933E+03 -0.42706515681E+03  0.52109771532E+03  0.90461724392E+02 0.  0.
          2    1    3    3  502    0 -0.16619510389E+03  0.10290931996E+03 -0.34520426930E+02  0.19850138681E+03  0.00000000000E+00 0. -1.
         -1    1    3    3    0  502 -0.86905697037E+02  0.97319596825E+02  0.33746030734E+02  0.13476831487E+03  0.00000000000E+00 0.  1.
         11    1    5    5    0    0  0.85317935395E+01 -0.25755064299E+02  0.33599273086E+02  0.43185946672E+02  0.00000000000E+00 0. -1.
        -11    1    5    5    0    0  0.27861090940E+02  0.99510268462E+01  0.42575846984E+03  0.42678511919E+03  0.00000000000E+00 0.  1.
          1    1    6    6  503    0  0.84587826071E+02 -0.67177281667E+02 -0.24330174595E+03  0.26620222966E+03  0.00000000000E+00 0. -1.
         -1    1    6    6    0  503  0.13212009038E+03 -0.11724759766E+03 -0.18376341086E+03  0.25489548566E+03  0.00000000000E+00 0.  1.
<mgrwt>
<rscale>  0 0.13239634E+04</rscale>
<asrwt>0</asrwt>
<pdfrwt beam="1">  1        2 0.10429667E+00 0.13239634E+04</pdfrwt>
<pdfrwt beam="2">  1       -1 0.99447715E-01 0.13239634E+04</pdfrwt>
<totfact> 0.46058173E+01</totfact>
</mgrwt>
</event>
<event>
12    6  0.1553355E-007  0.2624949E+04  0.7818608E-02  0.8359776E-01
          2   -1    0    0  501    0  0.00000000000E+00  0.00000000000E+00  0.12652301051E+04  0.12652301051E+04  0.00000000000E+00 0. -1.
         -1   -1    0    0    0  501 -0.00000000000E+00 -0.00000000000E+00 -0.13614831300E+04  0.13614831300E+04  0.00000000000E+00 0.  1.
         24    2    1    2    0    0 -0.47307184424E+02 -0.30198007570E+03 -0.11509404371E+04  0.11935616770E+04  0.80595603328E+02 0.  0.
        254    2    1    2    0    0  0.47307184424E+02  0.30198007570E+03  0.10546874123E+04  0.14331515580E+04  0.92093860541E+03 0.  0.
         23    2    4    4    0    0 -0.56271536742E+02  0.18967188467E+03 -0.12002943953E+03  0.24492823764E+03  0.80255003311E+02 0.  0.
         23    2    4    4    0    0  0.10357872117E+03  0.11230819103E+03  0.11747168518E+04  0.11882233204E+04  0.92592094819E+02 0.  0.
          4    1    3    3  502    0  0.33612650137E+01 -0.34943150102E+01 -0.93719281786E+02  0.93844616885E+02  0.00000000000E+00 0. -1.
         -3    1    3    3    0  502 -0.50668449438E+02 -0.29848576069E+03 -0.10572211553E+04  0.10997170601E+04  0.00000000000E+00 0.  1.
         11    1    5    5    0    0  0.19590482580E+02  0.32330929626E+02 -0.30916841614E+02  0.48835715553E+02  0.00000000000E+00 0. -1.
        -11    1    5    5    0    0 -0.75862019323E+02  0.15734095504E+03 -0.89112597919E+02  0.19609252208E+03  0.00000000000E+00 0.  1.
          3    1    6    6  503    0  0.65966273452E+01  0.43777465861E+02  0.58475627989E+03  0.58642978171E+03  0.00000000000E+00 0. -1.
         -3    1    6    6    0  503  0.96982093821E+02  0.68530725170E+02  0.58996057191E+03  0.60179353870E+03  0.00000000000E+00 0.  1.
<mgrwt>
<rscale>  0 0.26249491E+04</rscale>
<asrwt>0</asrwt>
<pdfrwt beam="1">  1        2 0.19465079E+00 0.26249491E+04</pdfrwt>
<pdfrwt beam="2">  1       -1 0.20945894E+00 0.26249491E+04</pdfrwt>
<totfact> 0.22594067E+00</totfact>
</mgrwt>
</event>
<event>
12    6  0.1553355E-007  0.2270883E+04  0.7818608E-02  0.8489491E-01
         -1   -1    0    0    0  501 -0.00000000000E+00  0.00000000000E+00  0.54441407610E+03  0.54441407610E+03  0.00000000000E+00 0.  1.
          2   -1    0    0  501    0  0.00000000000E+00 -0.00000000000E+00 -0.23680998005E+04  0.23680998005E+04  0.00000000000E+00 0. -1.
         24    2    1    2    0    0  0.84804922009E+02 -0.44668328612E+03  0.30564060773E+03  0.55346234069E+03  0.78654615705E+02 0.  0.
        254    2    1    2    0    0 -0.84804922009E+02  0.44668328612E+03 -0.21293263322E+04  0.23590515359E+04  0.90795136848E+03 0.  0.
         23    2    4    4    0    0  0.25246220926E+03  0.43677668017E+03 -0.59575696101E+03  0.78610445822E+03  0.92319159407E+02 0.  0.
         23    2    4    4    0    0 -0.33726713127E+03  0.99066059507E+01 -0.15335693711E+04  0.15729470777E+04  0.92088188859E+02 0.  0.
          2    1    3    3  502    0  0.16513766545E+02 -0.12519128941E+02  0.61378391419E+01  0.21612638531E+02  0.00000000000E+00 0. -1.
         -1    1    3    3    0  502  0.68291155464E+02 -0.43416415718E+03  0.29950276859E+03  0.53184970216E+03  0.00000000000E+00 0.  1.
         11    1    5    5    0    0  0.24999657336E+03  0.38312021271E+03 -0.51198647571E+03  0.68659269978E+03  0.00000000000E+00 0. -1.
        -11    1    5    5    0    0  0.24656359038E+01  0.53656467460E+02 -0.83770485298E+02  0.99511758439E+02  0.00000000000E+00 0.  1.
          3    1    6    6  503    0 -0.31000102703E+03 -0.83383429672E+01 -0.12685856453E+04  0.13059401611E+04  0.00000000000E+00 0. -1.
         -3    1    6    6    0  503 -0.27266104242E+02  0.18244948918E+02 -0.26498372579E+03  0.26700691665E+03  0.00000000000E+00 0.  1.
<mgrwt>
<rscale>  0 0.22708825E+04</rscale>
<asrwt>0</asrwt>
<pdfrwt beam="1">  1        2 0.36432305E+00 0.22708825E+04</pdfrwt>
<pdfrwt beam="2">  1       -1 0.83756012E-01 0.22708825E+04</pdfrwt>
<totfact> 0.60600075E+00</totfact>
</mgrwt>
</event>
<event>
12    6  0.1553355E-007  0.1819101E+04  0.7818608E-02  0.8696207E-01
          2   -1    0    0  501    0  0.00000000000E+00  0.00000000000E+00  0.98776306057E+03  0.98776306057E+03  0.00000000000E+00 0. -1.
         -1   -1    0    0    0  501 -0.00000000000E+00 -0.00000000000E+00 -0.83753094615E+03  0.83753094615E+03  0.00000000000E+00 0.  1.
         24    2    1    2    0    0  0.20556886513E+03 -0.18460460246E+02 -0.59600230583E+03  0.63529131651E+03  0.76006324643E+02 0.  0.
        254    2    1    2    0    0 -0.20556886513E+03  0.18460460246E+02  0.74623442024E+03  0.11900026902E+04  0.90368204908E+03 0.  0.
         23    2    4    4    0    0 -0.69592627383E+02 -0.43203556730E+03  0.32457325971E+03  0.55141170084E+03  0.84906994436E+02 0.  0.
         23    2    4    4    0    0 -0.13597623775E+03  0.45049602755E+03  0.42166116053E+03  0.63859098937E+03  0.92542473105E+02 0.  0.
          4    1    3    3  502    0  0.48096226912E+02  0.16544578948E+02 -0.22598838791E+03  0.23164136420E+03  0.00000000000E+00 0. -1.
         -3    1    3    3    0  502  0.15747263822E+03 -0.35005039194E+02 -0.37001391791E+03  0.40364995232E+03  0.00000000000E+00 0.  1.
         11    1    5    5    0    0 -0.21941090622E+02 -0.16374675851E+02  0.19337566675E+02  0.33518397214E+02  0.00000000000E+00 0.  1.
        -11    1    5    5    0    0 -0.47651536761E+02 -0.41566089145E+03  0.30523569303E+03  0.51789330362E+03  0.00000000000E+00 0. -1.
          2    1    6    6  503    0 -0.48638277266E+02  0.18078736253E+03  0.22916919442E+03  0.29591936763E+03  0.00000000000E+00 0. -1.
         -2    1    6    6    0  503 -0.87337960484E+02  0.26970866502E+03  0.19249196611E+03  0.34267162174E+03  0.00000000000E+00 0.  1.
<mgrwt>
<rscale>  0 0.18191010E+04</rscale>
<asrwt>0</asrwt>
<pdfrwt beam="1">  1        2 0.15196355E+00 0.18191010E+04</pdfrwt>
<pdfrwt beam="2">  1       -1 0.12885091E+00 0.18191010E+04</pdfrwt>
<totfact> 0.14308849E+01</totfact>
</mgrwt>
</event>
<event>
12    6  0.1553355E-007  0.1640893E+04  0.7818608E-02  0.8795813E-01
          2   -1    0    0  501    0  0.00000000000E+00  0.00000000000E+00  0.35170681575E+04  0.35170681575E+04  0.00000000000E+00 0. -1.
         -1   -1    0    0    0  501 -0.00000000000E+00 -0.00000000000E+00 -0.19139011959E+03  0.19139011959E+03  0.00000000000E+00 0.  1.
         24    2    1    2    0    0  0.10426544884E+03  0.46235499005E+03  0.18532798823E+04  0.19144848320E+04  0.77216765876E+02 0.  0.
        254    2    1    2    0    0 -0.10426544884E+03 -0.46235499005E+03  0.14723981555E+04  0.17939734451E+04  0.90870290668E+03 0.  0.
         23    2    4    4    0    0 -0.22585283758E+03 -0.49555780206E+03  0.33476467127E+03  0.64572339647E+03  0.91127823381E+02 0.  0.
         23    2    4    4    0    0  0.12158738874E+03  0.33202812003E+02  0.11376334843E+04  0.11482500486E+04  0.91554955107E+02 0.  0.
          4    1    3    3  502    0  0.78078679311E+02  0.41176897766E+03  0.17018423904E+04  0.17526886468E+04  0.00000000000E+00 0. -1.
         -3    1    3    3    0  502  0.26186769531E+02  0.50586012394E+02  0.15143749197E+03  0.16179618513E+03  0.00000000000E+00 0.  1.
         11    1    5    5    0    0 -0.19781803396E+03 -0.41323287643E+03  0.31656409711E+03  0.55687180957E+03  0.00000000000E+00 0.  1.
        -11    1    5    5    0    0 -0.28034803621E+02 -0.82324925627E+02  0.18200574161E+02  0.88851586892E+02  0.00000000000E+00 0. -1.
          1    1    6    6  503    0  0.40873967631E+02 -0.15372614482E+02  0.65833522436E+03  0.65978198379E+03  0.00000000000E+00 0. -1.
         -1    1    6    6    0  503  0.80713421104E+02  0.48575426485E+02  0.47929825991E+03  0.48846806483E+03  0.00000000000E+00 0.  1.
<mgrwt>
<rscale>  0 0.16408926E+04</rscale>
<asrwt>0</asrwt>
<pdfrwt beam="1">  1        2 0.54108736E+00 0.16408926E+04</pdfrwt>
<pdfrwt beam="2">  1       -1 0.29444637E-01 0.16408926E+04</pdfrwt>
<totfact> 0.91792266E+00</totfact>
</mgrwt>
</event>
<event>
12    6  0.1553355E-007  0.1257771E+04  0.7818608E-02  0.9063740E-01
          2   -1    0    0  501    0  0.00000000000E+00  0.00000000000E+00  0.16587759061E+04  0.16587759061E+04  0.00000000000E+00 0. -1.
         -1   -1    0    0    0  501 -0.00000000000E+00 -0.00000000000E+00 -0.23842703385E+03  0.23842703385E+03  0.00000000000E+00 0.  1.
         24    2    1    2    0    0  0.10028577543E+03  0.86981709280E+02 -0.60390236297E+02  0.16676521535E+03  0.80873987839E+02 0.  0.
        254    2    1    2    0    0 -0.10028577543E+03 -0.86981709280E+02  0.14807391086E+04  0.17304377246E+04  0.88555257137E+03 0.  0.
         23    2    4    4    0    0  0.23241652814E+03 -0.24141734789E+03  0.21241530585E+03  0.40704354605E+03  0.90908788388E+02 0.  0.
         23    2    4    4    0    0 -0.33270230357E+03  0.15443563861E+03  0.12683238027E+04  0.13233941786E+04  0.90474825627E+02 0.  0.
          2    1    3    3  502    0  0.59009393405E+02  0.84599746091E+02 -0.13140534710E+02  0.10398028275E+03  0.00000000000E+00 0. -1.
         -3    1    3    3    0  502  0.41276382025E+02  0.23819631887E+01 -0.47249701587E+02  0.62784932601E+02  0.00000000000E+00 0.  1.
         11    1    5    5    0    0  0.20071024179E+03 -0.24087183507E+03  0.17924768462E+03  0.36115588674E+03  0.00000000000E+00 0.  1.
        -11    1    5    5    0    0  0.31706286348E+02 -0.54551282171E+00  0.33167621233E+02  0.45887659305E+02  0.00000000000E+00 0. -1.
          1    1    6    6  503    0 -0.27198436189E+03  0.11803618600E+03  0.87821358194E+03  0.92691268727E+03  0.00000000000E+00 0. -1.
         -1    1    6    6    0  503 -0.60717941677E+02  0.36399452607E+02  0.39011022076E+03  0.39648149129E+03  0.00000000000E+00 0.  1.
<mgrwt>
<rscale>  0 0.12577711E+04</rscale>
<asrwt>0</asrwt>
<pdfrwt beam="1">  1        2 0.25519628E+00 0.12577711E+04</pdfrwt>
<pdfrwt beam="2">  1       -1 0.36681083E-01 0.12577711E+04</pdfrwt>
<totfact> 0.82556176E+01</totfact>
</mgrwt>
</event>
<event>
12    6  0.1553355E-007  0.1566253E+04  0.7818608E-02  0.8841553E-01
          2   -1    0    0  501    0  0.00000000000E+00  0.00000000000E+00  0.72073549001E+03  0.72073549001E+03  0.00000000000E+00 0. -1.
         -1   -1    0    0    0  501 -0.00000000000E+00 -0.00000000000E+00 -0.85091809184E+03  0.85091809184E+03  0.00000000000E+00 0.  1.
         24    2    1    2    0    0 -0.46632200133E+02  0.23219091384E+03 -0.50718839976E+03  0.56543246897E+03  0.79916341002E+02 0.  0.
        254    2    1    2    0    0  0.46632200133E+02 -0.23219091384E+03  0.37700579793E+03  0.10062211129E+04  0.90236377020E+03 0.  0.
         23    2    4    4    0    0 -0.19047441710E+03  0.28098418979E+03  0.89808877743E+02  0.36510927884E+03  0.10003265713E+03 0.  0.
         23    2    4    4    0    0  0.23710661723E+03 -0.51317510362E+03  0.28719692019E+03  0.64111183405E+03  0.94731609685E+02 0.  0.
          2    1    3    3  502    0  0.11010928871E+02  0.77133790870E+02 -0.10666928968E+03  0.13209541858E+03  0.00000000000E+00 0. -1.
         -1    1    3    3    0  502 -0.57643129004E+02  0.15505712297E+03 -0.40051911008E+03  0.43333705039E+03  0.00000000000E+00 0.  1.
         11    1    5    5    0    0 -0.10616416487E+03  0.11522342141E+03 -0.41929088792E+01  0.15673176841E+03  0.00000000000E+00 0.  1.
        -11    1    5    5    0    0 -0.84310252225E+02  0.16576076838E+03  0.94001786622E+02  0.20837751043E+03  0.00000000000E+00 0. -1.
          3    1    6    6  503    0  0.22007215388E+03 -0.40463000349E+03  0.20643820738E+03  0.50475135077E+03  0.00000000000E+00 0. -1.
         -3    1    6    6    0  503  0.17034463353E+02 -0.10854510013E+03  0.80758712814E+02  0.13636048328E+03  0.00000000000E+00 0.  1.
<mgrwt>
<rscale>  0 0.15662527E+04</rscale>
<asrwt>0</asrwt>
<pdfrwt beam="1">  1        2 0.11088238E+00 0.15662527E+04</pdfrwt>
<pdfrwt beam="2">  1       -1 0.13091048E+00 0.15662527E+04</pdfrwt>
<totfact> 0.21600114E+01</totfact>
</mgrwt>
</event>
<event>
12    6  0.1553355E-007  0.1504503E+04  0.7818608E-02  0.8881464E-01
         -1   -1    0    0    0  501 -0.00000000000E+00  0.00000000000E+00  0.62497622332E+03  0.62497622332E+03  0.00000000000E+00 0.  1.
          2   -1    0    0  501    0  0.00000000000E+00 -0.00000000000E+00 -0.90544589514E+03  0.90544589514E+03  0.00000000000E+00 0. -1.
         24    2    1    2    0    0 -0.14202387006E+03  0.29179084262E+03  0.26772346140E+03  0.42690793310E+03  0.72538652137E+02 0.  0.
        254    2    1    2    0    0  0.14202387006E+03 -0.29179084262E+03 -0.54819313323E+03  0.11035141854E+04  0.90106335541E+03 0.  0.
         23    2    4    4    0    0  0.38745226089E+03 -0.45732396035E+03 -0.20181238780E+03  0.63891469183E+03  0.90660269082E+02 0.  0.
         23    2    4    4    0    0 -0.24542839082E+03  0.16553311772E+03 -0.34638074543E+03  0.46459949353E+03  0.90756600324E+02 0.  0.
          2    1    3    3  502    0 -0.11722560658E+03  0.18000184316E+03  0.20207106183E+03  0.29491561574E+03  0.00000000000E+00 0. -1.
         -1    1    3    3    0  502 -0.24798263483E+02  0.11178899946E+03  0.65652399578E+02  0.13199231737E+03  0.00000000000E+00 0.  1.
         11    1    5    5    0    0  0.42318198779E+02 -0.44600974270E+02 -0.51759519657E+02  0.80368680025E+02  0.00000000000E+00 0.  1.
        -11    1    5    5    0    0  0.34513406211E+03 -0.41272298608E+03 -0.15005286814E+03  0.55854601180E+03  0.00000000000E+00 0. -1.
          2    1    6    6  503    0 -0.17574479871E+03  0.92100033044E+02 -0.28135520300E+03  0.34428099079E+03  0.00000000000E+00 0. -1.
         -2    1    6    6    0  503 -0.69683592114E+02  0.73433084679E+02 -0.65025542424E+02  0.12031850275E+03  0.00000000000E+00 0.  1.
<mgrwt>
<rscale>  0 0.15045028E+04</rscale>
<asrwt>0</asrwt>
<pdfrwt beam="1">  1        2 0.13929937E+00 0.15045028E+04</pdfrwt>
<pdfrwt beam="2">  1       -1 0.96150189E-01 0.15045028E+04</pdfrwt>
<totfact> 0.33408461E+01</totfact>
</mgrwt>
</event>
<event>
12    6  0.1553355E-007  0.2027879E+04  0.7818608E-02  0.8593696E-01
         -1   -1    0    0    0  501 -0.00000000000E+00  0.00000000000E+00  0.44743857742E+03  0.44743857742E+03  0.00000000000E+00 0.  1.
          2   -1    0    0  501    0  0.00000000000E+00 -0.00000000000E+00 -0.22976847707E+04  0.22976847707E+04  0.00000000000E+00 0. -1.
         24    2    1    2    0    0 -0.38532238741E+03 -0.67813103143E+03 -0.10052440167E+04  0.12748061662E+04  0.79247650088E+02 0.  0.
        254    2    1    2    0    0  0.38532238741E+03  0.67813103143E+03 -0.84500217658E+03  0.14703171820E+04  0.91622535398E+03 0.  0.
         23    2    4    4    0    0  0.42115333704E+03  0.76818669576E+03 -0.95418748426E+03  0.12983816203E+04  0.88544587762E+02 0.  0.
         23    2    4    4    0    0 -0.35830949625E+02 -0.90055664332E+02  0.10918530768E+03  0.17193556169E+03  0.90810386695E+02 0.  0.
          2    1    3    3  502    0 -0.26031089906E+03 -0.39517935613E+03 -0.64507133070E+03  0.80002844285E+03  0.00000000000E+00 0. -1.
         -1    1    3    3    0  502 -0.12501148835E+03 -0.28295167530E+03 -0.36017268604E+03  0.47477772330E+03  0.00000000000E+00 0.  1.
         11    1    5    5    0    0  0.30152072736E+03  0.47274579853E+03 -0.63870722863E+03  0.84991191482E+03  0.00000000000E+00 0. -1.
        -11    1    5    5    0    0  0.11963260968E+03  0.29544089723E+03 -0.31548025564E+03  0.44846970550E+03  0.00000000000E+00 0.  1.
          3    1    6    6  503    0 -0.41103921989E+02 -0.98666895381E+02  0.11750935199E+03  0.15884941439E+03  0.00000000000E+00 0. -1.
         -3    1    6    6    0  503  0.52729723645E+01  0.86112310494E+01 -0.83240443033E+01  0.13086147306E+02  0.00000000000E+00 0.  1.
<mgrwt>
<rscale>  0 0.20278785E+04</rscale>
<asrwt>0</asrwt>
<pdfrwt beam="1">  1        2 0.35348996E+00 0.20278785E+04</pdfrwt>
<pdfrwt beam="2">  1       -1 0.68836706E-01 0.20278785E+04</pdfrwt>
<totfact> 0.10248062E+01</totfact>
</mgrwt>
</event>
<event>
12    6  0.1553355E-007  0.1313216E+04  0.7818608E-02  0.9019150E-01
         -1   -1    0    0    0  501 -0.00000000000E+00  0.00000000000E+00  0.56462772911E+03  0.56462772911E+03  0.00000000000E+00 0.  1.
          2   -1    0    0  501    0  0.00000000000E+00 -0.00000000000E+00 -0.76357225346E+03  0.76357225346E+03  0.00000000000E+00 0. -1.
         24    2    1    2    0    0  0.13804677006E+03  0.16081204505E+03  0.21431881409E+03  0.31160941503E+03  0.79059780546E+02 0.  0.
        254    2    1    2    0    0 -0.13804677006E+03 -0.16081204505E+03 -0.41326333845E+03  0.10165905675E+04  0.90429661646E+03 0.  0.
         23    2    4    4    0    0 -0.36968323919E+03  0.72599915911E+02  0.10032272222E+03  0.39999650155E+03  0.89420956895E+02 0.  0.
         23    2    4    4    0    0  0.23163646913E+03 -0.23341196096E+03 -0.51358606067E+03  0.61659406599E+03  0.91000017328E+02 0.  0.
          4    1    3    3  502    0  0.11785698259E+03  0.12885632132E+03  0.12539150289E+03  0.21498197340E+03  0.00000000000E+00 0. -1.
         -3    1    3    3    0  502  0.20189787473E+02  0.31955723730E+02  0.88927311207E+02  0.96627441629E+02  0.00000000000E+00 0.  1.
         11    1    5    5    0    0 -0.27521504973E+03  0.23440281256E+02  0.99236440325E+02  0.29349725973E+03  0.00000000000E+00 0.  1.
        -11    1    5    5    0    0 -0.94468189459E+02  0.49159634655E+02  0.10862818923E+01  0.10649924182E+03  0.00000000000E+00 0. -1.
          4    1    6    6  503    0  0.12891798937E+03 -0.13664962570E+03 -0.37171064796E+03  0.41648742357E+03  0.00000000000E+00 0. -1.
         -4    1    6    6    0  503  0.10271847976E+03 -0.96762335262E+02 -0.14187541271E+03  0.20010664242E+03  0.00000000000E+00 0.  1.
<mgrwt>
<rscale>  0 0.13132160E+04</rscale>
<asrwt>0</asrwt>
<pdfrwt beam="1">  1        2 0.11747265E+00 0.13132160E+04</pdfrwt>
<pdfrwt beam="2">  1       -1 0.86865805E-01 0.13132160E+04</pdfrwt>
<totfact> 0.53516575E+01</totfact>
</mgrwt>
</event>
<event>
12    6  0.1553355E-007  0.1339292E+04  0.7818608E-02  0.8998974E-01
          2   -1    0    0  501    0  0.00000000000E+00  0.00000000000E+00  0.24151430594E+03  0.24151430594E+03  0.00000000000E+00 0. -1.
         -1   -1    0    0    0  501 -0.00000000000E+00 -0.00000000000E+00 -0.18567248776E+04  0.18567248776E+04  0.00000000000E+00 0.  1.
         24    2    1    2    0    0 -0.17407078455E+03  0.41738354331E+02 -0.93234488127E+03  0.95278185749E+03  0.80520569212E+02 0.  0.
        254    2    1    2    0    0  0.17407078455E+03 -0.41738354331E+02 -0.68286569038E+03  0.11454573260E+04  0.90206663081E+03 0.  0.
         23    2    4    4    0    0  0.48202389238E+03  0.11441032013E+03 -0.19352716574E+03  0.53981125344E+03  0.92231617591E+02 0.  0.
         23    2    4    4    0    0 -0.30795310783E+03 -0.15614867447E+03 -0.48933852464E+03  0.60564607260E+03  0.90207806754E+02 0.  0.
          4    1    3    3  502    0 -0.71809581352E+02  0.12628843964E+02 -0.20236149284E+03  0.21509597267E+03  0.00000000000E+00 0. -1.
         -3    1    3    3    0  502 -0.10226120319E+03  0.29109510367E+02 -0.72998338844E+03  0.73768588482E+03  0.00000000000E+00 0.  1.
         11    1    5    5    0    0  0.25800876679E+02  0.21686596879E+02  0.42902068235E+01  0.33976456498E+02  0.00000000000E+00 0. -1.
        -11    1    5    5    0    0  0.45622301570E+03  0.92723723255E+02 -0.19781737256E+03  0.50583479694E+03  0.00000000000E+00 0.  1.
          3    1    6    6  503    0 -0.87816267463E+01  0.78835473888E+01 -0.38426216606E+02  0.40197529904E+02  0.00000000000E+00 0. -1.
         -3    1    6    6    0  503 -0.29917148108E+03 -0.16403222185E+03 -0.45091230803E+03  0.56544854270E+03  0.00000000000E+00 0.  1.
<mgrwt>
<rscale>  0 0.13392918E+04</rscale>
<asrwt>0</asrwt>
<pdfrwt beam="1">  1        2 0.37156048E-01 0.13392918E+04</pdfrwt>
<pdfrwt beam="2">  1       -1 0.28564998E+00 0.13392918E+04</pdfrwt>
<totfact> 0.64342851E+00</totfact>
</mgrwt>
</event>
<event>
12    6  0.1553355E-007  0.1535786E+04  0.7818608E-02  0.8860998E-01
         -1   -1    0    0    0  501 -0.00000000000E+00  0.00000000000E+00  0.22494658479E+04  0.22494658479E+04  0.00000000000E+00 0.  1.
          2   -1    0    0  501    0  0.00000000000E+00 -0.00000000000E+00 -0.26213334407E+03  0.26213334407E+03  0.00000000000E+00 0. -1.
         24    2    1    2    0    0  0.27708417665E+03  0.22967354645E+03  0.87048624451E+02  0.37879066898E+03  0.79870701783E+02 0.  0.
        254    2    1    2    0    0 -0.27708417665E+03 -0.22967354645E+03  0.19002838794E+04  0.21328085230E+04  0.89903714861E+03 0.  0.
         23    2    4    4    0    0 -0.49354176696E+03  0.88200656542E+02  0.68382271699E+03  0.85376953810E+03  0.99730057499E+02 0.  0.
         23    2    4    4    0    0  0.21645759031E+03 -0.31787420299E+03  0.12164611624E+04  0.12790389849E+04  0.90912418911E+02 0.  0.
          2    1    3    3  502    0  0.19623640820E+03  0.15134043780E+03  0.22034444908E+02  0.24879343396E+03  0.00000000000E+00 0. -1.
         -1    1    3    3    0  502  0.80847768452E+02  0.78333108645E+02  0.65014179543E+02  0.12999723503E+03  0.00000000000E+00 0.  1.
         11    1    5    5    0    0 -0.10246206415E+03  0.60320978810E+02  0.14887889939E+03  0.19053089450E+03  0.00000000000E+00 0.  1.
        -11    1    5    5    0    0 -0.39107970281E+03  0.27879677733E+02  0.53494381760E+03  0.66323864360E+03  0.00000000000E+00 0. -1.
          3    1    6    6  503    0  0.20719194717E+03 -0.24645070251E+03  0.10300407309E+04  0.10791896770E+04  0.00000000000E+00 0. -1.
         -3    1    6    6    0  503  0.92656431411E+01 -0.71423500478E+02  0.18642043151E+03  0.19984930785E+03  0.00000000000E+00 0.  1.
<mgrwt>
<rscale>  0 0.15357865E+04</rscale>
<asrwt>0</asrwt>
<pdfrwt beam="1">  1        2 0.40328208E-01 0.15357865E+04</pdfrwt>
<pdfrwt beam="2">  1       -1 0.34607166E+00 0.15357865E+04</pdfrwt>
<totfact> 0.23345345E+00</totfact>
</mgrwt>
</event>
<event>
12    6  0.1553355E-007  0.2517070E+04  0.7818608E-02  0.8396930E-01
          2   -1    0    0  501    0  0.00000000000E+00  0.00000000000E+00  0.87888323284E+03  0.87888323284E+03  0.00000000000E+00 0. -1.
         -1   -1    0    0    0  501 -0.00000000000E+00 -0.00000000000E+00 -0.18021846300E+04  0.18021846300E+04  0.00000000000E+00 0.  1.
         24    2    1    2    0    0  0.69738085127E+02  0.74163743459E+03  0.45033797355E+03  0.87360183950E+03  0.74070227874E+02 0.  0.
        254    2    1    2    0    0 -0.69738085127E+02 -0.74163743459E+03 -0.13736393707E+04  0.18074660233E+04  0.90838252944E+03 0.  0.
         23    2    4    4    0    0 -0.46214475470E+03 -0.25340354839E+03 -0.72736869886E+03  0.90281122598E+03  0.90618723477E+02 0.  0.
         23    2    4    4    0    0  0.39240666957E+03 -0.48823388620E+03 -0.64627067181E+03  0.90465479731E+03  0.91537965319E+02 0.  0.
          2    1    3    3  502    0  0.82958832408E+02  0.53240287400E+03  0.31765113912E+03  0.62548959568E+03  0.00000000000E+00 0. -1.
         -1    1    3    3    0  502 -0.13220747281E+02  0.20923456059E+03  0.13268683443E+03  0.24811224382E+03  0.00000000000E+00 0.  1.
         11    1    5    5    0    0 -0.17070713590E+03 -0.12423839024E+03 -0.23152798203E+03  0.31333897032E+03  0.00000000000E+00 0. -1.
        -11    1    5    5    0    0 -0.29143761880E+03 -0.12916515815E+03 -0.49584071683E+03  0.58947225567E+03  0.00000000000E+00 0.  1.
          1    1    6    6  503    0  0.20036088546E+02 -0.92811335737E+01 -0.46886743290E+02  0.51826161164E+02  0.00000000000E+00 0. -1.
         -1    1    6    6    0  503  0.37237058103E+03 -0.47895275262E+03 -0.59938392852E+03  0.85282863615E+03  0.00000000000E+00 0.  1.
<mgrwt>
<rscale>  0 0.25170696E+04</rscale>
<asrwt>0</asrwt>
<pdfrwt beam="1">  1        2 0.13521281E+00 0.25170696E+04</pdfrwt>
<pdfrwt beam="2">  1       -1 0.27725917E+00 0.25170696E+04</pdfrwt>
<totfact> 0.14272507E+00</totfact>
</mgrwt>
</event>
<event>
12    6  0.1553355E-007  0.1335407E+04  0.7818608E-02  0.9001949E-01
         -1   -1    0    0    0  501 -0.00000000000E+00  0.00000000000E+00  0.42234870142E+03  0.42234870142E+03  0.00000000000E+00 0.  1.
          2   -1    0    0  501    0  0.00000000000E+00 -0.00000000000E+00 -0.10555914232E+04  0.10555914232E+04  0.00000000000E+00 0. -1.
         24    2    1    2    0    0  0.60624826539E+02 -0.10532526207E+03  0.18052809409E+03  0.23163126541E+03  0.79333914175E+02 0.  0.
        254    2    1    2    0    0 -0.60624826539E+02  0.10532526207E+03 -0.81377081589E+03  0.12463088592E+04  0.93610579070E+03 0.  0.
         23    2    4    4    0    0 -0.24274690417E+03 -0.38551827071E+02  0.11312989452E+03  0.28574931670E+03  0.91880335793E+02 0.  0.
         23    2    4    4    0    0  0.18212207764E+03  0.14387708914E+03 -0.92690071041E+03  0.96055954253E+03  0.98288554006E+02 0.  0.
          4    1    3    3  502    0  0.22902872061E+02  0.80733121247E+01  0.19746417187E+02  0.31299215790E+02  0.00000000000E+00 0. -1.
         -3    1    3    3    0  502  0.37721954478E+02 -0.11339857419E+03  0.16078167690E+03  0.20033204962E+03  0.00000000000E+00 0.  1.
         11    1    5    5    0    0 -0.47177773467E+02 -0.41723310554E+02  0.74198530565E+01  0.63416332063E+02  0.00000000000E+00 0.  1.
        -11    1    5    5    0    0 -0.19556913071E+03  0.31714834825E+01  0.10571004146E+03  0.22233298464E+03  0.00000000000E+00 0. -1.
          3    1    6    6  503    0  0.18074627931E+03  0.97016811073E+02 -0.74837007492E+03  0.77597631932E+03  0.00000000000E+00 0. -1.
         -3    1    6    6    0  503  0.13757983257E+01  0.46860278065E+02 -0.17853063548E+03  0.18458322320E+03  0.00000000000E+00 0.  1.
<mgrwt>
<rscale>  0 0.13354066E+04</rscale>
<asrwt>0</asrwt>
<pdfrwt beam="1">  1        2 0.16239868E+00 0.13354066E+04</pdfrwt>
<pdfrwt beam="2">  1       -1 0.64976724E-01 0.13354066E+04</pdfrwt>
<totfact> 0.62193555E+01</totfact>
</mgrwt>
</event>
<event>
12    6  0.1553355E-007  0.1176300E+04  0.7818608E-02  0.9133858E-01
          2   -1    0    0  501    0  0.00000000000E+00  0.00000000000E+00  0.33718358913E+04  0.33718358913E+04  0.00000000000E+00 0. -1.
         -1   -1    0    0    0  501 -0.00000000000E+00 -0.00000000000E+00 -0.10259103770E+03  0.10259103770E+03  0.00000000000E+00 0.  1.
         24    2    1    2    0    0  0.72133228334E+02  0.12339138137E+03  0.13938089110E+03  0.22114201293E+03  0.95121614025E+02 0.  0.
        254    2    1    2    0    0 -0.72133228334E+02 -0.12339138137E+03  0.31298639625E+04  0.32532849161E+04  0.87600552833E+03 0.  0.
         23    2    4    4    0    0 -0.12617770018E+03  0.36034806136E+03  0.13210465801E+04  0.13779205900E+04  0.87917849524E+02 0.  0.
         23    2    4    4    0    0  0.54044471846E+02 -0.48373944273E+03  0.18088173825E+04  0.18753643261E+04  0.90809576037E+02 0.  0.
          4    1    3    3  502    0  0.46449071021E+02  0.22797319908E+02  0.95115040241E+02  0.10827790575E+03  0.00000000000E+00 0. -1.
         -3    1    3    3    0  502  0.25684157313E+02  0.10059406146E+03  0.44265850859E+02  0.11286410718E+03  0.00000000000E+00 0.  1.
         11    1    5    5    0    0 -0.61932791859E+02  0.10348518295E+03  0.53689078089E+03  0.55026953796E+03  0.00000000000E+00 0. -1.
        -11    1    5    5    0    0 -0.64244908320E+02  0.25686287841E+03  0.78415579916E+03  0.82765105202E+03  0.00000000000E+00 0.  1.
          4    1    6    6  503    0  0.25029586890E+02 -0.43268741514E+02  0.26522604035E+03  0.26989538101E+03  0.00000000000E+00 0. -1.
         -4    1    6    6    0  503  0.29014884955E+02 -0.44047070122E+03  0.15435913421E+04  0.16054689451E+04  0.00000000000E+00 0.  1.
<mgrwt>
<rscale>  0 0.11762995E+04</rscale>
<asrwt>0</asrwt>
<pdfrwt beam="1">  1        2 0.51874390E+00 0.11762995E+04</pdfrwt>
<pdfrwt beam="2">  1       -1 0.15783239E-01 0.11762995E+04</pdfrwt>
<totfact> 0.34777542E+01</totfact>
</mgrwt>
</event>
<event>
12    6  0.1553355E-007  0.1386731E+04  0.7818608E-02  0.8963480E-01
          2   -1    0    0  501    0  0.00000000000E+00  0.00000000000E+00  0.95190471667E+03  0.95190471667E+03  0.00000000000E+00 0. -1.
         -1   -1    0    0    0  501 -0.00000000000E+00 -0.00000000000E+00 -0.50504599092E+03  0.50504599092E+03  0.00000000000E+00 0.  1.
         24    2    1    2    0    0 -0.18340312355E+03  0.10538803456E+03  0.48341011907E+03  0.53323482655E+03  0.76881034538E+02 0.  0.
        254    2    1    2    0    0  0.18340312355E+03 -0.10538803456E+03 -0.36551393320E+02  0.92371588104E+03  0.89842733761E+03 0.  0.
         23    2    4    4    0    0  0.44384472495E+03  0.88965335453E+02  0.21019515554E+03  0.50575671028E+03  0.81822220690E+02 0.  0.
         23    2    4    4    0    0 -0.26044160140E+03 -0.19435337001E+03 -0.24674654886E+03  0.41795917076E+03  0.90570132340E+02 0.  0.
          2    1    3    3  502    0 -0.17390141335E+03  0.77940902069E+02  0.37035753469E+03  0.41651073129E+03  0.00000000000E+00 0. -1.
         -1    1    3    3    0  502 -0.95017101980E+01  0.27447132492E+02  0.11305258439E+03  0.11672409526E+03  0.00000000000E+00 0.  1.
         11    1    5    5    0    0  0.16890592344E+03 -0.16838088049E+01  0.57326491149E+02  0.17837705226E+03  0.00000000000E+00 0. -1.
        -11    1    5    5    0    0  0.27493880151E+03  0.90649144258E+02  0.15286866439E+03  0.32737965802E+03  0.00000000000E+00 0.  1.
          1    1    6    6  503    0 -0.79045357177E+01 -0.25438913168E+02 -0.48030685549E+02  0.54923280513E+02  0.00000000000E+00 0. -1.
         -1    1    6    6    0  503 -0.25253706569E+03 -0.16891445685E+03 -0.19871586331E+03  0.36303589025E+03  0.00000000000E+00 0.  1.
<mgrwt>
<rscale>  0 0.13867309E+04</rscale>
<asrwt>0</asrwt>
<pdfrwt beam="1">  1        2 0.14644688E+00 0.13867309E+04</pdfrwt>
<pdfrwt beam="2">  1       -1 0.77699383E-01 0.13867309E+04</pdfrwt>
<totfact> 0.49959776E+01</totfact>
</mgrwt>
</event>
<event>
12    6  0.1553355E-007  0.2157465E+04  0.7818608E-02  0.8536344E-01
          2   -1    0    0  501    0  0.00000000000E+00  0.00000000000E+00  0.14960582543E+04  0.14960582543E+04  0.00000000000E+00 0. -1.
         -1   -1    0    0    0  501 -0.00000000000E+00 -0.00000000000E+00 -0.77782000756E+03  0.77782000756E+03  0.00000000000E+00 0.  1.
         24    2    1    2    0    0  0.26063457179E+03 -0.56892209142E+03  0.95602240526E+03  0.11453272090E+04  0.78694664807E+02 0.  0.
        254    2    1    2    0    0 -0.26063457179E+03  0.56892209142E+03 -0.23778415854E+03  0.11285510528E+04  0.90856119586E+03 0.  0.
         23    2    4    4    0    0 -0.82293667064E+02  0.78749644409E+03 -0.23932594383E+03  0.83233237832E+03  0.92614164798E+02 0.  0.
         23    2    4    4    0    0 -0.17834090473E+03 -0.21857435266E+03  0.15417852882E+01  0.29621867449E+03  0.90348769074E+02 0.  0.
          2    1    3    3  502    0  0.25404748326E+03 -0.50782698496E+03  0.83791616187E+03  0.10121916146E+04  0.00000000000E+00 0. -1.
         -1    1    3    3    0  502  0.65870885303E+01 -0.61095106463E+02  0.11810624340E+03  0.13313559441E+03  0.00000000000E+00 0.  1.
         11    1    5    5    0    0 -0.30237374639E+02  0.60653310854E+02 -0.30325543346E+02  0.74247973183E+02  0.00000000000E+00 0. -1.
        -11    1    5    5    0    0 -0.52056292426E+02  0.72684313323E+03 -0.20900040049E+03  0.75808440514E+03  0.00000000000E+00 0.  1.
          1    1    6    6  503    0 -0.17138892907E+01 -0.25307011329E+02 -0.21685169482E+02  0.33371077513E+02  0.00000000000E+00 0. -1.
         -1    1    6    6    0  503 -0.17662701544E+03 -0.19326734134E+03  0.23226954770E+02  0.26284759698E+03  0.00000000000E+00 0.  1.
<mgrwt>
<rscale>  0 0.21574652E+04</rscale>
<asrwt>0</asrwt>
<pdfrwt beam="1">  1        2 0.23016281E+00 0.21574652E+04</pdfrwt>
<pdfrwt beam="2">  1       -1 0.11966462E+00 0.21574652E+04</pdfrwt>
<totfact> 0.83113405E+00</totfact>
</mgrwt>
</event>
<event>
12    6  0.1553355E-007  0.1642729E+04  0.7818608E-02  0.8794719E-01
         -1   -1    0    0    0  501 -0.00000000000E+00  0.00000000000E+00  0.50853107956E+03  0.50853107956E+03  0.00000000000E+00 0.  1.
          2   -1    0    0  501    0  0.00000000000E+00 -0.00000000000E+00 -0.13266443816E+04  0.13266443816E+04  0.00000000000E+00 0. -1.
         24    2    1    2    0    0  0.14425089007E+03  0.20381784420E+03  0.28517813403E+03  0.38642451972E+03  0.75148575533E+02 0.  0.
        254    2    1    2    0    0 -0.14425089007E+03 -0.20381784420E+03 -0.11032914360E+04  0.14487509414E+04  0.90513936192E+03 0.  0.
         23    2    4    4    0    0  0.34095386761E+03  0.39153798035E+02 -0.62724838401E+03  0.72136323248E+03  0.95612855823E+02 0.  0.
         23    2    4    4    0    0 -0.48520475768E+03 -0.24297164224E+03 -0.47604305202E+03  0.72738770892E+03  0.89537790357E+02 0.  0.
          4    1    3    3  502    0  0.10960760815E+03  0.14873083133E+03  0.15610517320E+03  0.24187499468E+03  0.00000000000E+00 0. -1.
         -3    1    3    3    0  502  0.34643281922E+02  0.55087012877E+02  0.12907296083E+03  0.14454952503E+03  0.00000000000E+00 0.  1.
         11    1    5    5    0    0  0.89453983889E+02  0.34325774272E+02 -0.10788319640E+03  0.14428810789E+03  0.00000000000E+00 0. -1.
        -11    1    5    5    0    0  0.25149988372E+03  0.48280237630E+01 -0.51936518760E+03  0.57707512459E+03  0.00000000000E+00 0.  1.
          4    1    6    6  503    0 -0.16551813208E+03 -0.10009564642E+03 -0.22394921318E+03  0.29591999014E+03  0.00000000000E+00 0. -1.
         -4    1    6    6    0  503 -0.31968662560E+03 -0.14287599581E+03 -0.25209383884E+03  0.43146771878E+03  0.00000000000E+00 0.  1.
<mgrwt>
<rscale>  0 0.16427293E+04</rscale>
<asrwt>0</asrwt>
<pdfrwt beam="1">  1        2 0.20409914E+00 0.16427293E+04</pdfrwt>
<pdfrwt beam="2">  1       -1 0.78235550E-01 0.16427293E+04</pdfrwt>
<totfact> 0.28428018E+01</totfact>
</mgrwt>
</event>
<event>
12    6  0.1553355E-007  0.2524287E+04  0.7818608E-02  0.8394384E-01
          2   -1    0    0  501    0  0.00000000000E+00  0.00000000000E+00  0.16373546091E+04  0.16373546091E+04  0.00000000000E+00 0. -1.
         -1   -1    0    0    0  501 -0.00000000000E+00 -0.00000000000E+00 -0.97291465273E+03  0.97291465273E+03  0.00000000000E+00 0.  1.
         24    2    1    2    0    0 -0.41323072003E+03 -0.58286705646E+03  0.11541958618E+04  0.13598910970E+04  0.81498924446E+02 0.  0.
        254    2    1    2    0    0  0.41323072003E+03  0.58286705646E+03 -0.48975590548E+03  0.12503781648E+04  0.90171562850E+03 0.  0.
         23    2    4    4    0    0 -0.19793763047E+03 -0.27716692047E+02 -0.28231765116E+03  0.35705007633E+03  0.88509775022E+02 0.  0.
         23    2    4    4    0    0  0.61116835050E+03  0.61058374851E+03 -0.20743825432E+03  0.89332808851E+03  0.93086936669E+02 0.  0.
          4    1    3    3  502    0 -0.38289566114E+03 -0.55571517767E+03  0.11153289146E+04  0.13036053980E+04  0.00000000000E+00 0. -1.
         -3    1    3    3    0  502 -0.30335058889E+02 -0.27151878795E+02  0.38866947235E+02  0.56285698959E+02  0.00000000000E+00 0.  1.
         11    1    5    5    0    0 -0.13478196286E+03 -0.55994980065E+02 -0.16039824210E+03  0.21686219443E+03  0.00000000000E+00 0.  1.
        -11    1    5    5    0    0 -0.63155667603E+02  0.28278288018E+02 -0.12191940906E+03  0.14018788189E+03  0.00000000000E+00 0. -1.
          3    1    6    6  503    0  0.10573760422E+03  0.15517785798E+03 -0.60740087654E+02  0.19735745946E+03  0.00000000000E+00 0. -1.
         -3    1    6    6    0  503  0.50543074628E+03  0.45540589052E+03 -0.14669816666E+03  0.69597062905E+03  0.00000000000E+00 0.  1.
<mgrwt>
<rscale>  0 0.25242871E+04</rscale>
<asrwt>0</asrwt>
<pdfrwt beam="1">  1        2 0.25190071E+00 0.25242871E+04</pdfrwt>
<pdfrwt beam="2">  1       -1 0.14967918E+00 0.25242871E+04</pdfrwt>
<totfact> 0.37801727E+00</totfact>
</mgrwt>
</event>
<event>
12    6  0.1553355E-007  0.1906356E+04  0.7818608E-02  0.8651699E-01
          2   -1    0    0  501    0  0.00000000000E+00  0.00000000000E+00  0.22585737811E+04  0.22585737811E+04  0.00000000000E+00 0. -1.
         -1   -1    0    0    0  501 -0.00000000000E+00 -0.00000000000E+00 -0.40226621324E+03  0.40226621324E+03  0.00000000000E+00 0.  1.
         24    2    1    2    0    0 -0.59656741091E+02  0.51313409411E+03  0.14503560562E+04  0.15418034478E+04  0.82217130787E+02 0.  0.
        254    2    1    2    0    0  0.59656741091E+02 -0.51313409411E+03  0.40595151169E+03  0.11190365466E+04  0.90585906046E+03 0.  0.
         23    2    4    4    0    0 -0.17899295082E+03 -0.68911058033E+03  0.36353957944E+03  0.80464596563E+03  0.91554550994E+02 0.  0.
         23    2    4    4    0    0  0.23864969191E+03  0.17597648623E+03  0.42411932246E+02  0.31439058094E+03  0.95505320445E+02 0.  0.
          4    1    3    3  502    0 -0.27097961177E+02  0.16809599313E+03  0.59558908507E+03  0.61944888462E+03  0.00000000000E+00 0. -1.
         -3    1    3    3    0  502 -0.32558779914E+02  0.34503810098E+03  0.85476697112E+03  0.92235456316E+03  0.00000000000E+00 0.  1.
         11    1    5    5    0    0 -0.71192490948E+02 -0.13020299788E+03  0.66894964627E+02  0.16277631190E+03  0.00000000000E+00 0.  1.
        -11    1    5    5    0    0 -0.10780045987E+03 -0.55890758245E+03  0.29664461482E+03  0.64186965372E+03  0.00000000000E+00 0. -1.
          4    1    6    6  503    0  0.23054656885E+03  0.13051891219E+03  0.41848615384E+02  0.26821300016E+03  0.00000000000E+00 0. -1.
         -4    1    6    6    0  503  0.81031230620E+01  0.45457574033E+02  0.56331686208E+00  0.46177580775E+02  0.00000000000E+00 0.  1.
<mgrwt>
<rscale>  0 0.19063556E+04</rscale>
<asrwt>0</asrwt>
<pdfrwt beam="1">  1        2 0.34747288E+00 0.19063556E+04</pdfrwt>
<pdfrwt beam="2">  1       -1 0.61887111E-01 0.19063556E+04</pdfrwt>
<totfact> 0.13509727E+01</totfact>
</mgrwt>
</event>
<event>
12    6  0.1553355E-007  0.1716437E+04  0.7818608E-02  0.8752045E-01
          2   -1    0    0  501    0  0.00000000000E+00  0.00000000000E+00  0.70229687883E+03  0.70229687883E+03  0.00000000000E+00 0. -1.
         -1   -1    0    0    0  501 -0.00000000000E+00 -0.00000000000E+00 -0.10487578526E+04  0.10487578526E+04  0.00000000000E+00 0.  1.
         24    2    1    2    0    0  0.22454311780E+03 -0.40236237490E+03 -0.57498246184E+03  0.74115350068E+03  0.79928641051E+02 0.  0.
        254    2    1    2    0    0 -0.22454311780E+03  0.40236237490E+03  0.22852148806E+03  0.10099012307E+04  0.86911640928E+03 0.  0.
         23    2    4    4    0    0  0.72965650710E+02 -0.45068590529E+02 -0.25247838815E+03  0.28307115514E+03  0.95019883994E+02 0.  0.
         23    2    4    4    0    0 -0.29750876851E+03  0.44743096542E+03  0.48099987621E+03  0.72683007561E+03  0.90637419091E+02 0.  0.
          2    1    3    3  502    0  0.93545906119E+02 -0.24151096842E+03 -0.34566053422E+03  0.43192544419E+03  0.00000000000E+00 0. -1.
         -1    1    3    3    0  502  0.13099721169E+03 -0.16085140647E+03 -0.22932192762E+03  0.30922805649E+03  0.00000000000E+00 0.  1.
         11    1    5    5    0    0  0.10142471787E+02 -0.92857143042E+01 -0.18059675119E+03  0.18111952066E+03  0.00000000000E+00 0. -1.
        -11    1    5    5    0    0  0.62823178923E+02 -0.35782876224E+02 -0.71881636956E+02  0.10195163448E+03  0.00000000000E+00 0.  1.
          1    1    6    6  503    0 -0.24723994217E+03  0.29936634943E+03  0.35328084834E+03  0.52493347957E+03  0.00000000000E+00 0. -1.
         -1    1    6    6    0  503 -0.50268826343E+02  0.14806461600E+03  0.12771902787E+03  0.20189659604E+03  0.00000000000E+00 0.  1.
<mgrwt>
<rscale>  0 0.17164374E+04</rscale>
<asrwt>0</asrwt>
<pdfrwt beam="1">  1        2 0.10804567E+00 0.17164374E+04</pdfrwt>
<pdfrwt beam="2">  1       -1 0.16134736E+00 0.17164374E+04</pdfrwt>
<totfact> 0.12640148E+01</totfact>
</mgrwt>
</event>
<event>
12    6  0.1553355E-007  0.1446857E+04  0.7818608E-02  0.8920583E-01
         -1   -1    0    0    0  501 -0.00000000000E+00  0.00000000000E+00  0.17626528715E+03  0.17626528715E+03  0.00000000000E+00 0.  1.
          2   -1    0    0  501    0  0.00000000000E+00 -0.00000000000E+00 -0.29690955993E+04  0.29690955993E+04  0.00000000000E+00 0. -1.
         24    2    1    2    0    0  0.35787346695E+03 -0.23557108172E+03 -0.67290676547E+03  0.80169411375E+03  0.79641597891E+02 0.  0.
        254    2    1    2    0    0 -0.35787346695E+03  0.23557108172E+03 -0.21199235467E+04  0.23436667727E+04  0.90284602496E+03 0.  0.
         23    2    4    4    0    0 -0.46751334680E+03  0.15075875394E+03 -0.47233358791E+03  0.68770494184E+03  0.92423684373E+02 0.  0.
         23    2    4    4    0    0  0.10963987985E+03  0.84812327775E+02 -0.16475899588E+04  0.16559618309E+04  0.91885139306E+02 0.  0.
          2    1    3    3  502    0  0.31210387708E+03 -0.19011427582E+03 -0.61295832452E+03  0.71363168060E+03  0.00000000000E+00 0. -1.
         -1    1    3    3    0  502  0.45769589871E+02 -0.45456805904E+02 -0.59948440953E+02  0.88062433151E+02  0.00000000000E+00 0.  1.
         11    1    5    5    0    0 -0.45626615741E+03  0.12841604266E+03 -0.43923426401E+03  0.64621685608E+03  0.00000000000E+00 0.  1.
        -11    1    5    5    0    0 -0.11247189391E+02  0.22342711282E+02 -0.33099323904E+02  0.41488085754E+02  0.00000000000E+00 0. -1.
          4    1    6    6  503    0  0.31167901918E+02  0.63255944677E+01 -0.11376739896E+03  0.11812904944E+03  0.00000000000E+00 0. -1.
         -4    1    6    6    0  503  0.78471977933E+02  0.78486733307E+02 -0.15338225598E+04  0.15378327814E+04  0.00000000000E+00 0.  1.
<mgrwt>
<rscale>  0 0.14468566E+04</rscale>
<asrwt>0</asrwt>
<pdfrwt beam="1">  1        2 0.45678390E+00 0.14468566E+04</pdfrwt>
<pdfrwt beam="2">  1       -1 0.27117739E-01 0.14468566E+04</pdfrwt>
<totfact> 0.24671708E+01</totfact>
</mgrwt>
</event>
<event>
12    6  0.1553355E-007  0.2061857E+04  0.7818608E-02  0.8578234E-01
         -1   -1    0    0    0  501 -0.00000000000E+00  0.00000000000E+00  0.36195875526E+03  0.36195875526E+03  0.00000000000E+00 0.  1.
          2   -1    0    0  501    0  0.00000000000E+00 -0.00000000000E+00 -0.29362848256E+04  0.29362848256E+04  0.00000000000E+00 0. -1.
         24    2    1    2    0    0  0.43622872488E+02 -0.54031980611E+03 -0.89382468512E+01  0.54832776206E+03  0.82067012344E+02 0.  0.
        254    2    1    2    0    0 -0.43622872488E+02  0.54031980611E+03 -0.25653878235E+04  0.27499158188E+04  0.82883887315E+03 0.  0.
         23    2    4    4    0    0 -0.12778177866E+03  0.67808544725E+03 -0.24048635906E+04  0.25035373567E+04  0.90566827806E+02 0.  0.
         23    2    4    4    0    0  0.84158906172E+02 -0.13776564114E+03 -0.16052423286E+03  0.24637846206E+03  0.94192483046E+02 0.  0.
          2    1    3    3  502    0 -0.69312880777E+01 -0.15451726467E+01 -0.53057077108E+00  0.71212230878E+01  0.00000000000E+00 0. -1.
         -1    1    3    3    0  502  0.50554160566E+02 -0.53877463346E+03 -0.84076760801E+01  0.54120653898E+03  0.00000000000E+00 0.  1.
         11    1    5    5    0    0 -0.42866293145E+02  0.13542922839E+03 -0.38667640422E+03  0.41194324435E+03  0.00000000000E+00 0. -1.
        -11    1    5    5    0    0 -0.84915485515E+02  0.54265621887E+03 -0.20181871864E+04  0.20915941124E+04  0.00000000000E+00 0.  1.
          3    1    6    6  503    0 -0.19451614794E+02 -0.10511062370E+02 -0.26428452007E+02  0.34457376943E+02  0.00000000000E+00 0. -1.
         -3    1    6    6    0  503  0.10361052097E+03 -0.12725457877E+03 -0.13409578086E+03  0.21192108512E+03  0.00000000000E+00 0.  1.
<mgrwt>
<rscale>  0 0.20618574E+04</rscale>
<asrwt>0</asrwt>
<pdfrwt beam="1">  1        2 0.45173613E+00 0.20618574E+04</pdfrwt>
<pdfrwt beam="2">  1       -1 0.55685962E-01 0.20618574E+04</pdfrwt>
<totfact> 0.65583405E+00</totfact>
</mgrwt>
</event>
<event>
12    6  0.1553355E-007  0.3013399E+04  0.7818608E-02  0.8239915E-01
          2   -1    0    0  501    0  0.00000000000E+00  0.00000000000E+00  0.24493432214E+04  0.24493432214E+04  0.00000000000E+00 0. -1.
         -1   -1    0    0    0  501 -0.00000000000E+00 -0.00000000000E+00 -0.92683759685E+03  0.92683759685E+03  0.00000000000E+00 0.  1.
         24    2    1    2    0    0  0.39250533676E+03  0.12963352915E+04  0.45601047055E+03  0.14312236847E+04  0.76876908753E+02 0.  0.
        254    2    1    2    0    0 -0.39250533676E+03 -0.12963352915E+04  0.10664951540E+04  0.19449571335E+04  0.90050025554E+03 0.  0.
         23    2    4    4    0    0  0.14803511053E+03 -0.92299627512E+02 -0.57636859858E+02  0.20889403937E+03  0.99403706585E+02 0.  0.
         23    2    4    4    0    0 -0.54054044729E+03 -0.12040356640E+04  0.11241320138E+04  0.17360630941E+04  0.91413493870E+02 0.  0.
          4    1    3    3  502    0  0.34105674274E+02  0.17757632384E+03  0.80220755067E+02  0.19781788936E+03  0.00000000000E+00 0. -1.
         -3    1    3    3    0  502  0.35839966249E+03  0.11187589677E+04  0.37578971548E+03  0.12334057954E+04  0.00000000000E+00 0.  1.
         11    1    5    5    0    0  0.86140030843E+02 -0.17796501124E+02  0.13134512681E+02  0.88934446585E+02  0.00000000000E+00 0. -1.
        -11    1    5    5    0    0  0.61895079689E+02 -0.74503126388E+02 -0.70771372539E+02  0.11995959279E+03  0.00000000000E+00 0.  1.
          2    1    6    6  503    0 -0.56580578056E+02 -0.19677454437E+03  0.19530930995E+03  0.28296167529E+03  0.00000000000E+00 0. -1.
         -2    1    6    6    0  503 -0.48395986924E+03 -0.10072611196E+04  0.92882270388E+03  0.14531014188E+04  0.00000000000E+00 0.  1.
<mgrwt>
<rscale>  0 0.30133990E+04</rscale>
<asrwt>0</asrwt>
<pdfrwt beam="1">  1        2 0.37682203E+00 0.30133990E+04</pdfrwt>
<pdfrwt beam="2">  1       -1 0.14259040E+00 0.30133990E+04</pdfrwt>
<totfact> 0.14454921E+00</totfact>
</mgrwt>
</event>
<event>
12    6  0.1553355E-007  0.1669897E+04  0.7818608E-02  0.8778722E-01
         -1   -1    0    0    0  501 -0.00000000000E+00  0.00000000000E+00  0.27473116239E+03  0.27473116239E+03  0.00000000000E+00 0.  1.
          2   -1    0    0  501    0  0.00000000000E+00 -0.00000000000E+00 -0.25375308334E+04  0.25375308334E+04  0.00000000000E+00 0. -1.
         24    2    1    2    0    0  0.92780372458E+02 -0.27473954301E+03  0.61220207501E+02  0.30701322946E+03  0.80119880515E+02 0.  0.
        254    2    1    2    0    0 -0.92780372458E+02  0.27473954301E+03 -0.23240198785E+04  0.25052487663E+04  0.88944531670E+03 0.  0.
         23    2    4    4    0    0 -0.14036575879E+03 -0.19598149426E+03 -0.19671447372E+03  0.32405785495E+03  0.90584859929E+02 0.  0.
         23    2    4    4    0    0  0.47585386330E+02  0.47072103727E+03 -0.21273054048E+04  0.21811909113E+04  0.91229615043E+02 0.  0.
          4    1    3    3  502    0  0.13444985306E+02  0.94611675754E+00  0.65133637400E+01  0.14969524842E+02  0.00000000000E+00 0. -1.
         -3    1    3    3    0  502  0.79335387153E+02 -0.27568565977E+03  0.54706843761E+02  0.29204370462E+03  0.00000000000E+00 0.  1.
         11    1    5    5    0    0 -0.14677548139E+03 -0.20004432320E+03 -0.19644006426E+03  0.31646401380E+03  0.00000000000E+00 0.  1.
        -11    1    5    5    0    0  0.64097225992E+01  0.40628289416E+01 -0.27440945579E+00  0.75938411464E+01  0.00000000000E+00 0. -1.
          1    1    6    6  503    0 -0.26817107921E+02  0.10926008162E+03 -0.52991738001E+03  0.54172811663E+03  0.00000000000E+00 0. -1.
         -1    1    6    6    0  503  0.74402494251E+02  0.36146095565E+03 -0.15973880247E+04  0.16394627947E+04  0.00000000000E+00 0.  1.
<mgrwt>
<rscale>  0 0.16698968E+04</rscale>
<asrwt>0</asrwt>
<pdfrwt beam="1">  1        2 0.39038938E+00 0.16698968E+04</pdfrwt>
<pdfrwt beam="2">  1       -1 0.42266331E-01 0.16698968E+04</pdfrwt>
<totfact> 0.19825368E+01</totfact>
</mgrwt>
</event>
<event>
12    6  0.1553355E-007  0.1549695E+04  0.7818608E-02  0.8852062E-01
          2   -1    0    0  501    0  0.00000000000E+00  0.00000000000E+00  0.14105062963E+04  0.14105062963E+04  0.00000000000E+00 0. -1.
         -1   -1    0    0    0  501 -0.00000000000E+00 -0.00000000000E+00 -0.42565497193E+03  0.42565497193E+03  0.00000000000E+00 0.  1.
         24    2    1    2    0    0 -0.37442534497E+03  0.23486245624E+01  0.73780540835E+03  0.83119552875E+03  0.79557095410E+02 0.  0.
        254    2    1    2    0    0  0.37442534497E+03 -0.23486245624E+01  0.24704591602E+03  0.10049657395E+04  0.89929116415E+03 0.  0.
         23    2    4    4    0    0  0.53444547209E+03 -0.33104461347E+02  0.46753905538E+03  0.71638889459E+03  0.88839248020E+02 0.  0.
         23    2    4    4    0    0 -0.16002012712E+03  0.30755836785E+02 -0.22049313936E+03  0.28857684489E+03  0.90038926710E+02 0.  0.
          2    1    3    3  502    0 -0.29712832435E+03 -0.15974683611E+02  0.51672414552E+03  0.59627533423E+03  0.00000000000E+00 0. -1.
         -3    1    3    3    0  502 -0.77297020624E+02  0.18323308174E+02  0.22108126283E+03  0.23492019452E+03  0.00000000000E+00 0.  1.
         11    1    5    5    0    0  0.30982548209E+03 -0.62681804907E+02  0.26465860194E+03  0.41226813313E+03  0.00000000000E+00 0. -1.
        -11    1    5    5    0    0  0.22461999001E+03  0.29577343560E+02  0.20288045345E+03  0.30412076146E+03  0.00000000000E+00 0.  1.
          4    1    6    6  503    0 -0.16672243032E+03  0.42383136221E+02 -0.19714547168E+03  0.26164677719E+03  0.00000000000E+00 0.  1.
         -4    1    6    6    0  503  0.67023032048E+01 -0.11627299437E+02 -0.23347667674E+02  0.26930067699E+02  0.00000000000E+00 0. -1.
<mgrwt>
<rscale>  0 0.15496955E+04</rscale>
<asrwt>0</asrwt>
<pdfrwt beam="1">  1        2 0.21700097E+00 0.15496955E+04</pdfrwt>
<pdfrwt beam="2">  1       -1 0.65485381E-01 0.15496955E+04</pdfrwt>
<totfact> 0.37010114E+01</totfact>
</mgrwt>
</event>
<event>
12    6  0.1553355E-007  0.1762515E+04  0.7818608E-02  0.8726491E-01
         -1   -1    0    0    0  501 -0.00000000000E+00  0.00000000000E+00  0.77751499459E+03  0.77751499459E+03  0.00000000000E+00 0.  1.
          2   -1    0    0  501    0  0.00000000000E+00 -0.00000000000E+00 -0.99884275832E+03  0.99884275832E+03  0.00000000000E+00 0. -1.
         24    2    1    2    0    0  0.51747926530E+03  0.17119913121E+03 -0.46919679632E+03  0.72373302484E+03  0.80931607038E+02 0.  0.
        254    2    1    2    0    0 -0.51747926530E+03 -0.17119913121E+03  0.24786903259E+03  0.10526247281E+04  0.86572849570E+03 0.  0.
         23    2    4    4    0    0 -0.64937109903E+03 -0.25491055099E+03  0.40576539722E+03  0.81224870421E+03  0.91870488431E+02 0.  0.
         23    2    4    4    0    0  0.13189183373E+03  0.83711419782E+02 -0.15789636462E+03  0.24037602385E+03  0.91903826231E+02 0.  0.
          2    1    3    3  502    0  0.44893945639E+03  0.12517028203E+03 -0.37285200764E+03  0.59685245631E+03  0.00000000000E+00 0. -1.
         -3    1    3    3    0  502  0.68539808912E+02  0.46028849183E+02 -0.96344788683E+02  0.12688056852E+03  0.00000000000E+00 0.  1.
         11    1    5    5    0    0 -0.19005194287E+03 -0.35656782052E+02  0.13411862252E+03  0.23532732948E+03  0.00000000000E+00 0. -1.
        -11    1    5    5    0    0 -0.45931915616E+03 -0.21925376894E+03  0.27164677470E+03  0.57692137472E+03  0.00000000000E+00 0.  1.
          2    1    6    6  503    0  0.23536183536E+02 -0.13600179754E+02 -0.57156521120E+02  0.63291268998E+02  0.00000000000E+00 0. -1.
         -2    1    6    6    0  503  0.10835565019E+03  0.97311599537E+02 -0.10073984350E+03  0.17708475486E+03  0.00000000000E+00 0.  1.
<mgrwt>
<rscale>  0 0.17625155E+04</rscale>
<asrwt>0</asrwt>
<pdfrwt beam="1">  1        2 0.15366812E+00 0.17625155E+04</pdfrwt>
<pdfrwt beam="2">  1       -1 0.11961769E+00 0.17625155E+04</pdfrwt>
<totfact> 0.17009715E+01</totfact>
</mgrwt>
</event>
<event>
12    6  0.1553355E-007  0.1426612E+04  0.7818608E-02  0.8934778E-01
          2   -1    0    0  501    0  0.00000000000E+00  0.00000000000E+00  0.14552163676E+04  0.14552163676E+04  0.00000000000E+00 0. -1.
         -1   -1    0    0    0  501 -0.00000000000E+00 -0.00000000000E+00 -0.34964245999E+03  0.34964245999E+03  0.00000000000E+00 0.  1.
         24    2    1    2    0    0 -0.16343592505E+03 -0.18647510223E+03 -0.96411440769E+02  0.28341472058E+03  0.97695816604E+02 0.  0.
        254    2    1    2    0    0  0.16343592505E+03  0.18647510223E+03  0.12019853483E+04  0.15214441070E+04  0.89918803800E+03 0.  0.
         23    2    4    4    0    0  0.25650788650E+03  0.37826702316E+02 -0.25393201443E+02  0.27784155142E+03  0.96560642978E+02 0.  0.
         23    2    4    4    0    0 -0.93071961442E+02  0.14864839991E+03  0.12273785498E+04  0.12436025556E+04  0.96594383493E+02 0.  0.
          4    1    3    3  502    0 -0.58463329580E+02 -0.11900279175E+03 -0.12796755302E+02  0.13320428783E+03  0.00000000000E+00 0. -1.
         -3    1    3    3    0  502 -0.10497259547E+03 -0.67472310477E+02 -0.83614685467E+02  0.15021043275E+03  0.00000000000E+00 0.  1.
         11    1    5    5    0    0  0.19424224862E+03  0.35625667693E+02  0.23183032148E+02  0.19883835729E+03  0.00000000000E+00 0.  1.
        -11    1    5    5    0    0  0.62265637872E+02  0.22010346224E+01 -0.48576233591E+02  0.79003194131E+02  0.00000000000E+00 0. -1.
          2    1    6    6  503    0 -0.87250333499E+02  0.78211694943E+02  0.53809140964E+03  0.55070142096E+03  0.00000000000E+00 0. -1.
         -2    1    6    6    0  503 -0.58216279435E+01  0.70436704967E+02  0.68928714014E+03  0.69290113460E+03  0.00000000000E+00 0.  1.
<mgrwt>
<rscale>  0 0.14266120E+04</rscale>
<asrwt>0</asrwt>
<pdfrwt beam="1">  1        2 0.22387944E+00 0.14266120E+04</pdfrwt>
<pdfrwt beam="2">  1       -1 0.53791148E-01 0.14266120E+04</pdfrwt>
<totfact> 0.51962797E+01</totfact>
</mgrwt>
</event>
<event>
12    6  0.1553355E-007  0.1519051E+04  0.7818608E-02  0.8871882E-01
         -1   -1    0    0    0  501 -0.00000000000E+00  0.00000000000E+00  0.26589041923E+03  0.26589041923E+03  0.00000000000E+00 0.  1.
          2   -1    0    0  501    0  0.00000000000E+00 -0.00000000000E+00 -0.21696107150E+04  0.21696107150E+04  0.00000000000E+00 0. -1.
         24    2    1    2    0    0  0.44234460435E+03  0.99495626208E+02 -0.33197367520E+03  0.56794915930E+03  0.82411151472E+02 0.  0.
        254    2    1    2    0    0 -0.44234460435E+03 -0.99495626208E+02 -0.15717466206E+04  0.18675519749E+04  0.90099656554E+03 0.  0.
         23    2    4    4    0    0 -0.78905281116E+02  0.36939069750E+02  0.92558592204E+02  0.15616241597E+03  0.90714215588E+02 0.  0.
         23    2    4    4    0    0 -0.36343932324E+03 -0.13643469596E+03 -0.16643052128E+04  0.17113895589E+04  0.90773417230E+02 0.  0.
          2    1    3    3  502    0  0.11189982974E+02  0.11359589554E+02  0.11885128032E+01  0.15989639036E+02  0.00000000000E+00 0. -1.
         -1    1    3    3    0  502  0.43115462138E+03  0.88136036654E+02 -0.33316218800E+03  0.55195952026E+03  0.00000000000E+00 0.  1.
         11    1    5    5    0    0 -0.53551218872E+02  0.20706819387E+02 -0.14679606098E+01  0.57433964865E+02  0.00000000000E+00 0. -1.
        -11    1    5    5    0    0 -0.25354062244E+02  0.16232250363E+02  0.94026552814E+02  0.98728451108E+02  0.00000000000E+00 0.  1.
          2    1    6    6  503    0 -0.12566809150E+03 -0.47326234715E+01 -0.58748588622E+03  0.60079491797E+03  0.00000000000E+00 0. -1.
         -2    1    6    6    0  503 -0.23777123174E+03 -0.13170207249E+03 -0.10768193265E+04  0.11105946410E+04  0.00000000000E+00 0.  1.
<mgrwt>
<rscale>  0 0.15190506E+04</rscale>
<asrwt>0</asrwt>
<pdfrwt beam="1">  1        2 0.33378625E+00 0.15190506E+04</pdfrwt>
<pdfrwt beam="2">  1       -1 0.40906220E-01 0.15190506E+04</pdfrwt>
<totfact> 0.34531564E+01</totfact>
</mgrwt>
</event>
<event>
12    6  0.1553355E-007  0.2988202E+04  0.7818608E-02  0.8247108E-01
         -1   -1    0    0    0  501 -0.00000000000E+00  0.00000000000E+00  0.82017961058E+03  0.82017961058E+03  0.00000000000E+00 0.  1.
          2   -1    0    0  501    0  0.00000000000E+00 -0.00000000000E+00 -0.27217671597E+04  0.27217671597E+04  0.00000000000E+00 0. -1.
         24    2    1    2    0    0 -0.10197173581E+04 -0.77817294359E+03 -0.13920155327E+04  0.18946028874E+04  0.80226163391E+02 0.  0.
        254    2    1    2    0    0  0.10197173581E+04  0.77817294359E+03 -0.50957201639E+03  0.16473438828E+04  0.89927838165E+03 0.  0.
         23    2    4    4    0    0  0.97208740035E+03  0.75281334801E+03 -0.70825462835E+03  0.14219268581E+04  0.92571704205E+02 0.  0.
         23    2    4    4    0    0  0.47629957768E+02  0.25359595580E+02  0.19868261196E+03  0.22541702467E+03  0.91795058428E+02 0.  0.
          4    1    3    3  502    0 -0.53855457533E+03 -0.41809870899E+03 -0.79811624627E+03  0.10496842876E+04  0.00000000000E+00 0. -1.
         -3    1    3    3    0  502 -0.48116278279E+03 -0.36007423460E+03 -0.59389928641E+03  0.84491859985E+03  0.00000000000E+00 0.  1.
         11    1    5    5    0    0  0.79414824133E+03  0.60245097041E+03 -0.61323930669E+03  0.11703337337E+04  0.00000000000E+00 0.  1.
        -11    1    5    5    0    0  0.17793915902E+03  0.15036237760E+03 -0.95015321655E+02  0.25159312443E+03  0.00000000000E+00 0. -1.
          3    1    6    6  503    0 -0.98274183533E+01  0.12547344373E+02 -0.21976452935E+01  0.16088618559E+02  0.00000000000E+00 0. -1.
         -3    1    6    6    0  503  0.57457376121E+02  0.12812251208E+02  0.20088025725E+03  0.20932840611E+03  0.00000000000E+00 0.  1.
<mgrwt>
<rscale>  0 0.29882021E+04</rscale>
<asrwt>0</asrwt>
<pdfrwt beam="1">  1        2 0.41873341E+00 0.29882021E+04</pdfrwt>
<pdfrwt beam="2">  1       -1 0.12618148E+00 0.29882021E+04</pdfrwt>
<totfact> 0.13712268E+00</totfact>
</mgrwt>
</event>
<event>
12    6  0.1553355E-007  0.2060301E+04  0.7818608E-02  0.8578935E-01
          2   -1    0    0  501    0  0.00000000000E+00  0.00000000000E+00  0.24658261209E+04  0.24658261209E+04  0.00000000000E+00 0. -1.
         -1   -1    0    0    0  501 -0.00000000000E+00 -0.00000000000E+00 -0.43036703078E+03  0.43036703078E+03  0.00000000000E+00 0.  1.
         24    2    1    2    0    0  0.77191705944E+03  0.31262345703E+03  0.85820369933E+03  0.11985800661E+04  0.80568062318E+02 0.  0.
        254    2    1    2    0    0 -0.77191705944E+03 -0.31262345703E+03  0.11772553908E+04  0.16976130856E+04  0.89575139450E+03 0.  0.
         23    2    4    4    0    0 -0.46967912653E+01  0.39874577294E+02  0.73248161721E+03  0.73889529614E+03  0.88458449848E+02 0.  0.
         23    2    4    4    0    0 -0.76722026818E+03 -0.35249803432E+03  0.44477377356E+03  0.95871778945E+03  0.91838369264E+02 0.  0.
          4    1    3    3  502    0  0.36249178402E+03  0.11557482234E+03  0.35148159001E+03  0.51797407382E+03  0.00000000000E+00 0. -1.
         -3    1    3    3    0  502  0.40942527542E+03  0.19704863469E+03  0.50672210933E+03  0.68060599224E+03  0.00000000000E+00 0.  1.
         11    1    5    5    0    0 -0.80376075957E+01 -0.22660374958E+02  0.38963694592E+03  0.39037808002E+03  0.00000000000E+00 0.  1.
        -11    1    5    5    0    0  0.33408163305E+01  0.62534952252E+02  0.34284467128E+03  0.34851721612E+03  0.00000000000E+00 0. -1.
          2    1    6    6  503    0 -0.31193934946E+03 -0.19216085924E+03  0.18071184127E+03  0.40852016247E+03  0.00000000000E+00 0. -1.
         -2    1    6    6    0  503 -0.45528091871E+03 -0.16033717508E+03  0.26406193229E+03  0.55019762699E+03  0.00000000000E+00 0.  1.
<mgrwt>
<rscale>  0 0.20603012E+04</rscale>
<asrwt>0</asrwt>
<pdfrwt beam="1">  1        2 0.37935786E+00 0.20603012E+04</pdfrwt>
<pdfrwt beam="2">  1       -1 0.66210314E-01 0.20603012E+04</pdfrwt>
<totfact> 0.88661626E+00</totfact>
</mgrwt>
</event>
<event>
12    6  0.1553355E-007  0.1867267E+04  0.7818608E-02  0.8671324E-01
          2   -1    0    0  501    0  0.00000000000E+00  0.00000000000E+00  0.23850097952E+04  0.23850097952E+04  0.00000000000E+00 0. -1.
         -1   -1    0    0    0  501 -0.00000000000E+00 -0.00000000000E+00 -0.36547903937E+03  0.36547903937E+03  0.00000000000E+00 0.  1.
         24    2    1    2    0    0 -0.18775276915E+03 -0.36880566321E+03 -0.76903198392E+02  0.42873768325E+03  0.81444334225E+02 0.  0.
        254    2    1    2    0    0  0.18775276915E+03  0.36880566321E+03  0.20964339543E+04  0.23217511514E+04  0.90786803267E+03 0.  0.
         23    2    4    4    0    0  0.29781563672E+02  0.31245888154E+01 -0.68105151290E+02  0.11903685256E+03  0.92923388038E+02 0.  0.
         23    2    4    4    0    0  0.15797120547E+03  0.36568107440E+03  0.21645391056E+04  0.22027142988E+04  0.89683849017E+02 0.  0.
          2    1    3    3  502    0 -0.34824523176E+02 -0.11611665041E+03 -0.53323847125E+02  0.13243585840E+03  0.00000000000E+00 0. -1.
         -1    1    3    3    0  502 -0.15292824597E+03 -0.25268901280E+03 -0.23579351267E+02  0.29630182485E+03  0.00000000000E+00 0.  1.
         11    1    5    5    0    0  0.38152984629E+02 -0.37298541635E+02 -0.23623983124E+02  0.58351726820E+02  0.00000000000E+00 0. -1.
        -11    1    5    5    0    0 -0.83714209577E+01  0.40423130451E+02 -0.44481168166E+02  0.60685125737E+02  0.00000000000E+00 0.  1.
          1    1    6    6  503    0  0.81685103931E+02  0.28237195521E+03  0.14785219060E+04  0.15074592544E+04  0.00000000000E+00 0. -1.
         -1    1    6    6    0  503  0.76286101543E+02  0.83309119188E+02  0.68601719956E+03  0.69525504437E+03  0.00000000000E+00 0.  1.
<mgrwt>
<rscale>  0 0.18672665E+04</rscale>
<asrwt>0</asrwt>
<pdfrwt beam="1">  1        2 0.36692457E+00 0.18672665E+04</pdfrwt>
<pdfrwt beam="2">  1       -1 0.56227546E-01 0.18672665E+04</pdfrwt>
<totfact> 0.13882655E+01</totfact>
</mgrwt>
</event>
<event>
12    6  0.1553355E-007  0.2372082E+04  0.7818608E-02  0.8450030E-01
          2   -1    0    0  501    0  0.00000000000E+00  0.00000000000E+00  0.12616252877E+04  0.12616252877E+04  0.00000000000E+00 0. -1.
         -1   -1    0    0    0  501 -0.00000000000E+00 -0.00000000000E+00 -0.11149852465E+04  0.11149852465E+04  0.00000000000E+00 0.  1.
         24    2    1    2    0    0 -0.10509931431E+02 -0.80335927659E+02 -0.94612395822E+03  0.95255769197E+03  0.75175077528E+02 0.  0.
        254    2    1    2    0    0  0.10509931431E+02  0.80335927659E+02  0.10927639994E+04  0.14240528422E+04  0.90952131306E+03 0.  0.
         23    2    4    4    0    0 -0.29925622281E+03 -0.28699314003E+03  0.52136947815E+03  0.67202592144E+03  0.88731939183E+02 0.  0.
         23    2    4    4    0    0  0.30976615424E+03  0.36732906769E+03  0.57139452129E+03  0.75202692074E+03  0.90371877693E+02 0.  0.
          2    1    3    3  502    0  0.33556574874E+01  0.55412099086E+01 -0.74957832635E+01  0.99071797782E+01  0.00000000000E+00 0. -1.
         -1    1    3    3    0  502 -0.13865588919E+02 -0.85877137567E+02 -0.93862817495E+03  0.94265051219E+03  0.00000000000E+00 0.  1.
         11    1    5    5    0    0 -0.93324126782E+02 -0.50039187957E+02  0.17511352863E+03  0.20464129809E+03  0.00000000000E+00 0.  1.
        -11    1    5    5    0    0 -0.20593209602E+03 -0.23695395207E+03  0.34625594951E+03  0.46738462335E+03  0.00000000000E+00 0. -1.
          2    1    6    6  503    0  0.17868236721E+03  0.24795901074E+03  0.41646878133E+03  0.51658233146E+03  0.00000000000E+00 0. -1.
         -2    1    6    6    0  503  0.13108378703E+03  0.11937005694E+03  0.15492573996E+03  0.23544458928E+03  0.00000000000E+00 0.  1.
<mgrwt>
<rscale>  0 0.23720823E+04</rscale>
<asrwt>0</asrwt>
<pdfrwt beam="1">  1        2 0.19409620E+00 0.23720823E+04</pdfrwt>
<pdfrwt beam="2">  1       -1 0.17153619E+00 0.23720823E+04</pdfrwt>
<totfact> 0.42878789E+00</totfact>
</mgrwt>
</event>
<event>
12    6  0.1553355E-007  0.2323180E+04  0.7818608E-02  0.8468837E-01
         -1   -1    0    0    0  501 -0.00000000000E+00  0.00000000000E+00  0.89383746011E+03  0.89383746011E+03  0.00000000000E+00 0.  1.
          2   -1    0    0  501    0  0.00000000000E+00 -0.00000000000E+00 -0.15095482210E+04  0.15095482210E+04  0.00000000000E+00 0. -1.
         24    2    1    2    0    0 -0.61281950706E+03  0.10730230318E+03  0.52447414418E+03  0.81730506830E+03  0.76504341343E+02 0.  0.
        254    2    1    2    0    0  0.61281950706E+03 -0.10730230318E+03 -0.11401849051E+04  0.15860806128E+04  0.91025741418E+03 0.  0.
         23    2    4    4    0    0 -0.12156962707E+03  0.14035532639E+03 -0.34500467030E+01  0.20709353964E+03  0.91635361447E+02 0.  0.
         23    2    4    4    0    0  0.73438913413E+03 -0.24765762957E+03 -0.11367348584E+04  0.13789870732E+04  0.93688355228E+02 0.  0.
          2    1    3    3  502    0 -0.10534516741E+02  0.12902821218E+02  0.19837565402E+02  0.25903432967E+02  0.00000000000E+00 0. -1.
         -1    1    3    3    0  502 -0.60228499032E+03  0.94399481960E+02  0.50463657878E+03  0.79140163533E+03  0.00000000000E+00 0.  1.
         11    1    5    5    0    0 -0.55044338388E+02  0.64241761172E+02  0.44074419029E+02  0.95390971689E+02  0.00000000000E+00 0. -1.
        -11    1    5    5    0    0 -0.66525288682E+02  0.76113565221E+02 -0.47524465732E+02  0.11170256796E+03  0.00000000000E+00 0.  1.
          2    1    6    6  503    0  0.56437811866E+03 -0.19047044266E+03 -0.93925259466E+03  0.11122037075E+04  0.00000000000E+00 0. -1.
         -2    1    6    6    0  503  0.17001101547E+03 -0.57187186913E+02 -0.19748226373E+03  0.26678336570E+03  0.00000000000E+00 0.  1.
<mgrwt>
<rscale>  0 0.23231795E+04</rscale>
<asrwt>0</asrwt>
<pdfrwt beam="1">  1        2 0.23223819E+00 0.23231795E+04</pdfrwt>
<pdfrwt beam="2">  1       -1 0.13751346E+00 0.23231795E+04</pdfrwt>
<totfact> 0.56763187E+00</totfact>
</mgrwt>
</event>
<event>
12    6  0.1553355E-007  0.1341702E+04  0.7818608E-02  0.8997134E-01
         -1   -1    0    0    0  501 -0.00000000000E+00  0.00000000000E+00  0.31009259995E+03  0.31009259995E+03  0.00000000000E+00 0.  1.
          2   -1    0    0  501    0  0.00000000000E+00 -0.00000000000E+00 -0.14513113530E+04  0.14513113530E+04  0.00000000000E+00 0. -1.
         24    2    1    2    0    0 -0.96979488356E+02 -0.70916743068E+02  0.13483323553E+03  0.19731143646E+03  0.79483306071E+02 0.  0.
        254    2    1    2    0    0  0.96979488356E+02  0.70916743068E+02 -0.12760519886E+04  0.15640925165E+04  0.89646110735E+03 0.  0.
         23    2    4    4    0    0  0.26042504934E+03  0.20397956845E+02 -0.13336937879E+04  0.13622397263E+04  0.93384522734E+02 0.  0.
         23    2    4    4    0    0 -0.16344556099E+03  0.50518786223E+02  0.57641799289E+02  0.20185279021E+03  0.90307102279E+02 0.  0.
          2    1    3    3  502    0  0.37256336493E+01  0.11648023912E+02  0.43956365888E+01  0.12995323319E+02  0.00000000000E+00 0. -1.
         -1    1    3    3    0  502 -0.10070512201E+03 -0.82564766980E+02  0.13043759894E+03  0.18431611314E+03  0.00000000000E+00 0.  1.
         11    1    5    5    0    0  0.35053677096E+02 -0.22075329417E+02 -0.11692572556E+03  0.12404719160E+03  0.00000000000E+00 0.  1.
        -11    1    5    5    0    0  0.22537137225E+03  0.42473286262E+02 -0.12167680624E+04  0.12381925347E+04  0.00000000000E+00 0. -1.
          1    1    6    6  503    0 -0.15997927053E+02 -0.10017199294E+02  0.36466053288E+02  0.41061551287E+02  0.00000000000E+00 0.  1.
         -1    1    6    6    0  503 -0.14744763393E+03  0.60535985518E+02  0.21175746001E+02  0.16079123892E+03  0.00000000000E+00 0. -1.
<mgrwt>
<rscale>  0 0.13417018E+04</rscale>
<asrwt>0</asrwt>
<pdfrwt beam="1">  1        2 0.22327867E+00 0.13417018E+04</pdfrwt>
<pdfrwt beam="2">  1       -1 0.47706554E-01 0.13417018E+04</pdfrwt>
<totfact> 0.66094531E+01</totfact>
</mgrwt>
</event>
<event>
12    6  0.1553355E-007  0.3080509E+04  0.7818608E-02  0.8221108E-01
          2   -1    0    0  501    0  0.00000000000E+00  0.00000000000E+00  0.19159117068E+04  0.19159117068E+04  0.00000000000E+00 0. -1.
         -1   -1    0    0    0  501 -0.00000000000E+00 -0.00000000000E+00 -0.12382528852E+04  0.12382528852E+04  0.00000000000E+00 0.  1.
         24    2    1    2    0    0  0.97146770766E+03 -0.66965316994E+03 -0.47338094640E+03  0.12738017139E+04  0.79349925986E+02 0.  0.
        254    2    1    2    0    0 -0.97146770766E+03  0.66965316994E+03  0.11510397680E+04  0.18803628782E+04  0.90481331284E+03 0.  0.
         23    2    4    4    0    0 -0.55876745366E+03  0.49379307991E+03  0.12041814790E+04  0.14194138233E+04  0.92897224746E+02 0.  0.
         23    2    4    4    0    0 -0.41270025401E+03  0.17586009003E+03 -0.53141710948E+02  0.46094905493E+03  0.91660890633E+02 0.  0.
          2    1    3    3  502    0  0.70192824247E+02 -0.57381272431E+02 -0.58575612327E+02  0.10793861849E+03  0.00000000000E+00 0. -1.
         -1    1    3    3    0  502  0.90127488342E+03 -0.61227189751E+03 -0.41480533407E+03  0.11658630954E+04  0.00000000000E+00 0.  1.
         11    1    5    5    0    0 -0.27431086275E+03  0.30355520275E+03  0.66781181398E+03  0.78317611648E+03  0.00000000000E+00 0.  1.
        -11    1    5    5    0    0 -0.28445659091E+03  0.19023787716E+03  0.53636966499E+03  0.63623770679E+03  0.00000000000E+00 0. -1.
          3    1    6    6  503    0 -0.57721571037E+02  0.61891456422E+02 -0.17527915272E+02  0.86426616009E+02  0.00000000000E+00 0. -1.
         -3    1    6    6    0  503 -0.35497868297E+03  0.11396863361E+03 -0.35613795676E+02  0.37452243892E+03  0.00000000000E+00 0.  1.
<mgrwt>
<rscale>  0 0.30805085E+04</rscale>
<asrwt>0</asrwt>
<pdfrwt beam="1">  1        2 0.29475565E+00 0.30805085E+04</pdfrwt>
<pdfrwt beam="2">  1       -1 0.19050044E+00 0.30805085E+04</pdfrwt>
<totfact> 0.12617358E+00</totfact>
</mgrwt>
</event>
<event>
12    6  0.1553355E-007  0.1797555E+04  0.7818608E-02  0.8707601E-01
          4   -1    0    0  501    0  0.00000000000E+00  0.00000000000E+00  0.30353617720E+03  0.30353617720E+03  0.00000000000E+00 0. -1.
         -3   -1    0    0    0  501 -0.00000000000E+00 -0.00000000000E+00 -0.26613008534E+04  0.26613008534E+04  0.00000000000E+00 0.  1.
         24    2    1    2    0    0  0.41573776023E+03 -0.23023518642E+03 -0.10598554434E+03  0.49428124810E+03  0.85058158122E+02 0.  0.
        254    2    1    2    0    0 -0.41573776023E+03  0.23023518642E+03 -0.22517791319E+04  0.24705557825E+04  0.89849345543E+03 0.  0.
         23    2    4    4    0    0  0.10292531916E+03 -0.19007331092E+03 -0.11890824822E+04  0.12118931033E+04  0.89700944118E+02 0.  0.
         23    2    4    4    0    0 -0.51866307939E+03  0.42030849735E+03 -0.10626966497E+04  0.12586626793E+04  0.96109042717E+02 0.  0.
          4    1    3    3  502    0  0.21792492969E+03 -0.99035443325E+02 -0.92195004928E+02  0.25651357264E+03  0.00000000000E+00 0. -1.
         -3    1    3    3    0  502  0.19781283054E+03 -0.13119974310E+03 -0.13790539416E+02  0.23776767546E+03  0.00000000000E+00 0.  1.
         11    1    5    5    0    0 -0.14999342256E+02 -0.38132604375E+02 -0.24729158655E+03  0.25066352859E+03  0.00000000000E+00 0. -1.
        -11    1    5    5    0    0  0.11792466142E+03 -0.15194070655E+03 -0.94179089566E+03  0.96122957467E+03  0.00000000000E+00 0.  1.
          4    1    6    6  503    0  0.39893342979E+01  0.13394251077E+01 -0.37373954149E+01  0.56282299390E+01  0.00000000000E+00 0. -1.
         -4    1    6    6    0  503 -0.52265241369E+03  0.41896907224E+03 -0.10589592542E+04  0.12530344493E+04  0.00000000000E+00 0.  1.
<mgrwt>
<rscale>  0 0.17975551E+04</rscale>
<asrwt>0</asrwt>
<pdfrwt beam="1">  1        4 0.46697872E-01 0.17975551E+04</pdfrwt>
<pdfrwt beam="2">  1       -3 0.40943091E+00 0.17975551E+04</pdfrwt>
<totfact> 0.90902399E-02</totfact>
</mgrwt>
</event>
<event>
12    6  0.1553355E-007  0.2141462E+04  0.7818608E-02  0.8543196E-01
          2   -1    0    0  501    0  0.00000000000E+00  0.00000000000E+00  0.22172471175E+04  0.22172471175E+04  0.00000000000E+00 0. -1.
         -1   -1    0    0    0  501 -0.00000000000E+00 -0.00000000000E+00 -0.51706663590E+03  0.51706663590E+03  0.00000000000E+00 0.  1.
         24    2    1    2    0    0  0.21887774414E+03  0.46740946370E+02 -0.39002736426E+03  0.45646664354E+03  0.78410897473E+02 0.  0.
        254    2    1    2    0    0 -0.21887774414E+03 -0.46740946370E+02  0.20902078459E+04  0.22778471099E+04  0.87722655801E+03 0.  0.
         23    2    4    4    0    0  0.27832022468E+03 -0.68215820079E+02  0.13361031527E+04  0.13697986107E+04  0.95189567019E+02 0.  0.
         23    2    4    4    0    0 -0.49719796882E+03  0.21474873710E+02  0.75410469325E+03  0.90804849924E+03  0.90615661955E+02 0.  0.
          2    1    3    3  502    0  0.81751158013E+02 -0.86319369619E+01 -0.89498003657E+02  0.12152224007E+03  0.00000000000E+00 0. -1.
         -1    1    3    3    0  502  0.13712658612E+03  0.55372883332E+02 -0.30052936060E+03  0.33494440347E+03  0.00000000000E+00 0.  1.
         11    1    5    5    0    0  0.19681119484E+03 -0.41007059049E+02  0.11070775707E+04  0.11251830842E+04  0.00000000000E+00 0. -1.
        -11    1    5    5    0    0  0.81509029837E+02 -0.27208761030E+02  0.22902558191E+03  0.24461552647E+03  0.00000000000E+00 0.  1.
          2    1    6    6  503    0 -0.21967377782E+03 -0.16110089076E+02  0.26653122548E+03  0.34576725957E+03  0.00000000000E+00 0. -1.
         -2    1    6    6    0  503 -0.27752419100E+03  0.37584962785E+02  0.48757346777E+03  0.56228123967E+03  0.00000000000E+00 0.  1.
<mgrwt>
<rscale>  0 0.21414617E+04</rscale>
<asrwt>0</asrwt>
<pdfrwt beam="1">  1        2 0.34111493E+00 0.21414617E+04</pdfrwt>
<pdfrwt beam="2">  1       -1 0.79548715E-01 0.21414617E+04</pdfrwt>
<totfact> 0.83334513E+00</totfact>
</mgrwt>
</event>
<event>
12    6  0.1553355E-007  0.1341484E+04  0.7818608E-02  0.8997300E-01
         -1   -1    0    0    0  501 -0.00000000000E+00  0.00000000000E+00  0.14568774842E+03  0.14568774842E+03  0.00000000000E+00 0.  1.
          2   -1    0    0  501    0  0.00000000000E+00 -0.00000000000E+00 -0.30880766828E+04  0.30880766828E+04  0.00000000000E+00 0. -1.
         24    2    1    2    0    0  0.30917555449E+03 -0.12909231426E+03 -0.96796651791E+03  0.10271471242E+04  0.76273755663E+02 0.  0.
        254    2    1    2    0    0 -0.30917555449E+03  0.12909231426E+03 -0.19744224164E+04  0.22066173070E+04  0.92658605212E+03 0.  0.
         23    2    4    4    0    0  0.13694337335E+03  0.18953889782E+03 -0.15834860827E+04  0.16032396874E+04  0.90944156781E+02 0.  0.
         23    2    4    4    0    0 -0.44611892784E+03 -0.60446583552E+02 -0.39093633371E+03  0.60337761965E+03  0.92506473511E+02 0.  0.
          2    1    3    3  502    0  0.17113192310E+03 -0.65783269801E+02 -0.41478880313E+03  0.45350118510E+03  0.00000000000E+00 0. -1.
         -1    1    3    3    0  502  0.13804363139E+03 -0.63309044462E+02 -0.55317771479E+03  0.57364593907E+03  0.00000000000E+00 0.  1.
         11    1    5    5    0    0  0.13384598206E+02 -0.20670493116E+01 -0.25289463735E+03  0.25325701917E+03  0.00000000000E+00 0. -1.
        -11    1    5    5    0    0  0.12355877514E+03  0.19160594713E+03 -0.13305914454E+04  0.13499826682E+04  0.00000000000E+00 0.  1.
          3    1    6    6  503    0 -0.13219271645E+03 -0.49411186358E+02 -0.84201686940E+02  0.16433594769E+03  0.00000000000E+00 0. -1.
         -3    1    6    6    0  503 -0.31392621139E+03 -0.11035397194E+02 -0.30673464677E+03  0.43904167196E+03  0.00000000000E+00 0.  1.
<mgrwt>
<rscale>  0 0.13414842E+04</rscale>
<asrwt>0</asrwt>
<pdfrwt beam="1">  1        2 0.47508871E+00 0.13414842E+04</pdfrwt>
<pdfrwt beam="2">  1       -1 0.22413500E-01 0.13414842E+04</pdfrwt>
<totfact> 0.29113152E+01</totfact>
</mgrwt>
</event>
<event>
12    6  0.1553355E-007  0.3280966E+04  0.7818608E-02  0.8167756E-01
         -1   -1    0    0    0  501 -0.00000000000E+00  0.00000000000E+00  0.10169178445E+04  0.10169178445E+04  0.00000000000E+00 0.  1.
          2   -1    0    0  501    0  0.00000000000E+00 -0.00000000000E+00 -0.26464121571E+04  0.26464121571E+04  0.00000000000E+00 0. -1.
         24    2    1    2    0    0 -0.11912432379E+04  0.81856925749E+03 -0.24609317862E+03  0.14683645877E+04  0.80103862671E+02 0.  0.
        254    2    1    2    0    0  0.11912432379E+04 -0.81856925749E+03 -0.13834011340E+04  0.21949654138E+04  0.90275045781E+03 0.  0.
         23    2    4    4    0    0 -0.70527694852E+02 -0.31979337827E+03 -0.21687655602E+03  0.40338469821E+03  0.91879342984E+02 0.  0.
         23    2    4    4    0    0  0.12617709328E+04 -0.49877587922E+03 -0.11665245780E+04  0.17915807156E+04  0.90214217363E+02 0.  0.
          2    1    3    3  502    0 -0.23817873204E+03  0.19980357566E+03 -0.38768622620E+02  0.31329472282E+03  0.00000000000E+00 0. -1.
         -1    1    3    3    0  502 -0.95306450587E+03  0.61876568183E+03 -0.20732455600E+03  0.11550698649E+04  0.00000000000E+00 0.  1.
         11    1    5    5    0    0 -0.79500397490E+02 -0.15738259990E+03 -0.96277030884E+02  0.20089515333E+03  0.00000000000E+00 0.  1.
        -11    1    5    5    0    0  0.89727026375E+01 -0.16241077837E+03 -0.12059952514E+03  0.20248954488E+03  0.00000000000E+00 0. -1.
          4    1    6    6  503    0  0.62742423188E+03 -0.20021091215E+03 -0.57488001885E+03  0.87420398774E+03  0.00000000000E+00 0. -1.
         -4    1    6    6    0  503  0.63434670088E+03 -0.29856496706E+03 -0.59164455917E+03  0.91737672789E+03  0.00000000000E+00 0.  1.
<mgrwt>
<rscale>  0 0.32809656E+04</rscale>
<asrwt>0</asrwt>
<pdfrwt beam="1">  1        2 0.40714033E+00 0.32809656E+04</pdfrwt>
<pdfrwt beam="2">  1       -1 0.15644890E+00 0.32809656E+04</pdfrwt>
<totfact> 0.84446662E-01</totfact>
</mgrwt>
</event>
<event>
12    6  0.1553355E-007  0.1182820E+04  0.7818608E-02  0.9128029E-01
         -1   -1    0    0    0  501 -0.00000000000E+00  0.00000000000E+00  0.16631558790E+03  0.16631558790E+03  0.00000000000E+00 0.  1.
          2   -1    0    0  501    0  0.00000000000E+00 -0.00000000000E+00 -0.21030235721E+04  0.21030235721E+04  0.00000000000E+00 0. -1.
         24    2    1    2    0    0  0.28802591229E+02 -0.23257606264E+03 -0.38009175361E+03  0.45362946799E+03  0.79929587073E+02 0.  0.
        254    2    1    2    0    0 -0.28802591229E+02  0.23257606264E+03 -0.15566162306E+04  0.18157096920E+04  0.90489025974E+03 0.  0.
         23    2    4    4    0    0  0.77591717607E+02  0.50807949553E+03 -0.53113080092E+03  0.74468081345E+03  0.91018337719E+02 0.  0.
         23    2    4    4    0    0 -0.10639430884E+03 -0.27550343290E+03 -0.10254854297E+04  0.10710288786E+04  0.90887852759E+02 0.  0.
          2    1    3    3  502    0  0.14262566494E+02 -0.23210763055E+03 -0.36395316710E+03  0.43190193425E+03  0.00000000000E+00 0. -1.
         -1    1    3    3    0  502  0.14540024735E+02 -0.46843208753E+00 -0.16138586509E+02  0.21727533740E+02  0.00000000000E+00 0.  1.
         11    1    5    5    0    0  0.30031451669E+02  0.34400985750E+03 -0.40563252626E+03  0.53271232059E+03  0.00000000000E+00 0. -1.
        -11    1    5    5    0    0  0.47560265938E+02  0.16406963803E+03 -0.12549827466E+03  0.21196849285E+03  0.00000000000E+00 0.  1.
          4    1    6    6  503    0 -0.11838743634E+03 -0.20051332550E+03 -0.78973904808E+03  0.82335225928E+03  0.00000000000E+00 0. -1.
         -4    1    6    6    0  503  0.11993127507E+02 -0.74990107397E+02 -0.23574638158E+03  0.24767661929E+03  0.00000000000E+00 0.  1.
<mgrwt>
<rscale>  0 0.11828197E+04</rscale>
<asrwt>0</asrwt>
<pdfrwt beam="1">  1        2 0.32354210E+00 0.11828197E+04</pdfrwt>
<pdfrwt beam="2">  1       -1 0.25587013E-01 0.11828197E+04</pdfrwt>
<totfact> 0.88845599E+01</totfact>
</mgrwt>
</event>
<event>
12    6  0.1553355E-007  0.1631433E+04  0.7818608E-02  0.8801467E-01
          2   -1    0    0  501    0  0.00000000000E+00  0.00000000000E+00  0.93470782534E+03  0.93470782534E+03  0.00000000000E+00 0. -1.
         -1   -1    0    0    0  501 -0.00000000000E+00 -0.00000000000E+00 -0.71187304314E+03  0.71187304314E+03  0.00000000000E+00 0.  1.
         24    2    1    2    0    0  0.16541056301E+03  0.51789084243E+03 -0.65493938445E+02  0.55403775075E+03  0.84242472985E+02 0.  0.
        254    2    1    2    0    0 -0.16541056301E+03 -0.51789084243E+03  0.28832872065E+03  0.10925431177E+04  0.90274328241E+03 0.  0.
         23    2    4    4    0    0 -0.24978601801E+03 -0.28418325236E+02  0.48199240408E+03  0.55103520515E+03  0.90124712061E+02 0.  0.
         23    2    4    4    0    0  0.84375454996E+02 -0.48947251719E+03 -0.19366368343E+03  0.54150791258E+03  0.94987549830E+02 0.  0.
          2    1    3    3  502    0  0.11918526105E+02  0.76202594028E+02  0.17605095691E+02  0.79112742308E+02  0.00000000000E+00 0. -1.
         -1    1    3    3    0  502  0.15349203691E+03  0.44168824840E+03 -0.83099034136E+02  0.47492500844E+03  0.00000000000E+00 0.  1.
         11    1    5    5    0    0 -0.14772123377E+03 -0.61124712652E+02  0.28534016191E+03  0.32707308266E+03  0.00000000000E+00 0. -1.
        -11    1    5    5    0    0 -0.10206478424E+03  0.32706387417E+02  0.19665224217E+03  0.22396212249E+03  0.00000000000E+00 0.  1.
          3    1    6    6  503    0  0.50829845737E+02 -0.15261451268E+03 -0.10316251350E+03  0.19109517757E+03  0.00000000000E+00 0. -1.
         -3    1    6    6    0  503  0.33545609259E+02 -0.33685800451E+03 -0.90501169923E+02  0.35041273501E+03  0.00000000000E+00 0.  1.
<mgrwt>
<rscale>  0 0.16314329E+04</rscale>
<asrwt>0</asrwt>
<pdfrwt beam="1">  1        2 0.14380120E+00 0.16314329E+04</pdfrwt>
<pdfrwt beam="2">  1       -1 0.10951893E+00 0.16314329E+04</pdfrwt>
<totfact> 0.23399667E+01</totfact>
</mgrwt>
</event>
<event>
12    6  0.1553355E-007  0.1701531E+04  0.7818608E-02  0.8760492E-01
         -1   -1    0    0    0  501 -0.00000000000E+00  0.00000000000E+00  0.35584494219E+03  0.35584494219E+03  0.00000000000E+00 0.  1.
          2   -1    0    0  501    0  0.00000000000E+00 -0.00000000000E+00 -0.20340364613E+04  0.20340364613E+04  0.00000000000E+00 0. -1.
         24    2    1    2    0    0  0.16461177480E+03 -0.51884829653E+03 -0.98022227511E+03  0.11240967938E+04  0.80357339028E+02 0.  0.
        254    2    1    2    0    0 -0.16461177480E+03  0.51884829653E+03 -0.69796924400E+03  0.12657846097E+04  0.90484751280E+03 0.  0.
         23    2    4    4    0    0  0.18805153490E+03 -0.31359061173E+02  0.96974363982E+02  0.23265582946E+03  0.91531072416E+02 0.  0.
         23    2    4    4    0    0 -0.35266330970E+03  0.55020735770E+03 -0.79494360798E+03  0.10331287803E+04  0.91215076848E+02 0.  0.
          2    1    3    3  502    0  0.13641162442E+03 -0.35592619851E+03 -0.74105953598E+03  0.83334316216E+03  0.00000000000E+00 0. -1.
         -1    1    3    3    0  502  0.28200150384E+02 -0.16292209802E+03 -0.23916273914E+03  0.29075363161E+03  0.00000000000E+00 0.  1.
         11    1    5    5    0    0  0.15713072112E+03  0.27947241593E+01  0.10034853442E+03  0.18646099422E+03  0.00000000000E+00 0. -1.
        -11    1    5    5    0    0  0.30920813777E+02 -0.34153785333E+02 -0.33741704411E+01  0.46194835245E+02  0.00000000000E+00 0.  1.
          3    1    6    6  503    0 -0.21175143651E+03  0.33976770847E+03 -0.55438709765E+03  0.68383171952E+03  0.00000000000E+00 0. -1.
         -3    1    6    6    0  503 -0.14091187320E+03  0.21043964923E+03 -0.24055651034E+03  0.34929706074E+03  0.00000000000E+00 0.  1.
<mgrwt>
<rscale>  0 0.17015306E+04</rscale>
<asrwt>0</asrwt>
<pdfrwt beam="1">  1        2 0.31292868E+00 0.17015306E+04</pdfrwt>
<pdfrwt beam="2">  1       -1 0.54745377E-01 0.17015306E+04</pdfrwt>
<totfact> 0.23369267E+01</totfact>
</mgrwt>
</event>
<event>
12    6  0.1553355E-007  0.1694786E+04  0.7818608E-02  0.8764344E-01
         -1   -1    0    0    0  501 -0.00000000000E+00  0.00000000000E+00  0.68104543034E+03  0.68104543034E+03  0.00000000000E+00 0.  1.
          2   -1    0    0  501    0  0.00000000000E+00 -0.00000000000E+00 -0.10543710402E+04  0.10543710402E+04  0.00000000000E+00 0. -1.
         24    2    1    2    0    0 -0.37980364147E+03 -0.46923031548E+03 -0.10417009603E+03  0.61793547228E+03  0.81024341693E+02 0.  0.
        254    2    1    2    0    0  0.37980364147E+03  0.46923031548E+03 -0.26915551388E+03  0.11174809983E+04  0.90105005183E+03 0.  0.
         23    2    4    4    0    0 -0.51410341401E+01 -0.21385715490E+03 -0.23159003316E+03  0.32721685864E+03  0.87610594027E+02 0.  0.
         23    2    4    4    0    0  0.38494467561E+03  0.68308747038E+03 -0.37565480721E+02  0.79026413967E+03  0.91188538952E+02 0.  0.
          4    1    3    3  502    0 -0.17282888863E+03 -0.24882310969E+03 -0.86509995192E+02  0.31506625324E+03  0.00000000000E+00 0. -1.
         -3    1    3    3    0  502 -0.20697475284E+03 -0.22040720579E+03 -0.17660100835E+02  0.30286921904E+03  0.00000000000E+00 0.  1.
         11    1    5    5    0    0 -0.45006863748E+02 -0.10033724602E+03 -0.96393069113E+02  0.14623544200E+03  0.00000000000E+00 0.  1.
        -11    1    5    5    0    0  0.39865829608E+02 -0.11351990888E+03 -0.13519696405E+03  0.18098141664E+03  0.00000000000E+00 0. -1.
          3    1    6    6  503    0  0.31794888062E+03  0.54528776695E+03  0.50211385287E+01  0.63123327804E+03  0.00000000000E+00 0. -1.
         -3    1    6    6    0  503  0.66995794990E+02  0.13779970344E+03 -0.42586619250E+02  0.15903086164E+03  0.00000000000E+00 0.  1.
<mgrwt>
<rscale>  0 0.16947856E+04</rscale>
<asrwt>0</asrwt>
<pdfrwt beam="1">  1        2 0.16221093E+00 0.16947856E+04</pdfrwt>
<pdfrwt beam="2">  1       -1 0.10477622E+00 0.16947856E+04</pdfrwt>
<totfact> 0.21615341E+01</totfact>
</mgrwt>
</event>
<event>
12    6  0.1553355E-007  0.3264157E+04  0.7818608E-02  0.8172076E-01
          2   -1    0    0  501    0  0.00000000000E+00  0.00000000000E+00  0.20529411297E+04  0.20529411297E+04  0.00000000000E+00 0. -1.
         -1   -1    0    0    0  501 -0.00000000000E+00 -0.00000000000E+00 -0.12974945078E+04  0.12974945078E+04  0.00000000000E+00 0.  1.
         24    2    1    2    0    0  0.75660136171E+02  0.64827732109E+03 -0.10444835508E+04  0.12341658714E+04  0.78940288581E+02 0.  0.
        254    2    1    2    0    0 -0.75660136171E+02 -0.64827732109E+03  0.17999301726E+04  0.21162697661E+04  0.90158812948E+03 0.  0.
         23    2    4    4    0    0  0.30570937929E+03 -0.62552788743E+03  0.13285838146E+04  0.15026544681E+04  0.89956297924E+02 0.  0.
         23    2    4    4    0    0 -0.38136951546E+03 -0.22749433666E+02  0.47134635803E+03  0.61361529798E+03  0.91630238627E+02 0.  0.
          2    1    3    3  502    0  0.23216127609E+02  0.39515593037E+02 -0.86992473627E+02  0.98326807850E+02  0.00000000000E+00 0. -1.
         -3    1    3    3    0  502  0.52444008563E+02  0.60876172805E+03 -0.95749107714E+03  0.11358390636E+04  0.00000000000E+00 0.  1.
         11    1    5    5    0    0  0.29874532399E+03 -0.60939532526E+03  0.13170622563E+04  0.14816424731E+04  0.00000000000E+00 0. -1.
        -11    1    5    5    0    0  0.69640553043E+01 -0.16132562170E+02  0.11521558254E+02  0.21011994980E+02  0.00000000000E+00 0.  1.
          1    1    6    6  503    0 -0.32665313446E+03 -0.50337969696E+02  0.38005235452E+03  0.50366255928E+03  0.00000000000E+00 0. -1.
         -1    1    6    6    0  503 -0.54716380997E+02  0.27588536030E+02  0.91294003508E+02  0.10995273869E+03  0.00000000000E+00 0.  1.
<mgrwt>
<rscale>  0 0.32641568E+04</rscale>
<asrwt>0</asrwt>
<pdfrwt beam="1">  1        2 0.31583710E+00 0.32641568E+04</pdfrwt>
<pdfrwt beam="2">  1       -1 0.19961454E+00 0.32641568E+04</pdfrwt>
<totfact> 0.90057447E-01</totfact>
</mgrwt>
</event>
<event>
12    6  0.1553355E-007  0.2841320E+04  0.7818608E-02  0.8290554E-01
         -1   -1    0    0    0  501 -0.00000000000E+00  0.00000000000E+00  0.10148565462E+04  0.10148565462E+04  0.00000000000E+00 0.  1.
          2   -1    0    0  501    0  0.00000000000E+00 -0.00000000000E+00 -0.19887296164E+04  0.19887296164E+04  0.00000000000E+00 0. -1.
         24    2    1    2    0    0 -0.25486393994E+03 -0.87485176465E+03 -0.13825756681E+04  0.16578054856E+04  0.80512806019E+02 0.  0.
        254    2    1    2    0    0  0.25486393994E+03  0.87485176465E+03  0.40870259796E+03  0.13457806770E+04  0.90209011690E+03 0.  0.
         23    2    4    4    0    0  0.45211482762E+03  0.66100195180E+03 -0.35865452042E+02  0.80668061782E+03  0.90088239443E+02 0.  0.
         23    2    4    4    0    0 -0.19725088768E+03  0.21384981285E+03  0.44456805000E+03  0.53910005917E+03  0.91369948943E+02 0.  0.
          2    1    3    3  502    0 -0.13011821237E+03 -0.48931560552E+03 -0.69821522927E+03  0.86247609671E+03  0.00000000000E+00 0. -1.
         -1    1    3    3    0  502 -0.12474572757E+03 -0.38553615912E+03 -0.68436043885E+03  0.79532938887E+03  0.00000000000E+00 0.  1.
         11    1    5    5    0    0  0.20272421254E+03  0.34575809331E+03 -0.53326948184E+02  0.40433838409E+03  0.00000000000E+00 0. -1.
        -11    1    5    5    0    0  0.24939061507E+03  0.31524385848E+03  0.17461496141E+02  0.40234223373E+03  0.00000000000E+00 0.  1.
          2    1    6    6  503    0 -0.13821173618E+03  0.14766138987E+03  0.37617471163E+03  0.42709926686E+03  0.00000000000E+00 0. -1.
         -2    1    6    6    0  503 -0.59039151503E+02  0.66188422975E+02  0.68393338370E+02  0.11200079232E+03  0.00000000000E+00 0.  1.
<mgrwt>
<rscale>  0 0.28413203E+04</rscale>
<asrwt>0</asrwt>
<pdfrwt beam="1">  1        2 0.30595840E+00 0.28413203E+04</pdfrwt>
<pdfrwt beam="2">  1       -1 0.15613178E+00 0.28413203E+04</pdfrwt>
<totfact> 0.20917777E+00</totfact>
</mgrwt>
</event>
<event>
12    6  0.1553355E-007  0.1089682E+04  0.7818608E-02  0.9215307E-01
          2   -1    0    0  501    0  0.00000000000E+00  0.00000000000E+00  0.35817114840E+04  0.35817114840E+04  0.00000000000E+00 0. -1.
         -1   -1    0    0    0  501 -0.00000000000E+00 -0.00000000000E+00 -0.82879832482E+02  0.82879832482E+02  0.00000000000E+00 0.  1.
         24    2    1    2    0    0  0.10266564461E+03 -0.37113045129E+02  0.18450455761E+03  0.22881907904E+03  0.79991414851E+02 0.  0.
        254    2    1    2    0    0 -0.10266564461E+03  0.37113045129E+02  0.33143270939E+04  0.34357722375E+04  0.89880429989E+03 0.  0.
         23    2    4    4    0    0  0.39075044423E+03  0.25935159002E+02  0.15777978084E+04  0.16281394806E+04  0.89630922332E+02 0.  0.
         23    2    4    4    0    0 -0.49341608884E+03  0.11177886127E+02  0.17365292856E+04  0.18076327568E+04  0.91748798523E+02 0.  0.
          2    1    3    3  502    0 -0.58777192935E+01 -0.14472701155E+02  0.26736199472E+01  0.15847867568E+02  0.00000000000E+00 0. -1.
         -1    1    3    3    0  502  0.10854336390E+03 -0.22640343974E+02  0.18183093766E+03  0.21297121147E+03  0.00000000000E+00 0.  1.
         11    1    5    5    0    0  0.10987186110E+03 -0.11162561436E+01  0.29823372748E+03  0.31783081678E+03  0.00000000000E+00 0.  1.
        -11    1    5    5    0    0  0.28087858313E+03  0.27051415145E+02  0.12795640809E+04  0.13103086639E+04  0.00000000000E+00 0. -1.
          2    1    6    6  503    0 -0.47101904926E+03  0.30076874273E+02  0.16100953272E+04  0.16778469912E+04  0.00000000000E+00 0. -1.
         -2    1    6    6    0  503 -0.22397039578E+02 -0.18898988146E+02  0.12643395836E+03  0.12978576564E+03  0.00000000000E+00 0.  1.
<mgrwt>
<rscale>  0 0.10896819E+04</rscale>
<asrwt>0</asrwt>
<pdfrwt beam="1">  1        2 0.55103242E+00 0.10896819E+04</pdfrwt>
<pdfrwt beam="2">  1       -1 0.12750746E-01 0.10896819E+04</pdfrwt>
<totfact> 0.35693646E+01</totfact>
</mgrwt>
</event>
<event>
12    6  0.1553355E-007  0.3096839E+04  0.7818608E-02  0.8216606E-01
         -1   -1    0    0    0  501 -0.00000000000E+00  0.00000000000E+00  0.11625847219E+04  0.11625847219E+04  0.00000000000E+00 0.  1.
          2   -1    0    0  501    0  0.00000000000E+00 -0.00000000000E+00 -0.20623042266E+04  0.20623042266E+04  0.00000000000E+00 0. -1.
         24    2    1    2    0    0  0.31991495889E+03 -0.13615750360E+04 -0.64481494827E+03  0.15422403097E+04  0.80540026939E+02 0.  0.
        254    2    1    2    0    0 -0.31991495889E+03  0.13615750360E+04 -0.25490455638E+03  0.16826486388E+04  0.90005441467E+03 0.  0.
         23    2    4    4    0    0 -0.12490519018E+03  0.12721319195E+04  0.67674305428E+02  0.12835168746E+04  0.94418369802E+02 0.  0.
         23    2    4    4    0    0 -0.19500976871E+03  0.89443116442E+02 -0.32257886180E+03  0.39913176422E+03  0.96021675465E+02 0.  0.
          2    1    3    3  502    0  0.24716341933E+03 -0.10164229405E+04 -0.44424139706E+03  0.11364663518E+04  0.00000000000E+00 0. -1.
         -3    1    3    3    0  502  0.72751539564E+02 -0.34515209541E+03 -0.20057355120E+03  0.40577395791E+03  0.00000000000E+00 0.  1.
         11    1    5    5    0    0  0.15197093368E+02  0.12290341215E+03  0.64354153570E+00  0.12384108571E+03  0.00000000000E+00 0.  1.
        -11    1    5    5    0    0 -0.14010228355E+03  0.11492285074E+04  0.67030763892E+02  0.11596757889E+04  0.00000000000E+00 0. -1.
          4    1    6    6  503    0 -0.12496546632E+03  0.89374536046E+02 -0.15856514260E+03  0.22078740887E+03  0.00000000000E+00 0.  1.
         -4    1    6    6    0  503 -0.70044302382E+02  0.68580396321E-01 -0.16401371921E+03  0.17834435536E+03  0.00000000000E+00 0. -1.
<mgrwt>
<rscale>  0 0.30968393E+04</rscale>
<asrwt>0</asrwt>
<pdfrwt beam="1">  1        2 0.31727757E+00 0.30968393E+04</pdfrwt>
<pdfrwt beam="2">  1       -1 0.17885919E+00 0.30968393E+04</pdfrwt>
<totfact> 0.12634604E+00</totfact>
</mgrwt>
</event>
<event>
12    6  0.1553355E-007  0.1081463E+04  0.7818608E-02  0.9223450E-01
          2   -1    0    0  501    0  0.00000000000E+00  0.00000000000E+00  0.12730836576E+04  0.12730836576E+04  0.00000000000E+00 0. -1.
         -1   -1    0    0    0  501 -0.00000000000E+00 -0.00000000000E+00 -0.22967116644E+03  0.22967116644E+03  0.00000000000E+00 0.  1.
         24    2    1    2    0    0  0.11200672833E+03  0.15557059423E+03  0.12819987569E+03  0.24330963844E+03  0.77567100312E+02 0.  0.
        254    2    1    2    0    0 -0.11200672833E+03 -0.15557059423E+03  0.91521261544E+03  0.12594451856E+04  0.84370630378E+03 0.  0.
         23    2    4    4    0    0  0.19628032022E+03  0.19479663579E+03  0.65638249114E+03  0.71815269176E+03  0.91834746030E+02 0.  0.
         23    2    4    4    0    0 -0.30828704854E+03 -0.35036723002E+03  0.25883012430E+03  0.54129249382E+03  0.90589350668E+02 0.  0.
          2    1    3    3  502    0 -0.65898419892E+01  0.20723489923E+02 -0.14882657381E+01  0.21796880211E+02  0.00000000000E+00 0. -1.
         -1    1    3    3    0  502  0.11859657032E+03  0.13484710431E+03  0.12968814143E+03  0.22151275823E+03  0.00000000000E+00 0.  1.
         11    1    5    5    0    0  0.18231264592E+03  0.20474217435E+03  0.61335574914E+03  0.67183519841E+03  0.00000000000E+00 0.  1.
        -11    1    5    5    0    0  0.13967674294E+02 -0.99455385596E+01  0.43026742009E+02  0.46317493352E+02  0.00000000000E+00 0. -1.
          1    1    6    6  503    0 -0.15433192970E+03 -0.13195664959E+03  0.15141709059E+03  0.25329436871E+03  0.00000000000E+00 0. -1.
         -1    1    6    6    0  503 -0.15395511884E+03 -0.21841058042E+03  0.10741303371E+03  0.28799812511E+03  0.00000000000E+00 0.  1.
<mgrwt>
<rscale>  0 0.10814631E+04</rscale>
<asrwt>0</asrwt>
<pdfrwt beam="1">  1        2 0.19585902E+00 0.10814631E+04</pdfrwt>
<pdfrwt beam="2">  1       -1 0.35334026E-01 0.10814631E+04</pdfrwt>
<totfact> 0.14798730E+02</totfact>
</mgrwt>
</event>
<event>
12    6  0.1553355E-007  0.1809726E+04  0.7818608E-02  0.8701144E-01
         -1   -1    0    0    0  501 -0.00000000000E+00  0.00000000000E+00  0.45852180951E+03  0.45852180951E+03  0.00000000000E+00 0.  1.
          2   -1    0    0  501    0  0.00000000000E+00 -0.00000000000E+00 -0.17856887595E+04  0.17856887595E+04  0.00000000000E+00 0. -1.
         24    2    1    2    0    0 -0.40458594420E+03  0.19932299853E+03 -0.12047050777E+04  0.12887950436E+04  0.79113186130E+02 0.  0.
        254    2    1    2    0    0  0.40458594420E+03 -0.19932299853E+03 -0.12246187234E+03  0.95541552544E+03  0.83330814953E+03 0.  0.
         23    2    4    4    0    0  0.13593505610E+03  0.22993990276E+03  0.20172105921E+03  0.34705212028E+03  0.91668370262E+02 0.  0.
         23    2    4    4    0    0  0.26865088810E+03 -0.42926290128E+03 -0.32418293155E+03  0.60836340515E+03  0.92582511943E+02 0.  0.
          2    1    3    3  502    0 -0.20545485782E+03  0.13761930273E+03 -0.59105707468E+03  0.64070214345E+03  0.00000000000E+00 0. -1.
         -1    1    3    3    0  502 -0.19913108638E+03  0.61703695793E+02 -0.61364800300E+03  0.64809290015E+03  0.00000000000E+00 0.  1.
         11    1    5    5    0    0  0.10858994374E+03  0.21222831598E+03  0.20485491118E+03  0.31432175969E+03  0.00000000000E+00 0.  1.
        -11    1    5    5    0    0  0.27345112362E+02  0.17711586782E+02 -0.31338519616E+01  0.32730360593E+02  0.00000000000E+00 0. -1.
          3    1    6    6  503    0 -0.72272493809E+01 -0.58499548441E+01 -0.78079931976E+01  0.12141658168E+02  0.00000000000E+00 0. -1.
         -3    1    6    6    0  503  0.27587813749E+03 -0.42341294644E+03 -0.31637493836E+03  0.59622174698E+03  0.00000000000E+00 0.  1.
<mgrwt>
<rscale>  0 0.18097262E+04</rscale>
<asrwt>0</asrwt>
<pdfrwt beam="1">  1        2 0.27472135E+00 0.18097262E+04</pdfrwt>
<pdfrwt beam="2">  1       -1 0.70541816E-01 0.18097262E+04</pdfrwt>
<totfact> 0.19173884E+01</totfact>
</mgrwt>
</event>
<event>
12    6  0.1553355E-007  0.2239355E+04  0.7818608E-02  0.8502224E-01
         -1   -1    0    0    0  501 -0.00000000000E+00  0.00000000000E+00  0.43921985223E+03  0.43921985223E+03  0.00000000000E+00 0.  1.
          2   -1    0    0  501    0  0.00000000000E+00 -0.00000000000E+00 -0.28543281869E+04  0.28543281869E+04  0.00000000000E+00 0. -1.
         24    2    1    2    0    0  0.41181169084E+03 -0.30297311470E+03  0.14041962760E+03  0.53445567139E+03  0.67406349234E+02 0.  0.
        254    2    1    2    0    0 -0.41181169084E+03  0.30297311470E+03 -0.25555279622E+04  0.27590923677E+04  0.90580679551E+03 0.  0.
         23    2    4    4    0    0 -0.10099876646E+03  0.47592566167E+03 -0.64112417032E+03  0.80977835085E+03  0.89413586647E+02 0.  0.
         23    2    4    4    0    0 -0.31081292438E+03 -0.17295254697E+03 -0.19144037919E+04  0.19493140169E+04  0.91465842306E+02 0.  0.
          2    1    3    3  502    0  0.25510884970E+03 -0.22491016615E+03  0.10394941438E+03  0.35562703606E+03  0.00000000000E+00 0. -1.
         -1    1    3    3    0  502  0.15670284114E+03 -0.78062948560E+02  0.36470213226E+02  0.17882863532E+03  0.00000000000E+00 0.  1.
         11    1    5    5    0    0 -0.27578647502E+02  0.33078905342E+03 -0.43731016114E+03  0.54901926806E+03  0.00000000000E+00 0. -1.
        -11    1    5    5    0    0 -0.73420118960E+02  0.14513660825E+03 -0.20381400918E+03  0.26075908279E+03  0.00000000000E+00 0.  1.
          1    1    6    6  503    0 -0.31461924100E+03 -0.16706820795E+03 -0.19019644415E+04  0.19350363794E+04  0.00000000000E+00 0. -1.
         -1    1    6    6    0  503  0.38063166239E+01 -0.58843390206E+01 -0.12439350415E+02  0.14277637434E+02  0.00000000000E+00 0.  1.
<mgrwt>
<rscale>  0 0.22393549E+04</rscale>
<asrwt>0</asrwt>
<pdfrwt beam="1">  1        2 0.43912740E+00 0.22393549E+04</pdfrwt>
<pdfrwt beam="2">  1       -1 0.67572288E-01 0.22393549E+04</pdfrwt>
<totfact> 0.49303845E+00</totfact>
</mgrwt>
</event>
<event>
12    6  0.1553355E-007  0.2262306E+04  0.7818608E-02  0.8492933E-01
          2   -1    0    0  501    0  0.00000000000E+00  0.00000000000E+00  0.30493141085E+04  0.30493141085E+04  0.00000000000E+00 0. -1.
         -1   -1    0    0    0  501 -0.00000000000E+00 -0.00000000000E+00 -0.41960499386E+03  0.41960499386E+03  0.00000000000E+00 0.  1.
         24    2    1    2    0    0  0.24258977368E+03 -0.91754902002E+03  0.11045990907E+04  0.14584848676E+04  0.79328149671E+02 0.  0.
        254    2    1    2    0    0 -0.24258977368E+03  0.91754902002E+03  0.15251100239E+04  0.20104342347E+04  0.90285061048E+03 0.  0.
         23    2    4    4    0    0  0.46619380163E+02 -0.98463120386E+02  0.55619657184E+03  0.57403503862E+03  0.91067262825E+02 0.  0.
         23    2    4    4    0    0 -0.28920915384E+03  0.10160121404E+04  0.96891345205E+03  0.14363991961E+04  0.92340505430E+02 0.  0.
          2    1    3    3  502    0  0.19575352306E+03 -0.71287569727E+03  0.90755950720E+03  0.11705449417E+04  0.00000000000E+00 0. -1.
         -1    1    3    3    0  502  0.46836250622E+02 -0.20467332276E+03  0.19703958353E+03  0.28793992585E+03  0.00000000000E+00 0.  1.
         11    1    5    5    0    0  0.51188718946E+02 -0.85289125109E+02  0.54974361148E+03  0.55867034839E+03  0.00000000000E+00 0. -1.
        -11    1    5    5    0    0 -0.45693387834E+01 -0.13173995277E+02  0.64529603573E+01  0.15364690229E+02  0.00000000000E+00 0.  1.
          4    1    6    6  503    0 -0.27635291924E+02  0.16601389987E+03  0.19391732763E+03  0.25676497866E+03  0.00000000000E+00 0.  1.
         -4    1    6    6    0  503 -0.26157386192E+03  0.84999824053E+03  0.77499612442E+03  0.11796342175E+04  0.00000000000E+00 0. -1.
<mgrwt>
<rscale>  0 0.22623063E+04</rscale>
<asrwt>0</asrwt>
<pdfrwt beam="1">  1        2 0.46912523E+00 0.22623063E+04</pdfrwt>
<pdfrwt beam="2">  1       -1 0.64554616E-01 0.22623063E+04</pdfrwt>
<totfact> 0.40852125E+00</totfact>
</mgrwt>
</event>
<event>
12    6  0.1553355E-007  0.1333827E+04  0.7818608E-02  0.9003162E-01
         -1   -1    0    0    0  501 -0.00000000000E+00  0.00000000000E+00  0.51780242604E+03  0.51780242604E+03  0.00000000000E+00 0.  1.
          2   -1    0    0  501    0  0.00000000000E+00 -0.00000000000E+00 -0.85896399749E+03  0.85896399749E+03  0.00000000000E+00 0. -1.
         24    2    1    2    0    0  0.17768667161E+03  0.17655906444E+02 -0.41343312553E+03  0.45747202181E+03  0.80432687082E+02 0.  0.
        254    2    1    2    0    0 -0.17768667161E+03 -0.17655906444E+02  0.72271554091E+02  0.91929440172E+03  0.89888527366E+03 0.  0.
         23    2    4    4    0    0  0.19235982161E+03  0.15199942226E+02 -0.31185834968E+03  0.37820356984E+03  0.92460644399E+02 0.  0.
         23    2    4    4    0    0 -0.37004649322E+03 -0.32855848670E+02  0.38412990377E+03  0.54109083188E+03  0.84909312992E+02 0.  0.
          4    1    3    3  502    0  0.17209400170E+03  0.18035253947E+01 -0.40157464022E+03  0.43690020576E+03  0.00000000000E+00 0. -1.
         -3    1    3    3    0  502  0.55926699103E+01  0.15852381050E+02 -0.11858485310E+02  0.20571816048E+02  0.00000000000E+00 0.  1.
         11    1    5    5    0    0  0.16344215125E+03 -0.20032137160E+02 -0.21202290944E+03  0.26845546642E+03  0.00000000000E+00 0.  1.
        -11    1    5    5    0    0  0.28917670364E+02  0.35232079385E+02 -0.99835440233E+02  0.10974810342E+03  0.00000000000E+00 0. -1.
          4    1    6    6  503    0 -0.10748211473E+03 -0.13529431544E+02  0.17069572743E+03  0.20216943851E+03  0.00000000000E+00 0. -1.
         -4    1    6    6    0  503 -0.26256437849E+03 -0.19326417126E+02  0.21343417634E+03  0.33892139337E+03  0.00000000000E+00 0.  1.
<mgrwt>
<rscale>  0 0.13338270E+04</rscale>
<asrwt>0</asrwt>
<pdfrwt beam="1">  1        2 0.13214831E+00 0.13338270E+04</pdfrwt>
<pdfrwt beam="2">  1       -1 0.79661912E-01 0.13338270E+04</pdfrwt>
<totfact> 0.54986156E+01</totfact>
</mgrwt>
</event>
<event>
12    6  0.1553355E-007  0.2686779E+04  0.7818608E-02  0.8339307E-01
         -1   -1    0    0    0  501 -0.00000000000E+00  0.00000000000E+00  0.18329172777E+04  0.18329172777E+04  0.00000000000E+00 0.  1.
          2   -1    0    0  501    0  0.00000000000E+00 -0.00000000000E+00 -0.98460291839E+03  0.98460291839E+03  0.00000000000E+00 0. -1.
         24    2    1    2    0    0  0.14196805884E+03  0.88094901618E+03 -0.44848815569E+03  0.10018562838E+04  0.79676148738E+02 0.  0.
        254    2    1    2    0    0 -0.14196805884E+03 -0.88094901618E+03  0.12968025150E+04  0.18156639124E+04  0.90482737627E+03 0.  0.
         23    2    4    4    0    0  0.28234020973E+02 -0.52845999834E+03  0.91056818108E+02  0.54472245915E+03  0.91455363948E+02 0.  0.
         23    2    4    4    0    0 -0.17020207981E+03 -0.35248901784E+03  0.12057456969E+04  0.12709414532E+04  0.90841819556E+02 0.  0.
          4    1    3    3  502    0  0.75017665551E+02  0.46863420677E+03 -0.19396869084E+03  0.51270802892E+03  0.00000000000E+00 0. -1.
         -3    1    3    3    0  502  0.66950393290E+02  0.41231480941E+03 -0.25451946485E+03  0.48914825484E+03  0.00000000000E+00 0.  1.
         11    1    5    5    0    0  0.36042733647E+02 -0.15294719049E+03  0.58679575178E+02  0.16773554862E+03  0.00000000000E+00 0.  1.
        -11    1    5    5    0    0 -0.78087126747E+01 -0.37551280785E+03  0.32377242931E+02  0.37698691054E+03  0.00000000000E+00 0. -1.
          2    1    6    6  503    0 -0.69035776714E+02 -0.22331449009E+03  0.61809431125E+03  0.66081455610E+03  0.00000000000E+00 0. -1.
         -2    1    6    6    0  503 -0.10116630310E+03 -0.12917452775E+03  0.58765138568E+03  0.61012689712E+03  0.00000000000E+00 0.  1.
<mgrwt>
<rscale>  0 0.26867793E+04</rscale>
<asrwt>0</asrwt>
<pdfrwt beam="1">  1        2 0.15147737E+00 0.26867793E+04</pdfrwt>
<pdfrwt beam="2">  1       -1 0.28198727E+00 0.26867793E+04</pdfrwt>
<totfact> 0.11147752E+00</totfact>
</mgrwt>
</event>
<event>
12    6  0.1553355E-007  0.2444108E+04  0.7818608E-02  0.8423172E-01
          2   -1    0    0  501    0  0.00000000000E+00  0.00000000000E+00  0.23597611220E+04  0.23597611220E+04  0.00000000000E+00 0. -1.
         -1   -1    0    0    0  501 -0.00000000000E+00 -0.00000000000E+00 -0.63286734117E+03  0.63286734117E+03  0.00000000000E+00 0.  1.
         24    2    1    2    0    0  0.24035335313E+03  0.88640110700E+03  0.13792368740E+04  0.16589512897E+04  0.79676660055E+02 0.  0.
        254    2    1    2    0    0 -0.24035335313E+03 -0.88640110700E+03  0.34765690680E+03  0.13336771734E+04  0.90241499393E+03 0.  0.
         23    2    4    4    0    0 -0.43988396968E+03 -0.18271249606E+03 -0.65310640569E+02  0.48947730683E+03  0.91873778259E+02 0.  0.
         23    2    4    4    0    0  0.19953061655E+03 -0.70368861094E+03  0.41296754737E+03  0.84419986661E+03  0.84504979195E+02 0.  0.
          2    1    3    3  502    0  0.12362899339E+03  0.46306910851E+03  0.64800309097E+03  0.80599325876E+03  0.00000000000E+00 0. -1.
         -1    1    3    3    0  502  0.11672435975E+03  0.42333199848E+03  0.73123378306E+03  0.85295803096E+03  0.00000000000E+00 0.  1.
         11    1    5    5    0    0 -0.28815042582E+03 -0.72328712584E+02 -0.30655016603E+02  0.29866677185E+03  0.00000000000E+00 0.  1.
        -11    1    5    5    0    0 -0.15173354386E+03 -0.11038378348E+03 -0.34655623966E+02  0.19081053498E+03  0.00000000000E+00 0. -1.
          3    1    6    6  503    0  0.27481491848E+02 -0.61260246229E+02  0.65647777372E+02  0.93902507081E+02  0.00000000000E+00 0. -1.
         -3    1    6    6    0  503  0.17204912470E+03 -0.64242836471E+03  0.34731977000E+03  0.75029735953E+03  0.00000000000E+00 0.  1.
<mgrwt>
<rscale>  0 0.24441078E+04</rscale>
<asrwt>0</asrwt>
<pdfrwt beam="1">  1        2 0.36304017E+00 0.24441078E+04</pdfrwt>
<pdfrwt beam="2">  1       -1 0.97364208E-01 0.24441078E+04</pdfrwt>
<totfact> 0.43271632E+00</totfact>
</mgrwt>
</event>
<event>
12    6  0.1553355E-007  0.2464693E+04  0.7818608E-02  0.8415673E-01
         -1   -1    0    0    0  501 -0.00000000000E+00  0.00000000000E+00  0.12991492041E+04  0.12991492041E+04  0.00000000000E+00 0.  1.
          2   -1    0    0  501    0  0.00000000000E+00 -0.00000000000E+00 -0.11689787107E+04  0.11689787107E+04  0.00000000000E+00 0. -1.
         24    2    1    2    0    0 -0.10749387066E+03 -0.68069635546E+03 -0.75616994294E+03  0.10261565062E+04  0.79383449004E+02 0.  0.
        254    2    1    2    0    0  0.10749387066E+03  0.68069635546E+03  0.88634043631E+03  0.14419714086E+04  0.90486447255E+03 0.  0.
         23    2    4    4    0    0  0.37492358334E+03  0.52133081886E+03  0.91044957862E+03  0.11170309731E+04  0.80537218132E+02 0.  0.
         23    2    4    4    0    0 -0.26742971268E+03  0.15936553660E+03 -0.24109142308E+02  0.32494043557E+03  0.89938926220E+02 0.  0.
          4    1    3    3  502    0 -0.19723941698E+02 -0.37127942241E+03 -0.39138070275E+03  0.53982987863E+03  0.00000000000E+00 0. -1.
         -3    1    3    3    0  502 -0.87769928963E+02 -0.30941693305E+03 -0.36478924019E+03  0.48632662753E+03  0.00000000000E+00 0.  1.
         11    1    5    5    0    0  0.16870227558E+03  0.29957182355E+03  0.50686429282E+03  0.61246644527E+03  0.00000000000E+00 0. -1.
        -11    1    5    5    0    0  0.20622130776E+03  0.22175899532E+03  0.40358528580E+03  0.50456452778E+03  0.00000000000E+00 0.  1.
          3    1    6    6  503    0 -0.17244866889E+03  0.52611265356E+02 -0.25179437065E+02  0.18204530396E+03  0.00000000000E+00 0. -1.
         -3    1    6    6    0  503 -0.94981043795E+02  0.10675427124E+03  0.10702947574E+01  0.14289513161E+03  0.00000000000E+00 0.  1.
<mgrwt>
<rscale>  0 0.24646929E+04</rscale>
<asrwt>0</asrwt>
<pdfrwt beam="1">  1        2 0.17984288E+00 0.24646929E+04</pdfrwt>
<pdfrwt beam="2">  1       -1 0.19986911E+00 0.24646929E+04</pdfrwt>
<totfact> 0.30401492E+00</totfact>
</mgrwt>
</event>
<event>
12    6  0.1553355E-007  0.1189784E+04  0.7818608E-02  0.9121846E-01
          2   -1    0    0  501    0  0.00000000000E+00  0.00000000000E+00  0.41715157741E+03  0.41715157741E+03  0.00000000000E+00 0. -1.
         -1   -1    0    0    0  501 -0.00000000000E+00 -0.00000000000E+00 -0.84836428478E+03  0.84836428478E+03  0.00000000000E+00 0.  1.
         24    2    1    2    0    0 -0.13596084725E+03 -0.18950268898E+03 -0.12244130339E+03  0.27529830416E+03  0.80004139772E+02 0.  0.
        254    2    1    2    0    0  0.13596084725E+03  0.18950268898E+03 -0.30877140398E+03  0.99021755803E+03  0.91147924342E+03 0.  0.
         23    2    4    4    0    0 -0.27506904726E+03 -0.12065021713E+02  0.15737925393E+03  0.33030526964E+03  0.92329822232E+02 0.  0.
         23    2    4    4    0    0  0.41102989452E+03  0.20156771070E+03 -0.46615065791E+03  0.65991228838E+03  0.92804505851E+02 0.  0.
          2    1    3    3  502    0 -0.20272680100E+02 -0.10899028028E+02  0.95168733332E+01  0.24906650686E+02  0.00000000000E+00 0. -1.
         -1    1    3    3    0  502 -0.11568816715E+03 -0.17860366096E+03 -0.13195817672E+03  0.25039165347E+03  0.00000000000E+00 0.  1.
         11    1    5    5    0    0 -0.19091921383E+03 -0.15345761362E+02  0.15443466050E+03  0.24604004342E+03  0.00000000000E+00 0. -1.
        -11    1    5    5    0    0 -0.84149833439E+02  0.32807396490E+01  0.29445934277E+01  0.84265226226E+02  0.00000000000E+00 0.  1.
          1    1    6    6  503    0  0.39637077725E+03  0.18568565617E+03 -0.46449543627E+03  0.63823582341E+03  0.00000000000E+00 0. -1.
         -1    1    6    6    0  503  0.14659117268E+02  0.15882054531E+02 -0.16552216394E+01  0.21676464976E+02  0.00000000000E+00 0.  1.
<mgrwt>
<rscale>  0 0.11897840E+04</rscale>
<asrwt>0</asrwt>
<pdfrwt beam="1">  1        2 0.64177166E-01 0.11897840E+04</pdfrwt>
<pdfrwt beam="2">  1       -1 0.13051758E+00 0.11897840E+04</pdfrwt>
<totfact> 0.43029047E+01</totfact>
</mgrwt>
</event>
<event>
12    6  0.1926715E-007  0.1809289E+04  0.7818608E-02  0.8701375E-01
          2   -1    0    0  501    0  0.00000000000E+00  0.00000000000E+00  0.17104698337E+04  0.17104698337E+04  0.00000000000E+00 0. -1.
         -1   -1    0    0    0  501 -0.00000000000E+00 -0.00000000000E+00 -0.47845413190E+03  0.47845413190E+03  0.00000000000E+00 0.  1.
         24    2    1    2    0    0 -0.23047922888E+03  0.17649605148E+03  0.12091766935E+04  0.12461667802E+04  0.80943417842E+02 0.  0.
        254    2    1    2    0    0  0.23047922888E+03 -0.17649605148E+03  0.22839008389E+02  0.94275718547E+03  0.89665933293E+03 0.  0.
         23    2    4    4    0    0 -0.32913105771E+02  0.19513995853E+03 -0.30457051333E+03  0.37466580316E+03  0.91915126736E+02 0.  0.
         23    2    4    4    0    0  0.26339233466E+03 -0.37163601001E+03  0.32740952172E+03  0.56809138231E+03  0.89677075436E+02 0.  0.
          2    1    3    3  502    0 -0.22448131929E+03  0.16661795830E+03  0.11976478797E+04  0.12298430186E+04  0.00000000000E+00 0. -1.
         -1    1    3    3    0  502 -0.59979095901E+01  0.98780931765E+01  0.11528813753E+02  0.16323761540E+02  0.00000000000E+00 0.  1.
         11    1    5    5    0    0 -0.47647932350E+02  0.48911962526E+02 -0.12673462926E+03  0.14395961861E+03  0.00000000000E+00 0.  1.
        -11    1    5    5    0    0  0.14734826579E+02  0.14622799601E+03 -0.17783588407E+03  0.23070618455E+03  0.00000000000E+00 0. -1.
          1    1    6    6  503    0  0.99223169473E+02 -0.20904693494E+03  0.13885426176E+03  0.26986360328E+03  0.00000000000E+00 0. -1.
         -1    1    6    6    0  503  0.16416916518E+03 -0.16258907507E+03  0.18855525996E+03  0.29822777903E+03  0.00000000000E+00 0.  1.
<mgrwt>
<rscale>  0 0.18092887E+04</rscale>
<asrwt>0</asrwt>
<pdfrwt beam="1">  1        2 0.26314920E+00 0.18092887E+04</pdfrwt>
<pdfrwt beam="2">  1       -1 0.73608329E-01 0.18092887E+04</pdfrwt>
<totfact> 0.19331364E+01</totfact>
</mgrwt>
</event>
<event>
12    6  0.1553355E-007  0.3207398E+04  0.7818608E-02  0.8186866E-01
         -1   -1    0    0    0  501 -0.00000000000E+00  0.00000000000E+00  0.11827194492E+04  0.11827194492E+04  0.00000000000E+00 0.  1.
          2   -1    0    0  501    0  0.00000000000E+00 -0.00000000000E+00 -0.21745227132E+04  0.21745227132E+04  0.00000000000E+00 0. -1.
         24    2    1    2    0    0  0.46003156553E+03 -0.10850286218E+03  0.10089344405E+04  0.11170687452E+04  0.80572724445E+02 0.  0.
        254    2    1    2    0    0 -0.46003156553E+03  0.10850286218E+03 -0.20007377044E+04  0.22401734172E+04  0.88995711406E+03 0.  0.
         23    2    4    4    0    0  0.45358790667E+02  0.12680892205E+02 -0.15407556759E+04  0.15441638915E+04  0.91081535377E+02 0.  0.
         23    2    4    4    0    0 -0.50539035620E+03  0.95821969977E+02 -0.45998202854E+03  0.69600952572E+03  0.90799401118E+02 0.  0.
          4    1    3    3  502    0  0.41837329655E+03 -0.10328153876E+03  0.85427365797E+03  0.95681073062E+03  0.00000000000E+00 0. -1.
         -3    1    3    3    0  502  0.41658268985E+02 -0.52213234227E+01  0.15466078249E+03  0.16025801456E+03  0.00000000000E+00 0.  1.
         11    1    5    5    0    0  0.51759350445E+01 -0.26751492628E+02 -0.10218210196E+04  0.10221842440E+04  0.00000000000E+00 0. -1.
        -11    1    5    5    0    0  0.40182855622E+02  0.39432384833E+02 -0.51893465627E+03  0.52197964743E+03  0.00000000000E+00 0.  1.
          2    1    6    6  503    0 -0.29919163244E+03  0.91145279782E+02 -0.23819512759E+03  0.39314121350E+03  0.00000000000E+00 0. -1.
         -2    1    6    6    0  503 -0.20619872376E+03  0.46766901947E+01 -0.22178690095E+03  0.30286831222E+03  0.00000000000E+00 0.  1.
<mgrwt>
<rscale>  0 0.32073979E+04</rscale>
<asrwt>0</asrwt>
<pdfrwt beam="1">  1        2 0.33454195E+00 0.32073979E+04</pdfrwt>
<pdfrwt beam="2">  1       -1 0.18195684E+00 0.32073979E+04</pdfrwt>
<totfact> 0.10289938E+00</totfact>
</mgrwt>
</event>
<event>
12    6  0.1553355E-007  0.1698690E+04  0.7818608E-02  0.8762112E-01
         -1   -1    0    0    0  501 -0.00000000000E+00  0.00000000000E+00  0.64720262665E+03  0.64720262665E+03  0.00000000000E+00 0.  1.
          2   -1    0    0  501    0  0.00000000000E+00 -0.00000000000E+00 -0.11146231657E+04  0.11146231657E+04  0.00000000000E+00 0. -1.
         24    2    1    2    0    0 -0.50909909492E+03 -0.34945113015E+03 -0.15416988801E+03  0.64173798570E+03  0.82227167702E+02 0.  0.
        254    2    1    2    0    0  0.50909909492E+03  0.34945113015E+03 -0.31325065107E+03  0.11200878067E+04  0.88043894932E+03 0.  0.
         23    2    4    4    0    0  0.32453453779E+03  0.63732802877E+03 -0.19682132973E+03  0.74714329470E+03  0.89301648998E+02 0.  0.
         23    2    4    4    0    0  0.18456455713E+03 -0.28787689862E+03 -0.11642932134E+03  0.37294451199E+03  0.92707268568E+02 0.  0.
          4    1    3    3  502    0 -0.48167533826E+03 -0.34860812102E+03 -0.15435837365E+03  0.61430062758E+03  0.00000000000E+00 0. -1.
         -3    1    3    3    0  502 -0.27423756656E+02 -0.84300913161E+00  0.18848564537E+00  0.27437358116E+02  0.00000000000E+00 0.  1.
         11    1    5    5    0    0  0.32129795645E+03  0.60700079542E+03 -0.17247244638E+03  0.70811657743E+03  0.00000000000E+00 0.  1.
        -11    1    5    5    0    0  0.32365813376E+01  0.30327233342E+02 -0.24348883352E+02  0.39026717277E+02  0.00000000000E+00 0. -1.
          4    1    6    6  503    0  0.61934475088E+01 -0.79272925689E+02 -0.19557836176E+02  0.81884458203E+02  0.00000000000E+00 0. -1.
         -4    1    6    6    0  503  0.17837110963E+03 -0.20860397293E+03 -0.96871485161E+02  0.29106005378E+03  0.00000000000E+00 0.  1.
<mgrwt>
<rscale>  0 0.16986901E+04</rscale>
<asrwt>0</asrwt>
<pdfrwt beam="1">  1        2 0.17148049E+00 0.16986901E+04</pdfrwt>
<pdfrwt beam="2">  1       -1 0.99569635E-01 0.16986901E+04</pdfrwt>
<totfact> 0.22297463E+01</totfact>
</mgrwt>
</event>
<event>
12    6  0.1553355E-007  0.1511197E+04  0.7818608E-02  0.8877041E-01
         -1   -1    0    0    0  501 -0.00000000000E+00  0.00000000000E+00  0.52329120188E+03  0.52329120188E+03  0.00000000000E+00 0.  1.
          2   -1    0    0  501    0  0.00000000000E+00 -0.00000000000E+00 -0.10910357239E+04  0.10910357239E+04  0.00000000000E+00 0. -1.
         24    2    1    2    0    0  0.64080696948E+02 -0.37976732497E+03 -0.51749435250E+03  0.64847261270E+03  0.66232678618E+02 0.  0.
        254    2    1    2    0    0 -0.64080696948E+02  0.37976732497E+03 -0.50250169559E+02  0.96585431312E+03  0.88431890051E+03 0.  0.
         23    2    4    4    0    0 -0.35388773942E+03  0.43717952136E+02 -0.27536657005E+03  0.45980071524E+03  0.91881218865E+02 0.  0.
         23    2    4    4    0    0  0.28980704247E+03  0.33604937283E+03  0.22511640049E+03  0.50605359789E+03  0.92171293330E+02 0.  0.
          2    1    3    3  502    0  0.57478390010E+02 -0.33077318010E+03 -0.48287995683E+03  0.58812219368E+03  0.00000000000E+00 0. -1.
         -1    1    3    3    0  502  0.66023069382E+01 -0.48994144865E+02 -0.34614395671E+02  0.60350419017E+02  0.00000000000E+00 0.  1.
         11    1    5    5    0    0 -0.40332283843E+02  0.36307088954E+01 -0.75883465131E+02  0.86012647020E+02  0.00000000000E+00 0.  1.
        -11    1    5    5    0    0 -0.31355545558E+03  0.40087243240E+02 -0.19948310492E+03  0.37378806822E+03  0.00000000000E+00 0. -1.
          4    1    6    6  503    0  0.27998280958E+03  0.30152581149E+03  0.18192558132E+03  0.44989454963E+03  0.00000000000E+00 0. -1.
         -4    1    6    6    0  503  0.98242328982E+01  0.34523561346E+02  0.43190819170E+02  0.56159048252E+02  0.00000000000E+00 0.  1.
<mgrwt>
<rscale>  0 0.15111974E+04</rscale>
<asrwt>0</asrwt>
<pdfrwt beam="1">  1        2 0.16785165E+00 0.15111974E+04</pdfrwt>
<pdfrwt beam="2">  1       -1 0.80506340E-01 0.15111974E+04</pdfrwt>
<totfact> 0.37401266E+01</totfact>
</mgrwt>
</event>
<event>
12    6  0.1553355E-007  0.2042078E+04  0.7818608E-02  0.8587197E-01
         -1   -1    0    0    0  501 -0.00000000000E+00  0.00000000000E+00  0.64606558448E+03  0.64606558448E+03  0.00000000000E+00 0.  1.
          2   -1    0    0  501    0  0.00000000000E+00 -0.00000000000E+00 -0.16136449484E+04  0.16136449484E+04  0.00000000000E+00 0. -1.
         24    2    1    2    0    0 -0.71077207121E+03  0.23165254448E+02 -0.84113586960E+03  0.11043280643E+04  0.79355882991E+02 0.  0.
        254    2    1    2    0    0  0.71077207121E+03 -0.23165254448E+02 -0.12644349437E+03  0.11553824687E+04  0.90176888692E+03 0.  0.
         23    2    4    4    0    0  0.35311666051E+03 -0.21203192553E+03  0.33263118906E+03  0.53645723868E+03  0.86567589956E+02 0.  0.
         23    2    4    4    0    0  0.35765541070E+03  0.18886667108E+03 -0.45907468343E+03  0.61892522998E+03  0.93439087631E+02 0.  0.
          4    1    3    3  502    0 -0.14196616213E+03  0.36246157249E+02 -0.17925697158E+03  0.23151940947E+03  0.00000000000E+00 0. -1.
         -3    1    3    3    0  502 -0.56880590908E+03 -0.13080902801E+02 -0.66187889802E+03  0.87280865479E+03  0.00000000000E+00 0.  1.
         11    1    5    5    0    0  0.20855686261E+03 -0.11800083063E+03  0.13841880956E+03  0.27673078580E+03  0.00000000000E+00 0. -1.
        -11    1    5    5    0    0  0.14455979790E+03 -0.94031094897E+02  0.19421237950E+03  0.25972645288E+03  0.00000000000E+00 0.  1.
          1    1    6    6  503    0  0.42660647046E+02  0.62511222109E+02 -0.80430659516E+02  0.11043855616E+03  0.00000000000E+00 0. -1.
         -1    1    6    6    0  503  0.31499476365E+03  0.12635544897E+03 -0.37864402392E+03  0.50848667383E+03  0.00000000000E+00 0.  1.
<mgrwt>
<rscale>  0 0.20420778E+04</rscale>
<asrwt>0</asrwt>
<pdfrwt beam="1">  1        2 0.24825307E+00 0.20420778E+04</pdfrwt>
<pdfrwt beam="2">  1       -1 0.99394706E-01 0.20420778E+04</pdfrwt>
<totfact> 0.11168894E+01</totfact>
</mgrwt>
</event>
<event>
12    6  0.1553355E-007  0.1934340E+04  0.7818608E-02  0.8637949E-01
          2   -1    0    0  501    0  0.00000000000E+00  0.00000000000E+00  0.69445609051E+03  0.69445609051E+03  0.00000000000E+00 0. -1.
         -1   -1    0    0    0  501 -0.00000000000E+00 -0.00000000000E+00 -0.13469790328E+04  0.13469790328E+04  0.00000000000E+00 0.  1.
         24    2    1    2    0    0 -0.34010416407E+03  0.39739874829E+03  0.29698846016E+03  0.60681939762E+03  0.80193692375E+02 0.  0.
        254    2    1    2    0    0  0.34010416407E+03 -0.39739874829E+03 -0.94951140245E+03  0.14346157257E+04  0.93965619746E+03 0.  0.
         23    2    4    4    0    0  0.95119537614E+01  0.25237196889E+03 -0.49342710220E+02  0.27315228651E+03  0.91626309691E+02 0.  0.
         23    2    4    4    0    0  0.33059221031E+03 -0.64977071718E+03 -0.90016869223E+03  0.11614634392E+04  0.84855474979E+02 0.  0.
          4    1    3    3  502    0 -0.10933928726E+03  0.99197601867E+02  0.12016526196E+03  0.19035475864E+03  0.00000000000E+00 0. -1.
         -3    1    3    3    0  502 -0.23076487682E+03  0.29820114642E+03  0.17682319819E+03  0.41646463898E+03  0.00000000000E+00 0.  1.
         11    1    5    5    0    0  0.23869975047E+02  0.30991587930E+02 -0.32162263456E+02  0.50642525824E+02  0.00000000000E+00 0. -1.
        -11    1    5    5    0    0 -0.14358021286E+02  0.22138038096E+03 -0.17180446764E+02  0.22250976069E+03  0.00000000000E+00 0.  1.
          1    1    6    6  503    0  0.68606653355E+02 -0.21771181928E+03 -0.26236934518E+03  0.34776857597E+03  0.00000000000E+00 0. -1.
         -1    1    6    6    0  503  0.26198555696E+03 -0.43205889790E+03 -0.63779934705E+03  0.81369486320E+03  0.00000000000E+00 0.  1.
<mgrwt>
<rscale>  0 0.19343400E+04</rscale>
<asrwt>0</asrwt>
<pdfrwt beam="1">  1        2 0.10683940E+00 0.19343400E+04</pdfrwt>
<pdfrwt beam="2">  1       -1 0.20722754E+00 0.19343400E+04</pdfrwt>
<totfact> 0.59246864E+00</totfact>
</mgrwt>
</event>
<event>
12    6  0.1553355E-007  0.2009648E+04  0.7818608E-02  0.8602123E-01
         -1   -1    0    0    0  501 -0.00000000000E+00  0.00000000000E+00  0.59115056544E+03  0.59115056544E+03  0.00000000000E+00 0.  1.
          2   -1    0    0  501    0  0.00000000000E+00 -0.00000000000E+00 -0.17079758421E+04  0.17079758421E+04  0.00000000000E+00 0. -1.
         24    2    1    2    0    0 -0.53665078546E+03  0.31637324238E+03 -0.10406247620E+04  0.12148775763E+04  0.70296059977E+02 0.  0.
        254    2    1    2    0    0  0.53665078546E+03 -0.31637324238E+03 -0.76200514709E+02  0.10842488313E+04  0.88413964717E+03 0.  0.
         23    2    4    4    0    0 -0.12083685677E+03  0.19170269336E+03 -0.46946686208E+02  0.24791226668E+03  0.88910247026E+02 0.  0.
         23    2    4    4    0    0  0.65748764223E+03 -0.50807593574E+03 -0.29253828501E+02  0.83633656462E+03  0.90398598869E+02 0.  0.
          2    1    3    3  502    0 -0.45189948981E+03  0.27403567857E+03 -0.92567552416E+03  0.10659192643E+04  0.00000000000E+00 0. -1.
         -1    1    3    3    0  502 -0.84751295646E+02  0.42337563805E+02 -0.11494923782E+03  0.14895831195E+03  0.00000000000E+00 0.  1.
         11    1    5    5    0    0  0.75718555764E+01  0.34506072970E+02 -0.25987907074E+02  0.43856280995E+02  0.00000000000E+00 0.  1.
        -11    1    5    5    0    0 -0.12840871235E+03  0.15719662039E+03 -0.20958779135E+02  0.20405598568E+03  0.00000000000E+00 0. -1.
          2    1    6    6  503    0  0.40228118481E+03 -0.34562662019E+03 -0.52293199305E+02  0.53293760510E+03  0.00000000000E+00 0. -1.
         -2    1    6    6    0  503  0.25520645742E+03 -0.16244931555E+03  0.23039370804E+02  0.30339895952E+03  0.00000000000E+00 0.  1.
<mgrwt>
<rscale>  0 0.20096476E+04</rscale>
<asrwt>0</asrwt>
<pdfrwt beam="1">  1        2 0.26276552E+00 0.20096476E+04</pdfrwt>
<pdfrwt beam="2">  1       -1 0.90946240E-01 0.20096476E+04</pdfrwt>
<totfact> 0.12113485E+01</totfact>
</mgrwt>
</event>
<event>
12    6  0.1823288E-007  0.1905049E+04  0.7818608E-02  0.8652347E-01
          2   -1    0    0  501    0  0.00000000000E+00  0.00000000000E+00  0.98056060905E+03  0.98056060905E+03  0.00000000000E+00 0. -1.
         -1   -1    0    0    0  501 -0.00000000000E+00 -0.00000000000E+00 -0.92529035418E+03  0.92529035418E+03  0.00000000000E+00 0.  1.
         24    2    1    2    0    0 -0.65207818426E+02 -0.15145239617E+03 -0.69539616914E+03  0.71899307321E+03  0.78646801414E+02 0.  0.
        254    2    1    2    0    0  0.65207818426E+02  0.15145239617E+03  0.75066642401E+03  0.11868578900E+04  0.90440128433E+03 0.  0.
         23    2    4    4    0    0  0.23826146120E+03 -0.14234042428E+03  0.77998332206E+03  0.83303746643E+03  0.92456030115E+02 0.  0.
         23    2    4    4    0    0 -0.17305364278E+03  0.29379282044E+03 -0.29316898051E+02  0.35382042360E+03  0.89819970047E+02 0.  0.
          4    1    3    3  502    0 -0.54892819994E+01 -0.43820425275E+01 -0.15121343472E+01  0.71847800152E+01  0.00000000000E+00 0. -1.
         -3    1    3    3    0  502 -0.59718536426E+02 -0.14707035364E+03 -0.69388403480E+03  0.71180829319E+03  0.00000000000E+00 0.  1.
         11    1    5    5    0    0  0.30803090105E+02 -0.70116444461E+00  0.33941263541E+02  0.45840281002E+02  0.00000000000E+00 0. -1.
        -11    1    5    5    0    0  0.20745837110E+03 -0.14163925983E+03  0.74604205852E+03  0.78719718543E+03  0.00000000000E+00 0.  1.
          2    1    6    6  503    0 -0.17784680635E+03  0.29438785043E+03 -0.21472269742E+02  0.34460811276E+03  0.00000000000E+00 0.  1.
         -2    1    6    6    0  503  0.47931635696E+01 -0.59502998820E+00 -0.78446283089E+01  0.92123108391E+01  0.00000000000E+00 0. -1.
<mgrwt>
<rscale>  0 0.19050494E+04</rscale>
<asrwt>0</asrwt>
<pdfrwt beam="1">  1        2 0.15085548E+00 0.19050494E+04</pdfrwt>
<pdfrwt beam="2">  1       -1 0.14235236E+00 0.19050494E+04</pdfrwt>
<totfact> 0.11110862E+01</totfact>
</mgrwt>
</event>
<event>
12    6  0.1553355E-007  0.1490454E+04  0.7818608E-02  0.8890826E-01
          2   -1    0    0  501    0  0.00000000000E+00  0.00000000000E+00  0.16141420150E+04  0.16141420150E+04  0.00000000000E+00 0. -1.
         -1   -1    0    0    0  501 -0.00000000000E+00 -0.00000000000E+00 -0.34406081118E+03  0.34406081118E+03  0.00000000000E+00 0.  1.
         24    2    1    2    0    0  0.36597316519E+02  0.26014593226E+03 -0.10327367308E+03  0.29360585436E+03  0.80769279522E+02 0.  0.
        254    2    1    2    0    0 -0.36597316519E+02 -0.26014593226E+03  0.13733548769E+04  0.16645969718E+04  0.90319665136E+03 0.  0.
         23    2    4    4    0    0  0.20544701096E+03  0.26804575639E+03  0.45767133973E+03  0.57626917659E+03  0.92553264917E+02 0.  0.
         23    2    4    4    0    0 -0.24204432748E+03 -0.52819168865E+03  0.91568353715E+03  0.10883277952E+04  0.91701325970E+02 0.  0.
          2    1    3    3  502    0  0.58267243692E+01  0.52299390131E+02  0.11965753300E+02  0.53966250352E+02  0.00000000000E+00 0. -1.
         -1    1    3    3    0  502  0.30770592149E+02  0.20784654213E+03 -0.11523942638E+03  0.23963960401E+03  0.00000000000E+00 0.  1.
         11    1    5    5    0    0  0.11899674753E+03  0.22283269652E+03  0.32965759053E+03  0.41531766584E+03  0.00000000000E+00 0.  1.
        -11    1    5    5    0    0  0.86450263432E+02  0.45213059871E+02  0.12801374920E+03  0.16095151076E+03  0.00000000000E+00 0. -1.
          4    1    6    6  503    0 -0.34077199764E+02 -0.10558429007E+03  0.24310598981E+03  0.26722615915E+03  0.00000000000E+00 0. -1.
         -4    1    6    6    0  503 -0.20796712772E+03 -0.42260739858E+03  0.67257754734E+03  0.82110163605E+03  0.00000000000E+00 0.  1.
<mgrwt>
<rscale>  0 0.14904536E+04</rscale>
<asrwt>0</asrwt>
<pdfrwt beam="1">  1        2 0.24832954E+00 0.14904536E+04</pdfrwt>
<pdfrwt beam="2">  1       -1 0.52932433E-01 0.14904536E+04</pdfrwt>
<totfact> 0.43404141E+01</totfact>
</mgrwt>
</event>
<event>
12    6  0.1553355E-007  0.1318171E+04  0.7818608E-02  0.9015278E-01
         -1   -1    0    0    0  501 -0.00000000000E+00  0.00000000000E+00  0.43528740824E+03  0.43528740824E+03  0.00000000000E+00 0.  1.
          2   -1    0    0  501    0  0.00000000000E+00 -0.00000000000E+00 -0.99794758729E+03  0.99794758729E+03  0.00000000000E+00 0. -1.
         24    2    1    2    0    0  0.25474135963E+03 -0.23389865169E+03 -0.87711387922E+02  0.36616575288E+03  0.82354911460E+02 0.  0.
        254    2    1    2    0    0 -0.25474135963E+03  0.23389865169E+03 -0.47494879113E+03  0.10670692427E+04  0.89076297344E+03 0.  0.
         23    2    4    4    0    0 -0.10057690820E+03 -0.31578584857E+03 -0.44424157711E+02  0.34688533903E+03  0.92301224404E+02 0.  0.
         23    2    4    4    0    0 -0.15416445143E+03  0.54968450026E+03 -0.43052463342E+03  0.72018390363E+03  0.85986435845E+02 0.  0.
          2    1    3    3  502    0  0.19728195155E+03 -0.21014030908E+03 -0.95176072637E+02  0.30354176436E+03  0.00000000000E+00 0. -1.
         -1    1    3    3    0  502  0.57459408075E+02 -0.23758342612E+02  0.74646847153E+01  0.62623988518E+02  0.00000000000E+00 0.  1.
         11    1    5    5    0    0 -0.90724870300E+02 -0.13503135338E+03 -0.13477527138E+02  0.16323636919E+03  0.00000000000E+00 0. -1.
        -11    1    5    5    0    0 -0.98520378955E+01 -0.18075449518E+03 -0.30946630573E+02  0.18364896984E+03  0.00000000000E+00 0.  1.
          2    1    6    6  503    0 -0.64523462443E+02  0.37773995216E+03 -0.27656641217E+03  0.47258832931E+03  0.00000000000E+00 0.  1.
         -2    1    6    6    0  503 -0.89640988990E+02  0.17194454810E+03 -0.15395822125E+03  0.24759557431E+03  0.00000000000E+00 0. -1.
<mgrwt>
<rscale>  0 0.13181715E+04</rscale>
<asrwt>0</asrwt>
<pdfrwt beam="1">  1        2 0.15353040E+00 0.13181715E+04</pdfrwt>
<pdfrwt beam="2">  1       -1 0.66967294E-01 0.13181715E+04</pdfrwt>
<totfact> 0.63748632E+01</totfact>
</mgrwt>
</event>
<event>
12    6  0.1553355E-007  0.1325949E+04  0.7818608E-02  0.9009237E-01
          2   -1    0    0  501    0  0.00000000000E+00  0.00000000000E+00  0.19302953579E+04  0.19302953579E+04  0.00000000000E+00 0. -1.
         -1   -1    0    0    0  501 -0.00000000000E+00 -0.00000000000E+00 -0.22770351200E+03  0.22770351200E+03  0.00000000000E+00 0.  1.
         24    2    1    2    0    0 -0.89550456197E+02  0.82958883552E+02  0.97886699778E+03  0.98967787777E+03  0.79876416025E+02 0.  0.
        254    2    1    2    0    0  0.89550456197E+02 -0.82958883552E+02  0.72372484810E+03  0.11683209921E+04  0.90900760409E+03 0.  0.
         23    2    4    4    0    0 -0.11665377833E+03 -0.30312971550E+02  0.87909915659E+03  0.89170159228E+03  0.88257703920E+02 0.  0.
         23    2    4    4    0    0  0.20620423453E+03 -0.52645912002E+02 -0.15537430850E+03  0.27661939984E+03  0.84174451214E+02 0.  0.
          2    1    3    3  502    0 -0.40056538712E+02  0.80709490851E+02  0.48221602724E+03  0.49056176485E+03  0.00000000000E+00 0. -1.
         -1    1    3    3    0  502 -0.49493917485E+02  0.22493927015E+01  0.49665097054E+03  0.49911611292E+03  0.00000000000E+00 0.  1.
         11    1    5    5    0    0 -0.12882238463E+03 -0.25167720039E+02  0.70592384652E+03  0.71802304837E+03  0.00000000000E+00 0. -1.
        -11    1    5    5    0    0  0.12168606297E+02 -0.51452515112E+01  0.17317531008E+03  0.17367854390E+03  0.00000000000E+00 0.  1.
          3    1    6    6  503    0  0.11251112063E+03 -0.46459860506E+02 -0.40575280358E+02  0.12831065537E+03  0.00000000000E+00 0. -1.
         -3    1    6    6    0  503  0.93693113892E+02 -0.61860514960E+01 -0.11479902814E+03  0.14830874447E+03  0.00000000000E+00 0.  1.
<mgrwt>
<rscale>  0 0.13259488E+04</rscale>
<asrwt>0</asrwt>
<pdfrwt beam="1">  1        2 0.29696851E+00 0.13259488E+04</pdfrwt>
<pdfrwt beam="2">  1       -1 0.35031311E-01 0.13259488E+04</pdfrwt>
<totfact> 0.63110751E+01</totfact>
</mgrwt>
</event>
<event>
12    6  0.1553355E-007  0.2513659E+04  0.7818608E-02  0.8398136E-01
          4   -1    0    0  501    0  0.00000000000E+00  0.00000000000E+00  0.73581355215E+03  0.73581355215E+03  0.00000000000E+00 0. -1.
         -3   -1    0    0    0  501 -0.00000000000E+00 -0.00000000000E+00 -0.21467668635E+04  0.21467668635E+04  0.00000000000E+00 0.  1.
         24    2    1    2    0    0  0.82898149613E+03 -0.64731768191E+03 -0.95590023192E+03  0.14235110069E+04  0.80048929627E+02 0.  0.
        254    2    1    2    0    0 -0.82898149613E+03  0.64731768191E+03 -0.45505307941E+03  0.14590694087E+04  0.90309453116E+03 0.  0.
         23    2    4    4    0    0 -0.63365212733E+03 -0.10297844914E+02 -0.20995773523E+02  0.64218121871E+03  0.10166037120E+03 0.  0.
         23    2    4    4    0    0 -0.19532936879E+03  0.65761552683E+03 -0.43405730589E+03  0.81688819003E+03  0.91042994128E+02 0.  0.
          4    1    3    3  502    0  0.38446668105E+03 -0.26976913969E+03 -0.46943398003E+03  0.66404689531E+03  0.00000000000E+00 0. -1.
         -3    1    3    3    0  502  0.44451481508E+03 -0.37754854222E+03 -0.48646625189E+03  0.75946411159E+03  0.00000000000E+00 0.  1.
         11    1    5    5    0    0 -0.24319125690E+03 -0.11245680066E+02 -0.57087002366E+02  0.25005475119E+03  0.00000000000E+00 0.  1.
        -11    1    5    5    0    0 -0.39046087043E+03  0.94783515164E+00  0.36091228844E+02  0.39212646752E+03  0.00000000000E+00 0. -1.
          4    1    6    6  503    0 -0.15558671919E+03  0.48072650547E+03 -0.36304107539E+03  0.62217684195E+03  0.00000000000E+00 0. -1.
         -4    1    6    6    0  503 -0.39742649600E+02  0.17688902136E+03 -0.71016230506E+02  0.19471134808E+03  0.00000000000E+00 0.  1.
<mgrwt>
<rscale>  0 0.25136588E+04</rscale>
<asrwt>0</asrwt>
<pdfrwt beam="1">  1        4 0.11320209E+00 0.25136588E+04</pdfrwt>
<pdfrwt beam="2">  1       -3 0.33027182E+00 0.25136588E+04</pdfrwt>
<totfact> 0.32049902E-02</totfact>
</mgrwt>
</event>
<event>
12    6  0.1553355E-007  0.1485691E+04  0.7818608E-02  0.8894024E-01
         -1   -1    0    0    0  501 -0.00000000000E+00  0.00000000000E+00  0.10921289404E+04  0.10921289404E+04  0.00000000000E+00 0.  1.
          2   -1    0    0  501    0  0.00000000000E+00 -0.00000000000E+00 -0.50526977261E+03  0.50526977261E+03  0.00000000000E+00 0. -1.
         24    2    1    2    0    0 -0.25912570604E+03  0.24921579483E+03  0.50779171046E+03  0.62737541769E+03  0.80578220348E+02 0.  0.
        254    2    1    2    0    0  0.25912570604E+03 -0.24921579483E+03  0.79067457362E+02  0.97002329534E+03  0.89746247095E+03 0.  0.
         23    2    4    4    0    0  0.28788442498E+03 -0.52886489957E+03 -0.11095108690E+03  0.61902839888E+03  0.91161893314E+02 0.  0.
         23    2    4    4    0    0 -0.28758718936E+02  0.27964910474E+03  0.19001854427E+03  0.35099489646E+03  0.89775745478E+02 0.  0.
          2    1    3    3  502    0 -0.10180162737E+03  0.57843598648E+02  0.20572486275E+03  0.23671115815E+03  0.00000000000E+00 0. -1.
         -1    1    3    3    0  502 -0.15732407868E+03  0.19137219618E+03  0.30206684771E+03  0.39066425954E+03  0.00000000000E+00 0.  1.
         11    1    5    5    0    0  0.70801671330E+02 -0.11841955303E+03 -0.64777719752E+02  0.15242119334E+03  0.00000000000E+00 0. -1.
        -11    1    5    5    0    0  0.21708275365E+03 -0.41044534654E+03 -0.46173367151E+02  0.46660720554E+03  0.00000000000E+00 0.  1.
          1    1    6    6  503    0 -0.42171939525E+02  0.25386070612E+03  0.19314545854E+03  0.32175906941E+03  0.00000000000E+00 0. -1.
         -1    1    6    6    0  503  0.13413220589E+02  0.25788398621E+02 -0.31269142745E+01  0.29235827043E+02  0.00000000000E+00 0.  1.
<mgrwt>
<rscale>  0 0.14856914E+04</rscale>
<asrwt>0</asrwt>
<pdfrwt beam="1">  1        2 0.77733812E-01 0.14856914E+04</pdfrwt>
<pdfrwt beam="2">  1       -1 0.16801984E+00 0.14856914E+04</pdfrwt>
<totfact> 0.17117242E+01</totfact>
</mgrwt>
</event>
<event>
12    6  0.1553355E-007  0.1383289E+04  0.7818608E-02  0.8966005E-01
         -1   -1    0    0    0  501 -0.00000000000E+00  0.00000000000E+00  0.57145688183E+03  0.57145688183E+03  0.00000000000E+00 0.  1.
          2   -1    0    0  501    0  0.00000000000E+00 -0.00000000000E+00 -0.83710934430E+03  0.83710934430E+03  0.00000000000E+00 0. -1.
         24    2    1    2    0    0 -0.38131681331E+02  0.39272200512E+02  0.32008798308E+03  0.33422734081E+03  0.79090249566E+02 0.  0.
        254    2    1    2    0    0  0.38131681331E+02 -0.39272200512E+02 -0.58574044555E+03  0.10743388853E+04  0.89895263508E+03 0.  0.
         23    2    4    4    0    0  0.41733458413E+03  0.62466700164E+02 -0.10224892557E+03  0.44479630089E+03  0.96533221057E+02 0.  0.
         23    2    4    4    0    0 -0.37920290279E+03 -0.10173890068E+03 -0.48349151998E+03  0.62954258444E+03  0.91728786807E+02 0.  0.
          2    1    3    3  502    0 -0.66836825789E+01 -0.22492645824E+02  0.47692115284E+02  0.53151938716E+02  0.00000000000E+00 0. -1.
         -1    1    3    3    0  502 -0.31447998752E+02  0.61764846336E+02  0.27239586780E+03  0.28107540209E+03  0.00000000000E+00 0.  1.
         11    1    5    5    0    0  0.28820948010E+03  0.65240743132E+02 -0.30554793494E+02  0.29707684930E+03  0.00000000000E+00 0. -1.
        -11    1    5    5    0    0  0.12912510403E+03 -0.27740429683E+01 -0.71694132075E+02  0.14771945159E+03  0.00000000000E+00 0.  1.
          4    1    6    6  503    0 -0.26314542182E+03 -0.56069610833E+02 -0.38940883173E+03  0.47331654578E+03  0.00000000000E+00 0. -1.
         -4    1    6    6    0  503 -0.11605748098E+03 -0.45669289843E+02 -0.94082688250E+02  0.15622603865E+03  0.00000000000E+00 0.  1.
<mgrwt>
<rscale>  0 0.13832887E+04</rscale>
<asrwt>0</asrwt>
<pdfrwt beam="1">  1        2 0.12878605E+00 0.13832887E+04</pdfrwt>
<pdfrwt beam="2">  1       -1 0.87916443E-01 0.13832887E+04</pdfrwt>
<totfact> 0.45869384E+01</totfact>
</mgrwt>
</event>
<event>
12    6  0.1553355E-007  0.2211538E+04  0.7818608E-02  0.8513641E-01
         -1   -1    0    0    0  501 -0.00000000000E+00  0.00000000000E+00  0.18923261339E+04  0.18923261339E+04  0.00000000000E+00 0.  1.
          2   -1    0    0  501    0  0.00000000000E+00 -0.00000000000E+00 -0.64614934941E+03  0.64614934941E+03  0.00000000000E+00 0. -1.
         24    2    1    2    0    0  0.21876139688E+03 -0.38095315421E+03  0.14526392928E+04  0.15196185386E+04  0.78087984722E+02 0.  0.
        254    2    1    2    0    0 -0.21876139688E+03  0.38095315421E+03 -0.20646250835E+03  0.10188569447E+04  0.89580179276E+03 0.  0.
         23    2    4    4    0    0 -0.28315221879E+03  0.14710391778E+03 -0.51677382221E+03  0.61465701496E+03  0.94516247733E+02 0.  0.
         23    2    4    4    0    0  0.64390821904E+02  0.23384923643E+03  0.31031131386E+03  0.40419992972E+03  0.90845078882E+02 0.  0.
          4    1    3    3  502    0 -0.16323684481E+01 -0.30343680821E+02  0.13749510560E+03  0.14081302374E+03  0.00000000000E+00 0. -1.
         -3    1    3    3    0  502  0.22039376533E+03 -0.35060947338E+03  0.13151441872E+04  0.13788055149E+04  0.00000000000E+00 0.  1.
         11    1    5    5    0    0 -0.89649925121E+02  0.98290439848E+02 -0.19659245937E+03  0.23737462948E+03  0.00000000000E+00 0.  1.
        -11    1    5    5    0    0 -0.19350229367E+03  0.48813477933E+02 -0.32018136285E+03  0.37728238549E+03  0.00000000000E+00 0. -1.
          1    1    6    6  503    0  0.65044258992E+02  0.22588917925E+03  0.31639465015E+03  0.39416018517E+03  0.00000000000E+00 0. -1.
         -1    1    6    6    0  503 -0.65343708817E+00  0.79600571761E+01 -0.60833362904E+01  0.10039744553E+02  0.00000000000E+00 0.  1.
<mgrwt>
<rscale>  0 0.22115382E+04</rscale>
<asrwt>0</asrwt>
<pdfrwt beam="1">  1        2 0.99407594E-01 0.22115382E+04</pdfrwt>
<pdfrwt beam="2">  1       -1 0.29112709E+00 0.22115382E+04</pdfrwt>
<totfact> 0.17803349E+00</totfact>
</mgrwt>
</event>
<event>
12    6  0.1553355E-007  0.2823787E+04  0.7818608E-02  0.8295921E-01
         -1   -1    0    0    0  501 -0.00000000000E+00  0.00000000000E+00  0.40717903662E+03  0.40717903662E+03  0.00000000000E+00 0.  1.
          2   -1    0    0  501    0  0.00000000000E+00 -0.00000000000E+00 -0.48957403646E+04  0.48957403646E+04  0.00000000000E+00 0. -1.
         24    2    1    2    0    0 -0.62351704496E+02 -0.25233302400E+03  0.31092195869E+03  0.41320989506E+03  0.80686200339E+02 0.  0.
        254    2    1    2    0    0  0.62351704496E+02  0.25233302400E+03 -0.47994832867E+04  0.48897095062E+04  0.89814227461E+03 0.  0.
         23    2    4    4    0    0  0.47051318744E+03  0.13232957918E+03 -0.23612218421E+04  0.24129648715E+04  0.90205911783E+02 0.  0.
         23    2    4    4    0    0 -0.40816148294E+03  0.12000344481E+03 -0.24382614446E+04  0.24767446347E+04  0.90268987710E+02 0.  0.
          4    1    3    3  502    0  0.97759861900E+01 -0.57760621220E+02  0.10858924058E+03  0.12338347717E+03  0.00000000000E+00 0. -1.
         -3    1    3    3    0  502 -0.72127690686E+02 -0.19457240278E+03  0.20233271811E+03  0.28982641789E+03  0.00000000000E+00 0.  1.
         11    1    5    5    0    0  0.31472492771E+03  0.12064500732E+03 -0.14693172461E+04  0.15074813988E+04  0.00000000000E+00 0. -1.
        -11    1    5    5    0    0  0.15578825973E+03  0.11684571865E+02 -0.89190459596E+03  0.90548347273E+03  0.00000000000E+00 0.  1.
          2    1    6    6  503    0 -0.37641351783E+03  0.11265950972E+03 -0.23508121563E+04  0.23834213005E+04  0.00000000000E+00 0. -1.
         -2    1    6    6    0  503 -0.31747965116E+02  0.73439350927E+01 -0.87449288367E+02  0.93323334207E+02  0.00000000000E+00 0.  1.
<mgrwt>
<rscale>  0 0.28237867E+04</rscale>
<asrwt>0</asrwt>
<pdfrwt beam="1">  1        2 0.75319085E+00 0.28237867E+04</pdfrwt>
<pdfrwt beam="2">  1       -1 0.62642927E-01 0.28237867E+04</pdfrwt>
<totfact> 0.11786112E-01</totfact>
</mgrwt>
</event>
<event>
12    6  0.1553355E-007  0.1585937E+04  0.7818608E-02  0.8829234E-01
         -1   -1    0    0    0  501 -0.00000000000E+00  0.00000000000E+00  0.40139901126E+03  0.40139901126E+03  0.00000000000E+00 0.  1.
          2   -1    0    0  501    0  0.00000000000E+00 -0.00000000000E+00 -0.15665185976E+04  0.15665185976E+04  0.00000000000E+00 0. -1.
         24    2    1    2    0    0 -0.43628102548E+03 -0.13694449129E+02 -0.62477533949E+01  0.44462193288E+03  0.84385766789E+02 0.  0.
        254    2    1    2    0    0  0.43628102548E+03  0.13694449129E+02 -0.11588718329E+04  0.15232956759E+04  0.88708349107E+03 0.  0.
         23    2    4    4    0    0  0.20650780263E+03 -0.22953437452E+03 -0.11308804627E+04  0.11757334384E+04  0.90149850526E+02 0.  0.
         23    2    4    4    0    0  0.22977322286E+03  0.24322882365E+03 -0.27991370197E+02  0.34756223758E+03  0.89777489306E+02 0.  0.
          2    1    3    3  502    0 -0.37746430174E+03 -0.18767205050E+02 -0.33868116036E+02  0.37944506368E+03  0.00000000000E+00 0. -1.
         -1    1    3    3    0  502 -0.58816723750E+02  0.50727559216E+01  0.27620362641E+02  0.65176869193E+02  0.00000000000E+00 0.  1.
         11    1    5    5    0    0  0.41638728939E+02 -0.38120787342E+01 -0.16549792752E+03  0.17069821236E+03  0.00000000000E+00 0.  1.
        -11    1    5    5    0    0  0.16486907369E+03 -0.22572229579E+03 -0.96538253518E+03  0.10050352260E+04  0.00000000000E+00 0. -1.
          2    1    6    6  503    0  0.21567920795E+03  0.24749714481E+03 -0.16181681895E+02  0.32868557051E+03  0.00000000000E+00 0. -1.
         -2    1    6    6    0  503  0.14094014908E+02 -0.42683211608E+01 -0.11809688302E+02  0.18876667067E+02  0.00000000000E+00 0.  1.
<mgrwt>
<rscale>  0 0.15859370E+04</rscale>
<asrwt>0</asrwt>
<pdfrwt beam="1">  1        2 0.24100286E+00 0.15859370E+04</pdfrwt>
<pdfrwt beam="2">  1       -1 0.61753695E-01 0.15859370E+04</pdfrwt>
<totfact> 0.33873308E+01</totfact>
</mgrwt>
</event>
<event>
12    6  0.1553355E-007  0.1120065E+04  0.7818608E-02  0.9185853E-01
          2   -1    0    0  501    0  0.00000000000E+00  0.00000000000E+00  0.14633990626E+04  0.14633990626E+04  0.00000000000E+00 0. -1.
         -1   -1    0    0    0  501 -0.00000000000E+00 -0.00000000000E+00 -0.21432033385E+03  0.21432033385E+03  0.00000000000E+00 0.  1.
         24    2    1    2    0    0 -0.24784240052E+01 -0.12302334020E+03  0.42706676593E+03  0.45155796124E+03  0.79860409320E+02 0.  0.
        254    2    1    2    0    0  0.24784240052E+01  0.12302334020E+03  0.82201196283E+03  0.12261614352E+04  0.90145843686E+03 0.  0.
         23    2    4    4    0    0 -0.69194557371E+02 -0.36020681065E+03  0.52025192572E+03  0.64352075080E+03  0.94446054929E+02 0.  0.
         23    2    4    4    0    0  0.71672981376E+02  0.48323015085E+03  0.30176003711E+03  0.58264068443E+03  0.98806134425E+02 0.  0.
          2    1    3    3  502    0  0.19844380628E+02 -0.79549426610E+02  0.35593827744E+03  0.36525876863E+03  0.00000000000E+00 0. -1.
         -1    1    3    3    0  502 -0.22322804633E+02 -0.43473913594E+02  0.71128488497E+02  0.86299192613E+02  0.00000000000E+00 0.  1.
         11    1    5    5    0    0 -0.79261426401E+02 -0.16269534679E+03  0.25132158639E+03  0.30970096766E+03  0.00000000000E+00 0.  1.
        -11    1    5    5    0    0  0.10066869030E+02 -0.19751146386E+03  0.26893033933E+03  0.33381978314E+03  0.00000000000E+00 0. -1.
          2    1    6    6  503    0 -0.37608746135E+01  0.13035005682E+03  0.12572034971E+03  0.18113775924E+03  0.00000000000E+00 0. -1.
         -2    1    6    6    0  503  0.75433855990E+02  0.35288009404E+03  0.17603968740E+03  0.40150292519E+03  0.00000000000E+00 0.  1.
<mgrwt>
<rscale>  0 0.11200646E+04</rscale>
<asrwt>0</asrwt>
<pdfrwt beam="1">  1        2 0.22513831E+00 0.11200646E+04</pdfrwt>
<pdfrwt beam="2">  1       -1 0.32972360E-01 0.11200646E+04</pdfrwt>
<totfact> 0.12979424E+02</totfact>
</mgrwt>
</event>
<event>
12    6  0.1553355E-007  0.2333180E+04  0.7818608E-02  0.8464952E-01
         -1   -1    0    0    0  501 -0.00000000000E+00  0.00000000000E+00  0.59164275141E+03  0.59164275141E+03  0.00000000000E+00 0.  1.
          2   -1    0    0  501    0  0.00000000000E+00 -0.00000000000E+00 -0.23002607703E+04  0.23002607703E+04  0.00000000000E+00 0. -1.
         24    2    1    2    0    0 -0.56640723207E+03  0.79621092676E+03 -0.46334747831E+03  0.10843260029E+04  0.79391450770E+02 0.  0.
        254    2    1    2    0    0  0.56640723207E+03 -0.79621092676E+03 -0.12452705406E+04  0.18075775188E+04  0.87285094654E+03 0.  0.
         23    2    4    4    0    0  0.34399683603E+03  0.69065823906E+02 -0.60295731911E+03  0.70348770270E+03  0.90738679431E+02 0.  0.
         23    2    4    4    0    0  0.22241039604E+03 -0.86527675067E+03 -0.64231322147E+03  0.11040898161E+04  0.90982460341E+02 0.  0.
          4    1    3    3  502    0 -0.16955876152E+03  0.29496276122E+03 -0.14031040328E+03  0.36802202840E+03  0.00000000000E+00 0. -1.
         -3    1    3    3    0  502 -0.39684847055E+03  0.50124816554E+03 -0.32303707503E+03  0.71630397449E+03  0.00000000000E+00 0.  1.
         11    1    5    5    0    0  0.16469259527E+03 -0.12911813747E+02 -0.28080141917E+03  0.32579104174E+03  0.00000000000E+00 0. -1.
        -11    1    5    5    0    0  0.17930424076E+03  0.81977637653E+02 -0.32215589995E+03  0.37769666096E+03  0.00000000000E+00 0.  1.
          1    1    6    6  503    0  0.12079838491E+02 -0.74995840617E+02 -0.87426636714E+02  0.11581759545E+03  0.00000000000E+00 0. -1.
         -1    1    6    6    0  503  0.21033055755E+03 -0.79028091005E+03 -0.55488658476E+03  0.98827222069E+03  0.00000000000E+00 0.  1.
<mgrwt>
<rscale>  0 0.23331803E+04</rscale>
<asrwt>0</asrwt>
<pdfrwt beam="1">  1        2 0.35388628E+00 0.23331803E+04</pdfrwt>
<pdfrwt beam="2">  1       -1 0.91021961E-01 0.23331803E+04</pdfrwt>
<totfact> 0.54920847E+00</totfact>
</mgrwt>
</event>
<event>
12    6  0.1553355E-007  0.1527854E+04  0.7818608E-02  0.8866139E-01
         -1   -1    0    0    0  501 -0.00000000000E+00  0.00000000000E+00  0.43779783329E+03  0.43779783329E+03  0.00000000000E+00 0.  1.
          2   -1    0    0  501    0  0.00000000000E+00 -0.00000000000E+00 -0.13329993401E+04  0.13329993401E+04  0.00000000000E+00 0. -1.
         24    2    1    2    0    0  0.15302180892E+02 -0.48821989833E+03 -0.42032276115E+03  0.64950487657E+03  0.81194428897E+02 0.  0.
        254    2    1    2    0    0 -0.15302180892E+02  0.48821989833E+03 -0.47487874566E+03  0.11212922968E+04  0.89061426327E+03 0.  0.
         23    2    4    4    0    0  0.40288547622E+03  0.40207035037E+03 -0.22232970388E+03  0.61690603135E+03  0.84647981051E+02 0.  0.
         23    2    4    4    0    0 -0.41818765711E+03  0.86149547957E+02 -0.25254904177E+03  0.50438626545E+03  0.91224037960E+02 0.  0.
          2    1    3    3  502    0  0.47763494628E+02 -0.26526892922E+03 -0.24064934570E+03  0.36133234538E+03  0.00000000000E+00 0. -1.
         -1    1    3    3    0  502 -0.32461313736E+02 -0.22295096911E+03 -0.17967341545E+03  0.28817253119E+03  0.00000000000E+00 0.  1.
         11    1    5    5    0    0  0.37814716987E+03  0.36991413327E+03 -0.22782367500E+03  0.57596473414E+03  0.00000000000E+00 0.  1.
        -11    1    5    5    0    0  0.24738306348E+02  0.32156217102E+02  0.54939711226E+01  0.40941297219E+02  0.00000000000E+00 0. -1.
          3    1    6    6  503    0 -0.34378990493E+02 -0.14678089860E+02 -0.79179150414E+01  0.38210661966E+02  0.00000000000E+00 0. -1.
         -3    1    6    6    0  503 -0.38380866662E+03  0.10082763782E+03 -0.24463112673E+03  0.46617560349E+03  0.00000000000E+00 0.  1.
<mgrwt>
<rscale>  0 0.15278537E+04</rscale>
<asrwt>0</asrwt>
<pdfrwt beam="1">  1        2 0.20507682E+00 0.15278537E+04</pdfrwt>
<pdfrwt beam="2">  1       -1 0.67353512E-01 0.15278537E+04</pdfrwt>
<totfact> 0.38810054E+01</totfact>
</mgrwt>
</event>
<event>
12    6  0.1553355E-007  0.1873611E+04  0.7818608E-02  0.8668104E-01
          2   -1    0    0  501    0  0.00000000000E+00  0.00000000000E+00  0.40320222671E+04  0.40320222671E+04  0.00000000000E+00 0. -1.
         -1   -1    0    0    0  501 -0.00000000000E+00 -0.00000000000E+00 -0.21765874114E+03  0.21765874114E+03  0.00000000000E+00 0.  1.
         24    2    1    2    0    0 -0.36096686011E+03 -0.95369754675E+02  0.76774121772E+02  0.38939992007E+03  0.79659072149E+02 0.  0.
        254    2    1    2    0    0  0.36096686011E+03  0.95369754675E+02  0.37375894042E+04  0.38602810882E+04  0.89039489060E+03 0.  0.
         23    2    4    4    0    0 -0.22091672513E+03 -0.95362120482E+02  0.48278265402E+03  0.54709849566E+03  0.91321079005E+02 0.  0.
         23    2    4    4    0    0  0.58188358524E+03  0.19073187516E+03  0.32548067502E+04  0.33131825926E+04  0.91895350175E+02 0.  0.
          4    1    3    3  502    0 -0.36181740922E+02 -0.80374577085E+01  0.34132077790E+02  0.50385690794E+02  0.00000000000E+00 0. -1.
         -3    1    3    3    0  502 -0.32478511919E+03 -0.87332296966E+02  0.42642043982E+02  0.33901422928E+03  0.00000000000E+00 0.  1.
         11    1    5    5    0    0 -0.18072810020E+03 -0.68431413528E+02  0.44681503741E+03  0.48681534714E+03  0.00000000000E+00 0. -1.
        -11    1    5    5    0    0 -0.40188624935E+02 -0.26930706954E+02  0.35967616611E+02  0.60283148523E+02  0.00000000000E+00 0.  1.
          1    1    6    6  503    0  0.52406771306E+03  0.15334766270E+03  0.27484960896E+04  0.28022122026E+04  0.00000000000E+00 0. -1.
         -1    1    6    6    0  503  0.57815872183E+02  0.37384212461E+02  0.50631066060E+03  0.51097039000E+03  0.00000000000E+00 0.  1.
<mgrwt>
<rscale>  0 0.18736114E+04</rscale>
<asrwt>0</asrwt>
<pdfrwt beam="1">  1        2 0.62031106E+00 0.18736114E+04</pdfrwt>
<pdfrwt beam="2">  1       -1 0.33485963E-01 0.18736114E+04</pdfrwt>
<totfact> 0.29299843E+00</totfact>
</mgrwt>
</event>
<event>
12    6  0.1553355E-007  0.2080247E+04  0.7818608E-02  0.8569995E-01
          2   -1    0    0  501    0  0.00000000000E+00  0.00000000000E+00  0.11083980106E+04  0.11083980106E+04  0.00000000000E+00 0. -1.
         -1   -1    0    0    0  501 -0.00000000000E+00 -0.00000000000E+00 -0.97605499042E+03  0.97605499042E+03  0.00000000000E+00 0.  1.
         24    2    1    2    0    0 -0.22123037574E+02 -0.59095239977E+01 -0.80030803530E+03  0.80452885273E+03  0.79052971091E+02 0.  0.
        254    2    1    2    0    0  0.22123037574E+02  0.59095239977E+01  0.93265105544E+03  0.12799241483E+04  0.87626678745E+03 0.  0.
         23    2    4    4    0    0 -0.22726204920E+03 -0.47990668679E+01  0.97971725716E+03  0.10101033346E+04  0.93764452419E+02 0.  0.
         23    2    4    4    0    0  0.24938508677E+03  0.10708590866E+02 -0.47066201719E+02  0.26982081365E+03  0.90996970900E+02 0.  0.
          4    1    3    3  502    0  0.11974390820E+02 -0.22946086082E+02 -0.10378724965E+03  0.10696589219E+03  0.00000000000E+00 0. -1.
         -3    1    3    3    0  502 -0.34097428394E+02  0.17036562084E+02 -0.69652078565E+03  0.69756296054E+03  0.00000000000E+00 0.  1.
         11    1    5    5    0    0 -0.11655222922E+03  0.44335082797E+02  0.50894512995E+03  0.52399920515E+03  0.00000000000E+00 0. -1.
        -11    1    5    5    0    0 -0.11070981997E+03 -0.49134149664E+02  0.47077212722E+03  0.48610412945E+03  0.00000000000E+00 0.  1.
          1    1    6    6  503    0  0.24732469510E+03 -0.41138714189E+01 -0.33490834820E+02  0.24961583435E+03  0.00000000000E+00 0. -1.
         -1    1    6    6    0  503  0.20603916749E+01  0.14822462285E+02 -0.13575366899E+02  0.20204979299E+02  0.00000000000E+00 0.  1.
<mgrwt>
<rscale>  0 0.20802475E+04</rscale>
<asrwt>0</asrwt>
<pdfrwt beam="1">  1        2 0.17052277E+00 0.20802475E+04</pdfrwt>
<pdfrwt beam="2">  1       -1 0.15016231E+00 0.20802475E+04</pdfrwt>
<totfact> 0.78833164E+00</totfact>
</mgrwt>
</event>
<event>
12    6  0.1553355E-007  0.2380629E+04  0.7818608E-02  0.8446792E-01
          2   -1    0    0  501    0  0.00000000000E+00  0.00000000000E+00  0.11491708801E+04  0.11491708801E+04  0.00000000000E+00 0. -1.
         -1   -1    0    0    0  501 -0.00000000000E+00 -0.00000000000E+00 -0.12329310285E+04  0.12329310285E+04  0.00000000000E+00 0.  1.
         24    2    1    2    0    0 -0.24899905279E+03 -0.78473895799E+03 -0.63760791128E+03  0.10444648001E+04  0.80914211715E+02 0.  0.
        254    2    1    2    0    0  0.24899905279E+03  0.78473895799E+03  0.55384776288E+03  0.13376371085E+04  0.89705625749E+03 0.  0.
         23    2    4    4    0    0  0.35319934307E+03  0.12895415769E+03 -0.10163566642E+03  0.40026697114E+03  0.92221953822E+02 0.  0.
         23    2    4    4    0    0 -0.10420029027E+03  0.65578480030E+03  0.65548342930E+03  0.93737013736E+03  0.89960233018E+02 0.  0.
          4    1    3    3  502    0 -0.58648273443E+01 -0.10263715682E+03 -0.89022494275E+02  0.13599186243E+03  0.00000000000E+00 0. -1.
         -3    1    3    3    0  502 -0.24313422545E+03 -0.68210180117E+03 -0.54858541700E+03  0.90847293768E+03  0.00000000000E+00 0.  1.
         11    1    5    5    0    0  0.23799794214E+03  0.80956719402E+02 -0.11164366253E+03  0.27506602528E+03  0.00000000000E+00 0.  1.
        -11    1    5    5    0    0  0.11520140093E+03  0.47997438287E+02  0.10007996112E+02  0.12520094586E+03  0.00000000000E+00 0. -1.
          1    1    6    6  503    0 -0.11972689288E+03  0.56958788176E+03  0.55771723478E+03  0.80611004081E+03  0.00000000000E+00 0. -1.
         -1    1    6    6    0  503  0.15526602605E+02  0.86196918541E+02  0.97766194526E+02  0.13126009655E+03  0.00000000000E+00 0.  1.
<mgrwt>
<rscale>  0 0.23806289E+04</rscale>
<asrwt>0</asrwt>
<pdfrwt beam="1">  1        2 0.17679552E+00 0.23806289E+04</pdfrwt>
<pdfrwt beam="2">  1       -1 0.18968170E+00 0.23806289E+04</pdfrwt>
<totfact> 0.37064851E+00</totfact>
</mgrwt>
</event>
<event>
12    6  0.1553355E-007  0.1771945E+04  0.7818608E-02  0.8721363E-01
         -1   -1    0    0    0  501 -0.00000000000E+00  0.00000000000E+00  0.74407592672E+03  0.74407592672E+03  0.00000000000E+00 0.  1.
          2   -1    0    0  501    0  0.00000000000E+00 -0.00000000000E+00 -0.10549290748E+04  0.10549290748E+04  0.00000000000E+00 0. -1.
         24    2    1    2    0    0  0.24284794182E+03 -0.41463203004E+03  0.33311625436E+03  0.59005972915E+03  0.79430484485E+02 0.  0.
        254    2    1    2    0    0 -0.24284794182E+03  0.41463203004E+03 -0.64396940239E+03  0.12089452723E+04  0.90330351327E+03 0.  0.
         23    2    4    4    0    0 -0.29955022202E+03  0.63592714959E+03 -0.26405380477E+03  0.75646205997E+03  0.91524648349E+02 0.  0.
         23    2    4    4    0    0  0.56702280199E+02 -0.22129511955E+03 -0.37991559762E+03  0.45248321236E+03  0.90656040255E+02 0.  0.
          2    1    3    3  502    0  0.20264046376E+02 -0.22215309477E+02  0.14280573295E+01  0.30103004807E+02  0.00000000000E+00 0. -1.
         -1    1    3    3    0  502  0.22258389544E+03 -0.39241672056E+03  0.33168819703E+03  0.55995672434E+03  0.00000000000E+00 0.  1.
         11    1    5    5    0    0 -0.14866761658E+03  0.41068254666E+03 -0.14324748318E+03  0.45965427855E+03  0.00000000000E+00 0.  1.
        -11    1    5    5    0    0 -0.15088260544E+03  0.22524460293E+03 -0.12080632158E+03  0.29680778142E+03  0.00000000000E+00 0. -1.
          2    1    6    6  503    0  0.73653250531E+02 -0.15501113482E+03 -0.22375069458E+03  0.28198869934E+03  0.00000000000E+00 0.  1.
         -2    1    6    6    0  503 -0.16950970332E+02 -0.66283984733E+02 -0.15616490304E+03  0.17049451302E+03  0.00000000000E+00 0. -1.
<mgrwt>
<rscale>  0 0.17719451E+04</rscale>
<asrwt>0</asrwt>
<pdfrwt beam="1">  1        2 0.16229678E+00 0.17719451E+04</pdfrwt>
<pdfrwt beam="2">  1       -1 0.11447322E+00 0.17719451E+04</pdfrwt>
<totfact> 0.17411823E+01</totfact>
</mgrwt>
</event>
<event>
12    6  0.1618182E-007  0.1286980E+04  0.7818608E-02  0.9039955E-01
         -1   -1    0    0    0  501 -0.00000000000E+00  0.00000000000E+00  0.37360065575E+03  0.37360065575E+03  0.00000000000E+00 0.  1.
          2   -1    0    0  501    0  0.00000000000E+00 -0.00000000000E+00 -0.11083468560E+04  0.11083468560E+04  0.00000000000E+00 0. -1.
         24    2    1    2    0    0 -0.98592921438E+02  0.13154542020E+03 -0.51656347016E+03  0.54804087263E+03  0.80537057504E+02 0.  0.
        254    2    1    2    0    0  0.98592921438E+02 -0.13154542020E+03 -0.21818273007E+03  0.93390663909E+03  0.89305831002E+03 0.  0.
         23    2    4    4    0    0 -0.34957553576E+03  0.10425238101E+03 -0.34298258731E+01  0.37644051353E+03  0.92865937640E+02 0.  0.
         23    2    4    4    0    0  0.44816845719E+03 -0.23579780121E+03 -0.21475290419E+03  0.55746612556E+03  0.90521280436E+02 0.  0.
          2    1    3    3  502    0 -0.10139205772E+03  0.13900140399E+03 -0.50800762268E+03  0.53635201536E+03  0.00000000000E+00 0. -1.
         -1    1    3    3    0  502  0.27991362793E+01 -0.74559837861E+01 -0.85558474843E+01  0.11688857271E+02  0.00000000000E+00 0.  1.
         11    1    5    5    0    0 -0.27129438092E+03  0.88222249621E+02 -0.40882726655E+02  0.28819299746E+03  0.00000000000E+00 0.  1.
        -11    1    5    5    0    0 -0.78281154837E+02  0.16030131388E+02  0.37452900782E+02  0.88247516066E+02  0.00000000000E+00 0. -1.
          3    1    6    6  503    0  0.32323241309E+03 -0.19211354938E+03 -0.12002322363E+03  0.39470543819E+03  0.00000000000E+00 0.  1.
         -3    1    6    6    0  503  0.12493604410E+03 -0.43684251835E+02 -0.94729680564E+02  0.16276068737E+03  0.00000000000E+00 0. -1.
<mgrwt>
<rscale>  0 0.12869796E+04</rscale>
<asrwt>0</asrwt>
<pdfrwt beam="1">  1        2 0.17051490E+00 0.12869796E+04</pdfrwt>
<pdfrwt beam="2">  1       -1 0.57477025E-01 0.12869796E+04</pdfrwt>
<totfact> 0.73836805E+01</totfact>
</mgrwt>
</event>
<event>
12    6  0.1553355E-007  0.1692448E+04  0.7818608E-02  0.8765683E-01
          2   -1    0    0  501    0  0.00000000000E+00  0.00000000000E+00  0.10346551735E+04  0.10346551735E+04  0.00000000000E+00 0. -1.
         -1   -1    0    0    0  501 -0.00000000000E+00 -0.00000000000E+00 -0.69211019776E+03  0.69211019776E+03  0.00000000000E+00 0.  1.
         24    2    1    2    0    0 -0.19079238894E+03 -0.19683124930E+03 -0.41627970577E+03  0.50476754180E+03  0.79732060283E+02 0.  0.
        254    2    1    2    0    0  0.19079238894E+03  0.19683124930E+03  0.75882468150E+03  0.12219978294E+04  0.91777966938E+03 0.  0.
         23    2    4    4    0    0  0.26914564776E+02 -0.35404072956E+03  0.37895230845E+03  0.52708722129E+03  0.90259929008E+02 0.  0.
         23    2    4    4    0    0  0.16387782416E+03  0.55087197887E+03  0.37987237305E+03  0.69491060815E+03  0.91004698575E+02 0.  0.
          2    1    3    3  502    0 -0.57849717324E+01 -0.30487368398E+02 -0.84860556280E+02  0.90356292210E+02  0.00000000000E+00 0. -1.
         -1    1    3    3    0  502 -0.18500741721E+03 -0.16634388091E+03 -0.33141914949E+03  0.41441124959E+03  0.00000000000E+00 0.  1.
         11    1    5    5    0    0  0.47351678060E+01 -0.12256725258E+03  0.19597003222E+03  0.23119127740E+03  0.00000000000E+00 0. -1.
        -11    1    5    5    0    0  0.22179396970E+02 -0.23147347698E+03  0.18298227623E+03  0.29589594389E+03  0.00000000000E+00 0.  1.
          1    1    6    6  503    0  0.11082476435E+03  0.41831598539E+03  0.23911433735E+03  0.49441486461E+03  0.00000000000E+00 0. -1.
         -1    1    6    6    0  503  0.53053059815E+02  0.13255599348E+03  0.14075803570E+03  0.20049574354E+03  0.00000000000E+00 0.  1.
<mgrwt>
<rscale>  0 0.16924484E+04</rscale>
<asrwt>0</asrwt>
<pdfrwt beam="1">  1        2 0.15917772E+00 0.16924484E+04</pdfrwt>
<pdfrwt beam="2">  1       -1 0.10647849E+00 0.16924484E+04</pdfrwt>
<totfact> 0.21426758E+01</totfact>
</mgrwt>
</event>
<event>
12    6  0.1781626E-007  0.2458712E+04  0.7818608E-02  0.8417844E-01
         -1   -1    0    0    0  501 -0.00000000000E+00  0.00000000000E+00  0.14708023409E+04  0.14708023409E+04  0.00000000000E+00 0.  1.
          2   -1    0    0  501    0  0.00000000000E+00 -0.00000000000E+00 -0.10275450754E+04  0.10275450754E+04  0.00000000000E+00 0. -1.
         24    2    1    2    0    0  0.35433222377E+03 -0.35875511016E+03  0.11481312003E+04  0.12565381665E+04  0.80164561553E+02 0.  0.
        254    2    1    2    0    0 -0.35433222377E+03  0.35875511016E+03 -0.70487393486E+03  0.12418092498E+04  0.88937415909E+03 0.  0.
         23    2    4    4    0    0  0.26398707196E+03  0.27005532317E+03 -0.30195061156E+03  0.49264692920E+03  0.94381000713E+02 0.  0.
         23    2    4    4    0    0 -0.61831929573E+03  0.88699786989E+02 -0.40292332330E+03  0.74916232055E+03  0.93330458008E+02 0.  0.
          4    1    3    3  502    0  0.31490216732E+02 -0.26902294903E+02  0.50862504358E+02  0.65592389577E+02  0.00000000000E+00 0. -1.
         -3    1    3    3    0  502  0.32284200704E+03 -0.33185281526E+03  0.10972686960E+04  0.11909457770E+04  0.00000000000E+00 0.  1.
         11    1    5    5    0    0  0.20399583737E+03  0.23992383659E+03 -0.20891703167E+03  0.37792072601E+03  0.00000000000E+00 0.  1.
        -11    1    5    5    0    0  0.59991234587E+02  0.30131486585E+02 -0.93033579892E+02  0.11472620319E+03  0.00000000000E+00 0. -1.
          4    1    6    6  503    0 -0.14073614534E+02  0.15876069772E+02 -0.24846632357E+02  0.32672180168E+02  0.00000000000E+00 0. -1.
         -4    1    6    6    0  503 -0.60424568119E+03  0.72823717218E+02 -0.37807669094E+03  0.71649014038E+03  0.00000000000E+00 0.  1.
<mgrwt>
<rscale>  0 0.24587116E+04</rscale>
<asrwt>0</asrwt>
<pdfrwt beam="1">  1        2 0.15808386E+00 0.24587116E+04</pdfrwt>
<pdfrwt beam="2">  1       -1 0.22627728E+00 0.24587116E+04</pdfrwt>
<totfact> 0.24657772E+00</totfact>
</mgrwt>
</event>
<event>
12    6  0.1553355E-007  0.2170766E+04  0.7818608E-02  0.8530695E-01
          2   -1    0    0  501    0  0.00000000000E+00  0.00000000000E+00  0.92858267486E+03  0.92858267486E+03  0.00000000000E+00 0. -1.
         -1   -1    0    0    0  501 -0.00000000000E+00 -0.00000000000E+00 -0.12686605423E+04  0.12686605423E+04  0.00000000000E+00 0.  1.
         24    2    1    2    0    0  0.59695003873E+03 -0.61002253230E+03  0.13067837352E+03  0.86737590622E+03  0.82384990895E+02 0.  0.
        254    2    1    2    0    0 -0.59695003873E+03  0.61002253230E+03 -0.47075624097E+03  0.13298673110E+04  0.90468712142E+03 0.  0.
         23    2    4    4    0    0  0.10369835624E+03 -0.94043951509E+02 -0.26512789021E+03  0.31131037653E+03  0.83807747058E+02 0.  0.
         23    2    4    4    0    0 -0.70064839497E+03  0.70406648381E+03 -0.20562835075E+03  0.10185569344E+04  0.92506340394E+02 0.  0.
          4    1    3    3  502    0  0.31997954204E+03 -0.29445973729E+03  0.10120619888E+03  0.44647075929E+03  0.00000000000E+00 0. -1.
         -3    1    3    3    0  502  0.27697049669E+03 -0.31556279501E+03  0.29472174640E+02  0.42090514693E+03  0.00000000000E+00 0.  1.
         11    1    5    5    0    0  0.11524501372E+03 -0.68723633992E+02 -0.20436315577E+03  0.24447627797E+03  0.00000000000E+00 0. -1.
        -11    1    5    5    0    0 -0.11546657482E+02 -0.25320317517E+02 -0.60764734445E+02  0.66834098560E+02  0.00000000000E+00 0.  1.
          2    1    6    6  503    0 -0.51761850986E+03  0.45988458874E+03 -0.13993403980E+03  0.70640235858E+03  0.00000000000E+00 0. -1.
         -2    1    6    6    0  503 -0.18302988511E+03  0.24418189508E+03 -0.65694310955E+02  0.31215457584E+03  0.00000000000E+00 0.  1.
<mgrwt>
<rscale>  0 0.21707659E+04</rscale>
<asrwt>0</asrwt>
<pdfrwt beam="1">  1        2 0.14285887E+00 0.21707659E+04</pdfrwt>
<pdfrwt beam="2">  1       -1 0.19517854E+00 0.21707659E+04</pdfrwt>
<totfact> 0.47655197E+00</totfact>
</mgrwt>
</event>
<event>
12    6  0.1553355E-007  0.1247973E+04  0.7818608E-02  0.9071872E-01
         -1   -1    0    0    0  501 -0.00000000000E+00  0.00000000000E+00  0.74892861452E+02  0.74892861452E+02  0.00000000000E+00 0.  1.
          2   -1    0    0  501    0  0.00000000000E+00 -0.00000000000E+00 -0.51988832413E+04  0.51988832413E+04  0.00000000000E+00 0. -1.
         24    2    1    2    0    0 -0.19314811822E+02 -0.21254883253E+03 -0.33162371441E+03  0.40220752416E+03  0.79035032503E+02 0.  0.
        254    2    1    2    0    0  0.19314811822E+02  0.21254883253E+03 -0.47923666655E+04  0.48715685786E+04  0.84844097721E+03 0.  0.
         23    2    4    4    0    0  0.27130714777E+02 -0.18272239393E+02 -0.28652241179E+02  0.10137454332E+03  0.91574541720E+02 0.  0.
         23    2    4    4    0    0 -0.78159029553E+01  0.23082107192E+03 -0.47637144243E+04  0.47701940353E+04  0.91850763449E+02 0.  0.
          4    1    3    3  502    0  0.23652638429E+01  0.61779235958E+01 -0.18442018268E+02  0.19592581524E+02  0.00000000000E+00 0. -1.
         -3    1    3    3    0  502 -0.21680075664E+02 -0.21872675613E+03 -0.31318169615E+03  0.38261494264E+03  0.00000000000E+00 0.  1.
         11    1    5    5    0    0  0.17964619341E+02 -0.24116324345E+02  0.29553029812E+02  0.42162853545E+02  0.00000000000E+00 0. -1.
        -11    1    5    5    0    0  0.91660954353E+01  0.58440849521E+01 -0.58205270991E+02  0.59211689771E+02  0.00000000000E+00 0.  1.
          2    1    6    6  503    0  0.77180443272E+01  0.18434306014E+02 -0.12443270736E+03  0.12602734032E+03  0.00000000000E+00 0.  1.
         -2    1    6    6    0  503 -0.15533947283E+02  0.21238676591E+03 -0.46392817169E+04  0.46441666950E+04  0.00000000000E+00 0. -1.
<mgrwt>
<rscale>  0 0.12479731E+04</rscale>
<asrwt>0</asrwt>
<pdfrwt beam="1">  1        2 0.79982850E+00 0.12479731E+04</pdfrwt>
<pdfrwt beam="2">  1       -1 0.11521974E-01 0.12479731E+04</pdfrwt>
<totfact> 0.11369827E+00</totfact>
</mgrwt>
</event>
<event>
12    6  0.1553355E-007  0.1869135E+04  0.7818608E-02  0.8670374E-01
         -3   -1    0    0    0  501 -0.00000000000E+00  0.00000000000E+00  0.64122787335E+03  0.64122787335E+03  0.00000000000E+00 0.  1.
          2   -1    0    0  501    0  0.00000000000E+00 -0.00000000000E+00 -0.13621004339E+04  0.13621004339E+04  0.00000000000E+00 0. -1.
         24    2    1    2    0    0 -0.52265781759E+03 -0.24458024210E+03  0.17479157002E+03  0.60825826591E+03  0.80220545914E+02 0.  0.
        254    2    1    2    0    0  0.52265781759E+03  0.24458024210E+03 -0.89566413055E+03  0.13950700413E+04  0.90056398792E+03 0.  0.
         23    2    4    4    0    0  0.50280574987E+03 -0.60018566472E+02 -0.81846310783E+02  0.52107608541E+03  0.91682156237E+02 0.  0.
         23    2    4    4    0    0  0.19852067718E+02  0.30459880857E+03 -0.81381781977E+03  0.87399395592E+03  0.91604871234E+02 0.  0.
          2    1    3    3  502    0 -0.42652748845E+02 -0.42270716116E+02  0.44464672886E+01  0.60214960735E+02  0.00000000000E+00 0. -1.
         -1    1    3    3    0  502 -0.48000506874E+03 -0.20230952599E+03  0.17034510273E+03  0.54804330518E+03  0.00000000000E+00 0.  1.
         11    1    5    5    0    0  0.69669395007E+02 -0.40698050333E+02 -0.58329145917E+01  0.80896098757E+02  0.00000000000E+00 0. -1.
        -11    1    5    5    0    0  0.43313635486E+03 -0.19320516140E+02 -0.76013396191E+02  0.44017998665E+03  0.00000000000E+00 0.  1.
          2    1    6    6  503    0 -0.19478953937E+02  0.36500085618E+02 -0.59390954277E+02  0.72380738781E+02  0.00000000000E+00 0. -1.
         -2    1    6    6    0  503  0.39331021655E+02  0.26809872295E+03 -0.75442686549E+03  0.80161321714E+03  0.00000000000E+00 0.  1.
<mgrwt>
<rscale>  0 0.18691354E+04</rscale>
<asrwt>0</asrwt>
<pdfrwt beam="1">  1        2 0.20955391E+00 0.18691354E+04</pdfrwt>
<pdfrwt beam="2">  1       -3 0.98650443E-01 0.18691354E+04</pdfrwt>
<totfact> 0.81929962E+00</totfact>
</mgrwt>
</event>
<event>
12    6  0.1553355E-007  0.2059743E+04  0.7818608E-02  0.8579187E-01
          2   -1    0    0  501    0  0.00000000000E+00  0.00000000000E+00  0.95689595345E+03  0.95689595345E+03  0.00000000000E+00 0. -1.
         -1   -1    0    0    0  501 -0.00000000000E+00 -0.00000000000E+00 -0.11084123538E+04  0.11084123538E+04  0.00000000000E+00 0.  1.
         24    2    1    2    0    0 -0.44706257863E+01  0.24305014375E+03 -0.84615736540E+03  0.88385707412E+03  0.78279509287E+02 0.  0.
        254    2    1    2    0    0  0.44706257863E+01 -0.24305014375E+03  0.69464096501E+03  0.11814512332E+04  0.92423351337E+03 0.  0.
         23    2    4    4    0    0 -0.13413993707E+03  0.31162746448E+03  0.39597159594E+03  0.52936278154E+03  0.91248289564E+02 0.  0.
         23    2    4    4    0    0  0.13861056286E+03 -0.55467760824E+03  0.29866936906E+03  0.65208845164E+03  0.95581481102E+02 0.  0.
          2    1    3    3  502    0 -0.28879694605E+02  0.36927077318E+02 -0.18733633393E+03  0.19311278520E+03  0.00000000000E+00 0. -1.
         -1    1    3    3    0  502  0.24409068818E+02  0.20612306643E+03 -0.65882103147E+03  0.69074428891E+03  0.00000000000E+00 0.  1.
         11    1    5    5    0    0 -0.76420185167E+02  0.26492980949E+03  0.29208860937E+03  0.40167599427E+03  0.00000000000E+00 0.  1.
        -11    1    5    5    0    0 -0.57719751903E+02  0.46697654999E+02  0.10388298658E+03  0.12768678727E+03  0.00000000000E+00 0. -1.
          3    1    6    6  503    0 -0.45620122748E+01  0.14469073303E+01  0.56097893295E+01  0.73739564102E+01  0.00000000000E+00 0. -1.
         -3    1    6    6    0  503  0.14317257513E+03 -0.55612451557E+03  0.29305957973E+03  0.64471449523E+03  0.00000000000E+00 0.  1.
<mgrwt>
<rscale>  0 0.20597430E+04</rscale>
<asrwt>0</asrwt>
<pdfrwt beam="1">  1        2 0.14721476E+00 0.20597430E+04</pdfrwt>
<pdfrwt beam="2">  1       -1 0.17052498E+00 0.20597430E+04</pdfrwt>
<totfact> 0.69111194E+00</totfact>
</mgrwt>
</event>
<event>
12    6  0.1553355E-007  0.2684083E+04  0.7818608E-02  0.8340188E-01
          2   -1    0    0  501    0  0.00000000000E+00  0.00000000000E+00  0.35850453659E+04  0.35850453659E+04  0.00000000000E+00 0. -1.
         -1   -1    0    0    0  501 -0.00000000000E+00 -0.00000000000E+00 -0.50238549984E+03  0.50238549984E+03  0.00000000000E+00 0.  1.
         24    2    1    2    0    0 -0.38309191984E+02 -0.81684624716E+03  0.26753013251E+04  0.27986200254E+04  0.79570601616E+02 0.  0.
        254    2    1    2    0    0  0.38309191984E+02  0.81684624716E+03  0.40735854100E+03  0.12888108404E+04  0.90905831260E+03 0.  0.
         23    2    4    4    0    0  0.41801211355E+03  0.59770293850E+03  0.40607016181E+03  0.83990895917E+03  0.92580525112E+02 0.  0.
         23    2    4    4    0    0 -0.37970292156E+03  0.21914330866E+03  0.12883791839E+01  0.44890188122E+03  0.96504614761E+02 0.  0.
          2    1    3    3  502    0 -0.77772626357E+01 -0.62347850859E+03  0.21217651349E+04  0.22114866547E+04  0.00000000000E+00 0. -1.
         -1    1    3    3    0  502 -0.30531929348E+02 -0.19336773857E+03  0.55353619020E+03  0.58713337062E+03  0.00000000000E+00 0.  1.
         11    1    5    5    0    0  0.20418808014E+03  0.34051955234E+03  0.17821480535E+03  0.43520897789E+03  0.00000000000E+00 0. -1.
        -11    1    5    5    0    0  0.21382403341E+03  0.25718338616E+03  0.22785535646E+03  0.40469998128E+03  0.00000000000E+00 0.  1.
          2    1    6    6  503    0 -0.24673089836E+03  0.94431727495E+02  0.23607685617E+02  0.26523727148E+03  0.00000000000E+00 0. -1.
         -2    1    6    6    0  503 -0.13297202321E+03  0.12471158117E+03 -0.22319306433E+02  0.18366460974E+03  0.00000000000E+00 0.  1.
<mgrwt>
<rscale>  0 0.26840826E+04</rscale>
<asrwt>0</asrwt>
<pdfrwt beam="1">  1        2 0.55154543E+00 0.26840826E+04</pdfrwt>
<pdfrwt beam="2">  1       -1 0.77290079E-01 0.26840826E+04</pdfrwt>
<totfact> 0.11865340E+00</totfact>
</mgrwt>
</event>
<event>
12    6  0.1553355E-007  0.3041799E+04  0.7818608E-02  0.8231895E-01
         -1   -1    0    0    0  501 -0.00000000000E+00  0.00000000000E+00  0.12765992623E+04  0.12765992623E+04  0.00000000000E+00 0.  1.
          2   -1    0    0  501    0  0.00000000000E+00 -0.00000000000E+00 -0.18119509142E+04  0.18119509142E+04  0.00000000000E+00 0. -1.
         24    2    1    2    0    0  0.63722189573E+03 -0.12345028097E+04 -0.25451639034E+03  0.14145516948E+04  0.78287755769E+02 0.  0.
        254    2    1    2    0    0 -0.63722189573E+03  0.12345028097E+04 -0.28083526156E+03  0.16739984818E+04  0.89070395842E+03 0.  0.
         23    2    4    4    0    0 -0.23157103905E+03 -0.87524097296E+02 -0.25543664336E+02  0.26492068556E+03  0.90801305671E+02 0.  0.
         23    2    4    4    0    0 -0.40565085668E+03  0.13220269070E+04 -0.25529159723E+03  0.14090777963E+04  0.89547060625E+02 0.  0.
          2    1    3    3  502    0  0.41826682656E+03 -0.87831404745E+03 -0.15991655830E+03  0.98587829358E+03  0.00000000000E+00 0. -1.
         -3    1    3    3    0  502  0.21895506917E+03 -0.35618876222E+03 -0.94599832043E+02  0.42867340117E+03  0.00000000000E+00 0.  1.
         11    1    5    5    0    0 -0.70914693606E+02 -0.30080684000E+02 -0.51044686930E+02  0.92408340440E+02  0.00000000000E+00 0. -1.
        -11    1    5    5    0    0 -0.16065634545E+03 -0.57443413296E+02  0.25501022594E+02  0.17251234511E+03  0.00000000000E+00 0.  1.
          4    1    6    6  503    0 -0.51709012812E+02  0.22293510952E+03 -0.12783993480E+02  0.22921019949E+03  0.00000000000E+00 0.  1.
         -4    1    6    6    0  503 -0.35394184387E+03  0.10990917974E+04 -0.24250760375E+03  0.11798675968E+04  0.00000000000E+00 0. -1.
<mgrwt>
<rscale>  0 0.30417989E+04</rscale>
<asrwt>0</asrwt>
<pdfrwt beam="1">  1        2 0.27876168E+00 0.30417989E+04</pdfrwt>
<pdfrwt beam="2">  1       -1 0.19639989E+00 0.30417989E+04</pdfrwt>
<totfact> 0.13150138E+00</totfact>
</mgrwt>
</event>
<event>
12    6  0.1553355E-007  0.1157318E+04  0.7818608E-02  0.9151058E-01
          2   -1    0    0  501    0  0.00000000000E+00  0.00000000000E+00  0.36008798924E+04  0.36008798924E+04  0.00000000000E+00 0. -1.
         -3   -1    0    0    0  501 -0.00000000000E+00 -0.00000000000E+00 -0.92990185255E+02  0.92990185255E+02  0.00000000000E+00 0.  1.
         24    2    1    2    0    0 -0.58716608450E+01 -0.17097928314E+03  0.27538987244E+03  0.33358362108E+03  0.78549721503E+02 0.  0.
        254    2    1    2    0    0  0.58716608450E+01  0.17097928314E+03  0.32324998347E+04  0.33602864565E+04  0.90177685553E+03 0.  0.
         23    2    4    4    0    0 -0.11368461901E+03  0.48429889171E+03  0.12629787663E+04  0.13603604946E+04  0.89418690411E+02 0.  0.
         23    2    4    4    0    0  0.11955627986E+03 -0.31331960857E+03  0.19695210684E+04  0.19999259619E+04  0.90706852346E+02 0.  0.
          2    1    3    3  502    0 -0.16080421645E+02 -0.14891614811E+02  0.71245367830E+01  0.23045589086E+02  0.00000000000E+00 0. -1.
         -1    1    3    3    0  502  0.10208760800E+02 -0.15608766833E+03  0.26826533565E+03  0.31053803199E+03  0.00000000000E+00 0.  1.
         11    1    5    5    0    0  0.13722230478E+02  0.52347952189E+02  0.11123591351E+03  0.12370139919E+03  0.00000000000E+00 0.  1.
        -11    1    5    5    0    0 -0.12740684949E+03  0.43195093952E+03  0.11517428528E+04  0.12366590955E+04  0.00000000000E+00 0. -1.
          3    1    6    6  503    0  0.86907986038E+02 -0.29963756709E+03  0.17751640106E+04  0.18023714751E+04  0.00000000000E+00 0. -1.
         -3    1    6    6    0  503  0.32648293819E+02 -0.13682041478E+02  0.19435705778E+03  0.19755448680E+03  0.00000000000E+00 0.  1.
<mgrwt>
<rscale>  0 0.11573184E+04</rscale>
<asrwt>0</asrwt>
<pdfrwt beam="1">  1        2 0.55398142E+00 0.11573184E+04</pdfrwt>
<pdfrwt beam="2">  1       -3 0.14306185E-01 0.11573184E+04</pdfrwt>
<totfact> 0.19199945E+01</totfact>
</mgrwt>
</event>
<event>
12    6  0.1553355E-007  0.1426871E+04  0.7818608E-02  0.8934594E-01
          2   -1    0    0  501    0  0.00000000000E+00  0.00000000000E+00  0.10287320202E+04  0.10287320202E+04  0.00000000000E+00 0. -1.
         -1   -1    0    0    0  501 -0.00000000000E+00 -0.00000000000E+00 -0.49477439725E+03  0.49477439725E+03  0.00000000000E+00 0.  1.
         24    2    1    2    0    0 -0.21750165226E+03  0.35195207089E+03  0.79099145047E+02  0.42872743651E+03  0.79833020271E+02 0.  0.
        254    2    1    2    0    0  0.21750165226E+03 -0.35195207089E+03  0.45485847786E+03  0.10947789809E+04  0.90579664010E+03 0.  0.
         23    2    4    4    0    0  0.58862989983E+01  0.28045808382E+03  0.26319593970E+03  0.39503879869E+03  0.89956458909E+02 0.  0.
         23    2    4    4    0    0  0.21161535327E+03 -0.63241015471E+03  0.19166253817E+03  0.69974018222E+03  0.90433028029E+02 0.  0.
          2    1    3    3  502    0 -0.85399395691E+02  0.82141199552E+02  0.43442775881E+02  0.12620423220E+03  0.00000000000E+00 0. -1.
         -1    1    3    3    0  502 -0.13210225657E+03  0.26981087134E+03  0.35656369166E+02  0.30252320431E+03  0.00000000000E+00 0.  1.
         11    1    5    5    0    0  0.16301091266E+02  0.23055693188E+03  0.25367474668E+03  0.34318085832E+03  0.00000000000E+00 0.  1.
        -11    1    5    5    0    0 -0.10414792268E+02  0.49901151936E+02  0.95211930201E+01  0.51857940367E+02  0.00000000000E+00 0. -1.
          4    1    6    6  503    0  0.90651636570E+02 -0.40563204837E+03  0.10793616641E+03  0.42942437506E+03  0.00000000000E+00 0.  1.
         -4    1    6    6    0  503  0.12096371670E+03 -0.22677810634E+03  0.83726371759E+02  0.27031580716E+03  0.00000000000E+00 0. -1.
<mgrwt>
<rscale>  0 0.14268711E+04</rscale>
<asrwt>0</asrwt>
<pdfrwt beam="1">  1        2 0.15826646E+00 0.14268711E+04</pdfrwt>
<pdfrwt beam="2">  1       -1 0.76119138E-01 0.14268711E+04</pdfrwt>
<totfact> 0.46384076E+01</totfact>
</mgrwt>
</event>
<event>
12    6  0.1553355E-007  0.1647378E+04  0.7818608E-02  0.8791959E-01
          2   -1    0    0  501    0  0.00000000000E+00  0.00000000000E+00  0.62470506239E+03  0.62470506239E+03  0.00000000000E+00 0. -1.
         -1   -1    0    0    0  501 -0.00000000000E+00 -0.00000000000E+00 -0.10860546278E+04  0.10860546278E+04  0.00000000000E+00 0.  1.
         24    2    1    2    0    0 -0.51556230593E+03 -0.52322719621E+02  0.14826848649E+02  0.52464519473E+03  0.80564177048E+02 0.  0.
        254    2    1    2    0    0  0.51556230593E+03  0.52322719621E+02 -0.47617641410E+03  0.11861144955E+04  0.95476775228E+03 0.  0.
         23    2    4    4    0    0  0.54739922086E+03 -0.14250384973E+03  0.90506148047E+02  0.57948268642E+03  0.87496096155E+02 0.  0.
         23    2    4    4    0    0 -0.31836914929E+02  0.19482656935E+03 -0.56668256214E+03  0.60663180907E+03  0.88893443319E+02 0.  0.
          2    1    3    3  502    0 -0.12716641036E+03 -0.84368708374E+01  0.38291478459E+02  0.13307409228E+03  0.00000000000E+00 0. -1.
         -1    1    3    3    0  502 -0.38839589557E+03 -0.43885848784E+02 -0.23464629810E+02  0.39157110245E+03  0.00000000000E+00 0.  1.
         11    1    5    5    0    0  0.18026394388E+03 -0.37206735280E+02 -0.10668074650E+02  0.18437255336E+03  0.00000000000E+00 0.  1.
        -11    1    5    5    0    0  0.36713527698E+03 -0.10529711445E+03  0.10117422270E+03  0.39511013306E+03  0.00000000000E+00 0. -1.
          1    1    6    6  503    0 -0.14314832074E+02  0.18246698631E+03 -0.54942006256E+03  0.57910406721E+03  0.00000000000E+00 0. -1.
         -1    1    6    6    0  503 -0.17522082855E+02  0.12359583039E+02 -0.17262499584E+02  0.27527741868E+02  0.00000000000E+00 0.  1.
<mgrwt>
<rscale>  0 0.16473783E+04</rscale>
<asrwt>0</asrwt>
<pdfrwt beam="1">  1        2 0.96108472E-01 0.16473783E+04</pdfrwt>
<pdfrwt beam="2">  1       -1 0.16708533E+00 0.16473783E+04</pdfrwt>
<totfact> 0.13325201E+01</totfact>
</mgrwt>
</event>
<event>
12    6  0.1553355E-007  0.2269896E+04  0.7818608E-02  0.8489886E-01
          2   -1    0    0  501    0  0.00000000000E+00  0.00000000000E+00  0.79693457815E+03  0.79693457815E+03  0.00000000000E+00 0. -1.
         -1   -1    0    0    0  501 -0.00000000000E+00 -0.00000000000E+00 -0.16163274130E+04  0.16163274130E+04  0.00000000000E+00 0.  1.
         24    2    1    2    0    0 -0.33241010965E+03  0.75961051268E+03 -0.84585759149E+03  0.11869424676E+04  0.76503231012E+02 0.  0.
        254    2    1    2    0    0  0.33241010965E+03 -0.75961051268E+03  0.26464756667E+02  0.12263195235E+04  0.90313596896E+03 0.  0.
         23    2    4    4    0    0 -0.18183314396E+03 -0.30622630003E+02  0.22880701020E+03  0.30680247746E+03  0.88170712548E+02 0.  0.
         23    2    4    4    0    0  0.51424325361E+03 -0.72898788268E+03 -0.20234225353E+03  0.91951704605E+03  0.93272468815E+02 0.  0.
          2    1    3    3  502    0 -0.75608506066E+02  0.16732698354E+03 -0.23454818400E+03  0.29787214745E+03  0.00000000000E+00 0. -1.
         -1    1    3    3    0  502 -0.25680160359E+03  0.59228352914E+03 -0.61130940749E+03  0.88907032016E+03  0.00000000000E+00 0.  1.
         11    1    5    5    0    0 -0.16566487664E+03 -0.10778603324E+02  0.14929252589E+03  0.22326954098E+03  0.00000000000E+00 0.  1.
        -11    1    5    5    0    0 -0.16168267316E+02 -0.19844026679E+02  0.79514484306E+02  0.83532936482E+02  0.00000000000E+00 0. -1.
          4    1    6    6  503    0  0.48286557249E+03 -0.65293420143E+03 -0.20366361392E+03  0.83723419671E+03  0.00000000000E+00 0.  1.
         -4    1    6    6    0  503  0.31377681118E+02 -0.76053681240E+02  0.13213603851E+01  0.82282849342E+02  0.00000000000E+00 0. -1.
<mgrwt>
<rscale>  0 0.22698962E+04</rscale>
<asrwt>0</asrwt>
<pdfrwt beam="1">  1        2 0.12260532E+00 0.22698962E+04</pdfrwt>
<pdfrwt beam="2">  1       -1 0.24866575E+00 0.22698962E+04</pdfrwt>
<totfact> 0.25535500E+00</totfact>
</mgrwt>
</event>
<event>
12    6  0.1553355E-007  0.1692751E+04  0.7818608E-02  0.8765510E-01
          2   -1    0    0  501    0  0.00000000000E+00  0.00000000000E+00  0.20663049932E+04  0.20663049932E+04  0.00000000000E+00 0. -1.
         -1   -1    0    0    0  501 -0.00000000000E+00 -0.00000000000E+00 -0.34668232527E+03  0.34668232527E+03  0.00000000000E+00 0.  1.
         24    2    1    2    0    0 -0.15201590613E+03  0.54007487201E+03  0.94306515067E+03  0.11001183057E+04  0.78094206314E+02 0.  0.
        254    2    1    2    0    0  0.15201590613E+03 -0.54007487201E+03  0.77655751723E+03  0.13128690127E+04  0.89766016060E+03 0.  0.
         23    2    4    4    0    0 -0.52063402697E+02 -0.34428754787E+03  0.91642742579E+03  0.98508902278E+03  0.96522756534E+02 0.  0.
         23    2    4    4    0    0  0.20407930883E+03 -0.19578732414E+03 -0.13986990856E+03  0.32777998996E+03  0.88854318453E+02 0.  0.
          2    1    3    3  502    0 -0.79331710561E+02  0.37803707014E+03  0.69343257107E+03  0.79375958408E+03  0.00000000000E+00 0. -1.
         -1    1    3    3    0  502 -0.72684195573E+02  0.16203780187E+03  0.24963257959E+03  0.30635872163E+03  0.00000000000E+00 0.  1.
         11    1    5    5    0    0  0.20833644835E+02 -0.19768151502E+02  0.71235099696E+02  0.76806640335E+02  0.00000000000E+00 0.  1.
        -11    1    5    5    0    0 -0.72897047532E+02 -0.32451939637E+03  0.84519232610E+03  0.90828238244E+03  0.00000000000E+00 0. -1.
          3    1    6    6  503    0  0.13777071536E+03 -0.16839593168E+03 -0.72420986352E+02  0.22930930875E+03  0.00000000000E+00 0. -1.
         -3    1    6    6    0  503  0.66308593474E+02 -0.27391392458E+02 -0.67448922208E+02  0.98470681202E+02  0.00000000000E+00 0.  1.
<mgrwt>
<rscale>  0 0.16927509E+04</rscale>
<asrwt>0</asrwt>
<pdfrwt beam="1">  1        2 0.31789307E+00 0.16927509E+04</pdfrwt>
<pdfrwt beam="2">  1       -1 0.53335744E-01 0.16927509E+04</pdfrwt>
<totfact> 0.23599723E+01</totfact>
</mgrwt>
</event>
<event>
12    6  0.1553355E-007  0.1476916E+04  0.7818608E-02  0.8899950E-01
         -1   -1    0    0    0  501 -0.00000000000E+00  0.00000000000E+00  0.14576120862E+04  0.14576120862E+04  0.00000000000E+00 0.  1.
          2   -1    0    0  501    0  0.00000000000E+00 -0.00000000000E+00 -0.37411881961E+03  0.37411881961E+03  0.00000000000E+00 0. -1.
         24    2    1    2    0    0  0.18628748763E+03 -0.41874180566E+03  0.32532015149E+03  0.56783298515E+03  0.80952888806E+02 0.  0.
        254    2    1    2    0    0 -0.18628748763E+03  0.41874180566E+03  0.75817311512E+03  0.12638979207E+04  0.90142318227E+03 0.  0.
         23    2    4    4    0    0 -0.44552984603E+03  0.26223470108E+03  0.78728498716E+03  0.94624876354E+03  0.91132811611E+02 0.  0.
         23    2    4    4    0    0  0.25924235840E+03  0.15650710458E+03 -0.29111872035E+02  0.31764915713E+03  0.91391530026E+02 0.  0.
          2    1    3    3  502    0  0.16822439650E+03 -0.37794038044E+03  0.31976976156E+03  0.52286812788E+03  0.00000000000E+00 0. -1.
         -1    1    3    3    0  502  0.18063091132E+02 -0.40801425221E+02  0.55503899326E+01  0.44964857275E+02  0.00000000000E+00 0.  1.
         11    1    5    5    0    0 -0.37328893869E+03  0.17689978030E+03  0.62519846175E+03  0.74934056383E+03  0.00000000000E+00 0.  1.
        -11    1    5    5    0    0 -0.72240907334E+02  0.85334920782E+02  0.16208652540E+03  0.19690819972E+03  0.00000000000E+00 0. -1.
          2    1    6    6  503    0  0.23307248071E+03  0.13235543393E+03  0.53620819305E+01  0.26808486358E+03  0.00000000000E+00 0.  1.
         -2    1    6    6    0  503  0.26169877680E+02  0.24151670648E+02 -0.34473953966E+02  0.49564293548E+02  0.00000000000E+00 0. -1.
<mgrwt>
<rscale>  0 0.14769159E+04</rscale>
<asrwt>0</asrwt>
<pdfrwt beam="1">  1        2 0.57556742E-01 0.14769159E+04</pdfrwt>
<pdfrwt beam="2">  1       -1 0.22424801E+00 0.14769159E+04</pdfrwt>
<totfact> 0.97906594E+00</totfact>
</mgrwt>
</event>
<event>
12    6  0.1553355E-007  0.1268908E+04  0.7818608E-02  0.9054592E-01
         -1   -1    0    0    0  501 -0.00000000000E+00  0.00000000000E+00  0.36916213564E+03  0.36916213564E+03  0.00000000000E+00 0.  1.
          2   -1    0    0  501    0  0.00000000000E+00 -0.00000000000E+00 -0.10903926648E+04  0.10903926648E+04  0.00000000000E+00 0. -1.
         24    2    1    2    0    0  0.19848349198E+03 -0.12703944391E+03  0.58737643366E+02  0.25513388995E+03  0.78156728147E+02 0.  0.
        254    2    1    2    0    0 -0.19848349198E+03  0.12703944391E+03 -0.77996817254E+03  0.12044209105E+04  0.88698628095E+03 0.  0.
         23    2    4    4    0    0  0.45061827721E+02 -0.86931588227E+02 -0.85035366227E+03  0.86034317246E+03  0.86610357983E+02 0.  0.
         23    2    4    4    0    0 -0.24354531970E+03  0.21397103214E+03  0.70385489726E+02  0.34407773805E+03  0.91309623346E+02 0.  0.
          4    1    3    3  502    0  0.14640047033E+01 -0.26708267491E+01 -0.11412992063E+02  0.11812409285E+02  0.00000000000E+00 0. -1.
         -3    1    3    3    0  502  0.19701948728E+03 -0.12436861716E+03  0.70150635428E+02  0.24332148067E+03  0.00000000000E+00 0.  1.
         11    1    5    5    0    0  0.82698521721E+00 -0.77044568185E+02 -0.66851561597E+03  0.67294106591E+03  0.00000000000E+00 0.  1.
        -11    1    5    5    0    0  0.44234842504E+02 -0.98870200422E+01 -0.18183804629E+03  0.18740210654E+03  0.00000000000E+00 0. -1.
          1    1    6    6  503    0 -0.18567940963E+02  0.17323168603E+02  0.34915561811E+02  0.43173568981E+02  0.00000000000E+00 0. -1.
         -1    1    6    6    0  503 -0.22497737874E+03  0.19664786354E+03  0.35469927916E+02  0.30090416907E+03  0.00000000000E+00 0.  1.
<mgrwt>
<rscale>  0 0.12689077E+04</rscale>
<asrwt>0</asrwt>
<pdfrwt beam="1">  1        2 0.16775272E+00 0.12689077E+04</pdfrwt>
<pdfrwt beam="2">  1       -1 0.56794175E-01 0.12689077E+04</pdfrwt>
<totfact> 0.77639864E+01</totfact>
</mgrwt>
</event>
<event>
12    6  0.1553355E-007  0.3276350E+04  0.7818608E-02  0.8168939E-01
         -1   -1    0    0    0  501 -0.00000000000E+00  0.00000000000E+00  0.30601087732E+04  0.30601087732E+04  0.00000000000E+00 0.  1.
          2   -1    0    0  501    0  0.00000000000E+00 -0.00000000000E+00 -0.87696782730E+03  0.87696782730E+03  0.00000000000E+00 0. -1.
         24    2    1    2    0    0 -0.12323166343E+04 -0.70844967779E+03  0.16339861162E+04  0.21673579261E+04  0.83812402561E+02 0.  0.
        254    2    1    2    0    0  0.12323166343E+04  0.70844967779E+03  0.54915482976E+03  0.17697186745E+04  0.89990439856E+03 0.  0.
         23    2    4    4    0    0  0.92174346669E+03  0.74857968254E+02  0.50326622158E+03  0.10570202182E+04  0.93808944964E+02 0.  0.
         23    2    4    4    0    0  0.31057316761E+03  0.63359170953E+03  0.45888608185E+02  0.71269845623E+03  0.89102066929E+02 0.  0.
          2    1    3    3  502    0 -0.87547844290E+03 -0.48754322743E+03  0.12050071505E+04  0.15672278505E+04  0.00000000000E+00 0. -1.
         -1    1    3    3    0  502 -0.35683819139E+03 -0.22090645035E+03  0.42897896563E+03  0.60013007556E+03  0.00000000000E+00 0.  1.
         11    1    5    5    0    0  0.45328229151E+03  0.83409200894E+02  0.24211814382E+03  0.52061802328E+03  0.00000000000E+00 0. -1.
        -11    1    5    5    0    0  0.46846117517E+03 -0.85512326404E+01  0.26114807775E+03  0.53640219494E+03  0.00000000000E+00 0.  1.
          4    1    6    6  503    0  0.14205904670E+03  0.19421791572E+03  0.17461229318E+02  0.24125974813E+03  0.00000000000E+00 0. -1.
         -4    1    6    6    0  503  0.16851412091E+03  0.43937379381E+03  0.28427378868E+02  0.47143870811E+03  0.00000000000E+00 0.  1.
<mgrwt>
<rscale>  0 0.32763498E+04</rscale>
<asrwt>0</asrwt>
<pdfrwt beam="1">  1        2 0.13491813E+00 0.32763498E+04</pdfrwt>
<pdfrwt beam="2">  1       -1 0.47078596E+00 0.32763498E+04</pdfrwt>
<totfact> 0.67502067E-02</totfact>
</mgrwt>
</event>
<event>
12    6  0.1553355E-007  0.1224474E+04  0.7818608E-02  0.9091701E-01
          2   -1    0    0  501    0  0.00000000000E+00  0.00000000000E+00  0.64194120689E+03  0.64194120689E+03  0.00000000000E+00 0. -1.
         -1   -1    0    0    0  501 -0.00000000000E+00 -0.00000000000E+00 -0.58390689675E+03  0.58390689675E+03  0.00000000000E+00 0.  1.
         24    2    1    2    0    0  0.52971152684E+00  0.25634680659E+03  0.10625089264E+03  0.28892090218E+03  0.80449174525E+02 0.  0.
        254    2    1    2    0    0 -0.52971152684E+00 -0.25634680659E+03 -0.48216582510E+02  0.93692720146E+03  0.89988542391E+03 0.  0.
         23    2    4    4    0    0 -0.23106624490E+03 -0.51098092482E+03 -0.10007156106E+03  0.57693682949E+03  0.91371072187E+02 0.  0.
         23    2    4    4    0    0  0.23053653337E+03  0.25463411823E+03  0.51854978552E+02  0.35999037197E+03  0.94437819367E+02 0.  0.
          2    1    3    3  502    0 -0.57221976567E+01  0.14017133279E+03  0.10024326292E+03  0.17242232409E+03  0.00000000000E+00 0. -1.
         -1    1    3    3    0  502  0.62519091835E+01  0.11617547380E+03  0.60076297202E+01  0.11649857809E+03  0.00000000000E+00 0.  1.
         11    1    5    5    0    0 -0.72927329803E+02 -0.21100009975E+03 -0.80299294643E+02  0.23724968756E+03  0.00000000000E+00 0.  1.
        -11    1    5    5    0    0 -0.15813891509E+03 -0.29998082507E+03 -0.19772266420E+02  0.33968714193E+03  0.00000000000E+00 0. -1.
          3    1    6    6  503    0  0.18584369804E+03  0.19232622238E+03  0.40175310177E-01  0.26744580298E+03  0.00000000000E+00 0. -1.
         -3    1    6    6    0  503  0.44692835323E+02  0.62307895845E+02  0.51814803242E+02  0.92544568986E+02  0.00000000000E+00 0.  1.
<mgrwt>
<rscale>  0 0.12244736E+04</rscale>
<asrwt>0</asrwt>
<pdfrwt beam="1">  1        2 0.98760186E-01 0.12244736E+04</pdfrwt>
<pdfrwt beam="2">  1       -1 0.89831830E-01 0.12244736E+04</pdfrwt>
<totfact> 0.62376565E+01</totfact>
</mgrwt>
</event>
<event>
12    6  0.1553355E-007  0.1408098E+04  0.7818608E-02  0.8947978E-01
          2   -1    0    0  501    0  0.00000000000E+00  0.00000000000E+00  0.14732879538E+04  0.14732879538E+04  0.00000000000E+00 0. -1.
         -1   -1    0    0    0  501 -0.00000000000E+00 -0.00000000000E+00 -0.33644817739E+03  0.33644817739E+03  0.00000000000E+00 0.  1.
         24    2    1    2    0    0 -0.32953150078E+02 -0.41477077262E+03  0.43811326791E+03  0.60828450366E+03  0.70328500264E+02 0.  0.
        254    2    1    2    0    0  0.32953150078E+02  0.41477077262E+03  0.69872650852E+03  0.12014516275E+04  0.88439051086E+03 0.  0.
         23    2    4    4    0    0 -0.24761571932E+03  0.55960222621E+03  0.30805371773E+03  0.69074878930E+03  0.88139666876E+02 0.  0.
         23    2    4    4    0    0  0.28056886940E+03 -0.14483145359E+03  0.39067279079E+03  0.51070283824E+03  0.92179819396E+02 0.  0.
          2    1    3    3  502    0  0.69675416313E+01 -0.13106120133E+03  0.17920515871E+03  0.22212625697E+03  0.00000000000E+00 0. -1.
         -1    1    3    3    0  502 -0.39920691709E+02 -0.28370957130E+03  0.25890810920E+03  0.38615824668E+03  0.00000000000E+00 0.  1.
         11    1    5    5    0    0 -0.10943772833E+02  0.10150534125E+03  0.61792796886E+02  0.11933754737E+03  0.00000000000E+00 0.  1.
        -11    1    5    5    0    0 -0.23667194649E+03  0.45809688497E+03  0.24626092085E+03  0.57141124193E+03  0.00000000000E+00 0. -1.
          3    1    6    6  503    0  0.24218394344E+03 -0.11197759102E+03  0.26866000951E+03  0.37864263371E+03  0.00000000000E+00 0. -1.
         -3    1    6    6    0  503  0.38384925956E+02 -0.32853862569E+02  0.12201278128E+03  0.13206020454E+03  0.00000000000E+00 0.  1.
<mgrwt>
<rscale>  0 0.14080981E+04</rscale>
<asrwt>0</asrwt>
<pdfrwt beam="1">  1        2 0.22665968E+00 0.14080981E+04</pdfrwt>
<pdfrwt beam="2">  1       -1 0.51761259E-01 0.14080981E+04</pdfrwt>
<totfact> 0.54725048E+01</totfact>
</mgrwt>
</event>
<event>
12    6  0.1553355E-007  0.2404815E+04  0.7818608E-02  0.8437703E-01
          2   -1    0    0  501    0  0.00000000000E+00  0.00000000000E+00  0.23084442587E+04  0.23084442587E+04  0.00000000000E+00 0. -1.
         -3   -1    0    0    0  501 -0.00000000000E+00 -0.00000000000E+00 -0.62630205496E+03  0.62630205496E+03  0.00000000000E+00 0.  1.
         24    2    1    2    0    0 -0.88004288285E+03 -0.36233320043E+03  0.11938127760E+04  0.15286438655E+04  0.76172826103E+02 0.  0.
        254    2    1    2    0    0  0.88004288285E+03  0.36233320043E+03  0.48832942772E+03  0.14061024482E+04  0.91263225951E+03 0.  0.
         23    2    4    4    0    0  0.76589945266E+03 -0.77705553119E+02  0.62887166574E+02  0.77740455347E+03  0.88107431423E+02 0.  0.
         23    2    4    4    0    0  0.11414343019E+03  0.44003875355E+03  0.42544226114E+03  0.62869789473E+03  0.87161333147E+02 0.  0.
          2    1    3    3  502    0 -0.74877204982E+03 -0.30802298892E+03  0.96935541534E+03  0.12630073893E+04  0.00000000000E+00 0. -1.
         -1    1    3    3    0  502 -0.13127083302E+03 -0.54310211512E+02  0.22445736070E+03  0.26563647613E+03  0.00000000000E+00 0.  1.
         11    1    5    5    0    0  0.45998458806E+03 -0.79494358463E+02  0.66151343808E+02  0.47146704505E+03  0.00000000000E+00 0.  1.
        -11    1    5    5    0    0  0.30591486460E+03  0.17888053446E+01 -0.32641772340E+01  0.30593750843E+03  0.00000000000E+00 0. -1.
          3    1    6    6  503    0  0.22156800994E+02  0.77567014791E+02  0.12605245432E+03  0.14965556072E+03  0.00000000000E+00 0. -1.
         -3    1    6    6    0  503  0.91986629191E+02  0.36247173876E+03  0.29938980682E+03  0.47904233401E+03  0.00000000000E+00 0.  1.
<mgrwt>
<rscale>  0 0.24048147E+04</rscale>
<asrwt>0</asrwt>
<pdfrwt beam="1">  1        2 0.35514527E+00 0.24048147E+04</pdfrwt>
<pdfrwt beam="2">  1       -3 0.96354164E-01 0.24048147E+04</pdfrwt>
<totfact> 0.24531329E+00</totfact>
</mgrwt>
</event>
<event>
12    6  0.1553355E-007  0.1539773E+04  0.7818608E-02  0.8858427E-01
         -1   -1    0    0    0  501 -0.00000000000E+00  0.00000000000E+00  0.26293336122E+03  0.26293336122E+03  0.00000000000E+00 0.  1.
          2   -1    0    0  501    0  0.00000000000E+00 -0.00000000000E+00 -0.22542792565E+04  0.22542792565E+04  0.00000000000E+00 0. -1.
         24    2    1    2    0    0  0.25603657277E+02 -0.48043476531E+03 -0.57376502936E+03  0.75303614211E+03  0.79900008936E+02 0.  0.
        254    2    1    2    0    0 -0.25603657277E+02  0.48043476531E+03 -0.14175808659E+04  0.17641764756E+04  0.93343988274E+03 0.  0.
         23    2    4    4    0    0  0.18306921630E+03  0.56430519286E+03 -0.40716093075E+03  0.72513286792E+03  0.89905305556E+02 0.  0.
         23    2    4    4    0    0 -0.20867287358E+03 -0.83870427549E+02 -0.10104199352E+04  0.10390436077E+04  0.89914161883E+02 0.  0.
          4    1    3    3  502    0  0.13432769897E+02 -0.24706265723E+03 -0.35651303459E+03  0.43396075829E+03  0.00000000000E+00 0. -1.
         -3    1    3    3    0  502  0.12170887380E+02 -0.23337210808E+03 -0.21725199477E+03  0.31907538383E+03  0.00000000000E+00 0.  1.
         11    1    5    5    0    0  0.15184662339E+03  0.35486982215E+03 -0.23219498379E+03  0.45044921823E+03  0.00000000000E+00 0. -1.
        -11    1    5    5    0    0  0.31222592908E+02  0.20943537071E+03 -0.17496594695E+03  0.27468364969E+03  0.00000000000E+00 0.  1.
          3    1    6    6  503    0 -0.60854428513E+02 -0.12756385642E+02 -0.47521164605E+03  0.47926203208E+03  0.00000000000E+00 0. -1.
         -3    1    6    6    0  503 -0.14781844507E+03 -0.71114041907E+02 -0.53520828911E+03  0.55978157561E+03  0.00000000000E+00 0.  1.
<mgrwt>
<rscale>  0 0.15397730E+04</rscale>
<asrwt>0</asrwt>
<pdfrwt beam="1">  1        2 0.34681221E+00 0.15397730E+04</pdfrwt>
<pdfrwt beam="2">  1       -1 0.40451284E-01 0.15397730E+04</pdfrwt>
<totfact> 0.31539974E+01</totfact>
</mgrwt>
</event>
<event>
12    6  0.1553355E-007  0.2014849E+04  0.7818608E-02  0.8599709E-01
          2   -1    0    0  501    0  0.00000000000E+00  0.00000000000E+00  0.13257671653E+04  0.13257671653E+04  0.00000000000E+00 0. -1.
         -1   -1    0    0    0  501 -0.00000000000E+00 -0.00000000000E+00 -0.76552230744E+03  0.76552230744E+03  0.00000000000E+00 0.  1.
         24    2    1    2    0    0 -0.63172453040E+03  0.13013143330E+03  0.75713745620E+03  0.99845269418E+03  0.87410426675E+02 0.  0.
        254    2    1    2    0    0  0.63172453040E+03 -0.13013143330E+03 -0.19689259833E+03  0.10928367786E+04  0.85995084574E+03 0.  0.
         23    2    4    4    0    0  0.28230666501E+03 -0.38721186263E+03 -0.37519413740E+03  0.61493622637E+03  0.88010465840E+02 0.  0.
         23    2    4    4    0    0  0.34941786539E+03  0.25708042933E+03  0.17830153907E+03  0.47790055220E+03  0.91729532651E+02 0.  0.
          4    1    3    3  502    0 -0.29545650427E+03  0.10535630936E+03  0.36043487904E+03  0.47781565469E+03  0.00000000000E+00 0. -1.
         -3    1    3    3    0  502 -0.33626802613E+03  0.24775123936E+02  0.39670257716E+03  0.52063703949E+03  0.00000000000E+00 0.  1.
         11    1    5    5    0    0  0.17757228650E+02 -0.75109501644E+02 -0.73640490723E+02  0.10667557490E+03  0.00000000000E+00 0.  1.
        -11    1    5    5    0    0  0.26454943636E+03 -0.31210236098E+03 -0.30155364668E+03  0.50826065147E+03  0.00000000000E+00 0. -1.
          3    1    6    6  503    0  0.32959082776E+03  0.25494911893E+03  0.18626879593E+03  0.45642658920E+03  0.00000000000E+00 0. -1.
         -3    1    6    6    0  503  0.19827037631E+02  0.21313103954E+01 -0.79672568598E+01  0.21473963004E+02  0.00000000000E+00 0.  1.
<mgrwt>
<rscale>  0 0.20148492E+04</rscale>
<asrwt>0</asrwt>
<pdfrwt beam="1">  1        2 0.20396418E+00 0.20148492E+04</pdfrwt>
<pdfrwt beam="2">  1       -1 0.11777266E+00 0.20148492E+04</pdfrwt>
<totfact> 0.10947225E+01</totfact>
</mgrwt>
</event>
<event>
12    6  0.1553355E-007  0.2319254E+04  0.7818608E-02  0.8470368E-01
         -1   -1    0    0    0  501 -0.00000000000E+00  0.00000000000E+00  0.63461926754E+03  0.63461926754E+03  0.00000000000E+00 0.  1.
          2   -1    0    0  501    0  0.00000000000E+00 -0.00000000000E+00 -0.21189625129E+04  0.21189625129E+04  0.00000000000E+00 0. -1.
         24    2    1    2    0    0  0.47449722164E+03 -0.83681490764E+03 -0.88387845070E+03  0.13088014303E+04  0.79456059337E+02 0.  0.
        254    2    1    2    0    0 -0.47449722164E+03  0.83681490764E+03 -0.60046479468E+03  0.14447803501E+04  0.89522370809E+03 0.  0.
         23    2    4    4    0    0  0.96852089866E+02 -0.29182490035E+02 -0.34358232258E+03  0.37210477876E+03  0.10090197692E+03 0.  0.
         23    2    4    4    0    0 -0.57134931151E+03  0.86599739767E+03 -0.25688247209E+03  0.10726755714E+04  0.90844639000E+02 0.  0.
          4    1    3    3  502    0  0.19026722864E+03 -0.39170475835E+03 -0.43786241453E+03  0.61754168286E+03  0.00000000000E+00 0. -1.
         -3    1    3    3    0  502  0.28422999300E+03 -0.44511014929E+03 -0.44601603617E+03  0.69125974744E+03  0.00000000000E+00 0.  1.
         11    1    5    5    0    0  0.79539273179E+02  0.26670581608E+02 -0.21767106730E+03  0.23327775170E+03  0.00000000000E+00 0.  1.
        -11    1    5    5    0    0  0.17312816688E+02 -0.55853071642E+02 -0.12591125529E+03  0.13882702706E+03  0.00000000000E+00 0. -1.
          2    1    6    6  503    0 -0.54097905540E+03  0.79764965031E+03 -0.21703338433E+03  0.98793056079E+03  0.00000000000E+00 0. -1.
         -2    1    6    6    0  503 -0.30370256107E+02  0.68347747362E+02 -0.39849087758E+02  0.84745010594E+02  0.00000000000E+00 0.  1.
<mgrwt>
<rscale>  0 0.23192537E+04</rscale>
<asrwt>0</asrwt>
<pdfrwt beam="1">  1        2 0.32599423E+00 0.23192537E+04</pdfrwt>
<pdfrwt beam="2">  1       -1 0.97633734E-01 0.23192537E+04</pdfrwt>
<totfact> 0.59447951E+00</totfact>
</mgrwt>
</event>
<event>
12    6  0.1553355E-007  0.2301283E+04  0.7818608E-02  0.8477415E-01
          2   -1    0    0  501    0  0.00000000000E+00  0.00000000000E+00  0.13181008781E+04  0.13181008781E+04  0.00000000000E+00 0. -1.
         -1   -1    0    0    0  501 -0.00000000000E+00 -0.00000000000E+00 -0.10044571233E+04  0.10044571233E+04  0.00000000000E+00 0.  1.
         24    2    1    2    0    0  0.38239041693E+03 -0.66013546139E+03 -0.48961181016E+03  0.91001387116E+03  0.80026637558E+02 0.  0.
        254    2    1    2    0    0 -0.38239041693E+03  0.66013546139E+03  0.80325556500E+03  0.14125441303E+04  0.87639041465E+03 0.  0.
         23    2    4    4    0    0 -0.28773710211E+03  0.85777167888E+03  0.72452903000E+03  0.11626791225E+04  0.91189547342E+02 0.  0.
         23    2    4    4    0    0 -0.94653314815E+02 -0.19763621749E+03  0.78726535001E+02  0.24986500777E+03  0.90638459422E+02 0.  0.
          4    1    3    3  502    0  0.69778989688E+02 -0.13271654634E+03 -0.60641467059E+02  0.16174107889E+03  0.00000000000E+00 0. -1.
         -3    1    3    3    0  502  0.31261142724E+03 -0.52741891506E+03 -0.42897034310E+03  0.74827279228E+03  0.00000000000E+00 0.  1.
         11    1    5    5    0    0 -0.49674860431E+02  0.27299180951E+03  0.23864939373E+03  0.36598586441E+03  0.00000000000E+00 0.  1.
        -11    1    5    5    0    0 -0.23806224168E+03  0.58477986937E+03  0.48587963627E+03  0.79669325808E+03  0.00000000000E+00 0. -1.
          2    1    6    6  503    0 -0.36783759651E+02 -0.11049893888E+03  0.86355883551E+02  0.14498413393E+03  0.00000000000E+00 0. -1.
         -2    1    6    6    0  503 -0.57869555164E+02 -0.87137278611E+02 -0.76293485502E+01  0.10488087384E+03  0.00000000000E+00 0.  1.
<mgrwt>
<rscale>  0 0.23012830E+04</rscale>
<asrwt>0</asrwt>
<pdfrwt beam="1">  1        2 0.20278475E+00 0.23012830E+04</pdfrwt>
<pdfrwt beam="2">  1       -1 0.15453186E+00 0.23012830E+04</pdfrwt>
<totfact> 0.53638334E+00</totfact>
</mgrwt>
</event>
<event>
12    6  0.1553355E-007  0.1594623E+04  0.7818608E-02  0.8823858E-01
         -1   -1    0    0    0  501 -0.00000000000E+00  0.00000000000E+00  0.95104140779E+03  0.95104140779E+03  0.00000000000E+00 0.  1.
          2   -1    0    0  501    0  0.00000000000E+00 -0.00000000000E+00 -0.66843115424E+03  0.66843115424E+03  0.00000000000E+00 0. -1.
         24    2    1    2    0    0  0.48097590582E+03  0.18715712622E+03 -0.16902595691E+03  0.54893021177E+03  0.79931166679E+02 0.  0.
        254    2    1    2    0    0 -0.48097590582E+03 -0.18715712622E+03  0.45163621046E+03  0.10705423503E+04  0.82202192502E+03 0.  0.
         23    2    4    4    0    0 -0.79537888622E+02  0.17584254038E+03  0.47432462551E+03  0.52051805602E+03  0.93318388044E+02 0.  0.
         23    2    4    4    0    0 -0.40143801720E+03 -0.36299966660E+03 -0.22688415049E+02  0.55002429424E+03  0.95345269750E+02 0.  0.
          2    1    3    3  502    0  0.17855414244E+03  0.60868578305E+02 -0.10185891501E+03  0.21438704292E+03  0.00000000000E+00 0. -1.
         -1    1    3    3    0  502  0.30242176339E+03  0.12628854792E+03 -0.67167041898E+02  0.33454316885E+03  0.00000000000E+00 0.  1.
         11    1    5    5    0    0 -0.23132046884E+02  0.96786018753E+02  0.13592365455E+03  0.16845730879E+03  0.00000000000E+00 0. -1.
        -11    1    5    5    0    0 -0.56405841738E+02  0.79056521625E+02  0.33840097096E+03  0.35206074723E+03  0.00000000000E+00 0.  1.
          4    1    6    6  503    0 -0.30319779402E+03 -0.29100059109E+03  0.20617182900E+02  0.42075564707E+03  0.00000000000E+00 0. -1.
         -4    1    6    6    0  503 -0.98240223183E+02 -0.71999075513E+02 -0.43305597950E+02  0.12926864716E+03  0.00000000000E+00 0.  1.
<mgrwt>
<rscale>  0 0.15946231E+04</rscale>
<asrwt>0</asrwt>
<pdfrwt beam="1">  1        2 0.10283556E+00 0.15946231E+04</pdfrwt>
<pdfrwt beam="2">  1       -1 0.14631406E+00 0.15946231E+04</pdfrwt>
<totfact> 0.17750487E+01</totfact>
</mgrwt>
</event>
<event>
12    6  0.1553355E-007  0.2554421E+04  0.7818608E-02  0.8383850E-01
         -1   -1    0    0    0  501 -0.00000000000E+00  0.00000000000E+00  0.12358183981E+04  0.12358183981E+04  0.00000000000E+00 0.  1.
          2   -1    0    0  501    0  0.00000000000E+00 -0.00000000000E+00 -0.13199885166E+04  0.13199885166E+04  0.00000000000E+00 0. -1.
         24    2    1    2    0    0 -0.39202954640E+03 -0.64427122731E+03  0.79008189690E+03  0.10952080031E+04  0.80489667724E+02 0.  0.
        254    2    1    2    0    0  0.39202954640E+03  0.64427122731E+03 -0.87425201534E+03  0.14605989116E+04  0.89457253179E+03 0.  0.
         23    2    4    4    0    0  0.97330881197E+02 -0.12782210979E+03  0.74716165474E+02  0.19916900077E+03  0.90961493497E+02 0.  0.
         23    2    4    4    0    0  0.29469866520E+03  0.77209333710E+03 -0.94896818082E+03  0.12614299108E+04  0.87689151274E+02 0.  0.
          4    1    3    3  502    0 -0.11048261087E+02 -0.49953340014E+02  0.38143036038E+02  0.63814508145E+02  0.00000000000E+00 0. -1.
         -3    1    3    3    0  502 -0.38098128531E+03 -0.59431788730E+03  0.75193886086E+03  0.10313934949E+04  0.00000000000E+00 0.  1.
         11    1    5    5    0    0  0.61282403500E+02 -0.16423833798E+02  0.67924219613E+01  0.63807619384E+02  0.00000000000E+00 0.  1.
        -11    1    5    5    0    0  0.36048477697E+02 -0.11139827599E+03  0.67923743513E+02  0.13536138139E+03  0.00000000000E+00 0. -1.
          4    1    6    6  503    0  0.25737025696E+03  0.72052248987E+03 -0.89895654609E+03  0.11804723543E+04  0.00000000000E+00 0. -1.
         -4    1    6    6    0  503  0.37328408234E+02  0.51570847239E+02 -0.50011634730E+02  0.80957556501E+02  0.00000000000E+00 0.  1.
<mgrwt>
<rscale>  0 0.25544206E+04</rscale>
<asrwt>0</asrwt>
<pdfrwt beam="1">  1        2 0.20307515E+00 0.25544206E+04</pdfrwt>
<pdfrwt beam="2">  1       -1 0.19012591E+00 0.25544206E+04</pdfrwt>
<totfact> 0.28711163E+00</totfact>
</mgrwt>
</event>
<event>
12    6  0.1553355E-007  0.1372699E+04  0.7818608E-02  0.8973821E-01
          2   -1    0    0  501    0  0.00000000000E+00  0.00000000000E+00  0.28632405522E+04  0.28632405522E+04  0.00000000000E+00 0. -1.
         -3   -1    0    0    0  501 -0.00000000000E+00 -0.00000000000E+00 -0.16452534868E+03  0.16452534868E+03  0.00000000000E+00 0.  1.
         24    2    1    2    0    0 -0.16299467527E+03 -0.33546914850E+03  0.98113809123E+03  0.10526568638E+04  0.79672486006E+02 0.  0.
        254    2    1    2    0    0  0.16299467527E+03  0.33546914850E+03  0.17175771123E+04  0.19751090371E+04  0.90104259500E+03 0.  0.
         23    2    4    4    0    0 -0.18576989872E+03 -0.22541895461E+03  0.60382626063E+03  0.67706572901E+03  0.92128649183E+02 0.  0.
         23    2    4    4    0    0  0.34876457399E+03  0.56088810312E+03  0.11137508516E+04  0.12980433081E+04  0.90792498751E+02 0.  0.
          2    1    3    3  502    0 -0.14981553458E+03 -0.33571115272E+03  0.95650551760E+03  0.10247192189E+04  0.00000000000E+00 0. -1.
         -1    1    3    3    0  502 -0.13179140692E+02  0.24200421522E+00  0.24632573622E+02  0.27937644830E+02  0.00000000000E+00 0.  1.
         11    1    5    5    0    0 -0.57391982977E+02 -0.13318765143E+03  0.33784285204E+03  0.36765552203E+03  0.00000000000E+00 0.  1.
        -11    1    5    5    0    0 -0.12837791574E+03 -0.92231303179E+02  0.26598340859E+03  0.30941020698E+03  0.00000000000E+00 0. -1.
          1    1    6    6  503    0  0.34637569444E+03  0.56427758772E+03  0.11023115351E+04  0.12858755920E+04  0.00000000000E+00 0. -1.
         -1    1    6    6    0  503  0.23888795445E+01 -0.33894846076E+01  0.11439316565E+02  0.12167716090E+02  0.00000000000E+00 0.  1.
<mgrwt>
<rscale>  0 0.13726990E+04</rscale>
<asrwt>0</asrwt>
<pdfrwt beam="1">  1        2 0.44049851E+00 0.13726990E+04</pdfrwt>
<pdfrwt beam="2">  1       -3 0.25311594E-01 0.13726990E+04</pdfrwt>
<totfact> 0.20200633E+01</totfact>
</mgrwt>
</event>
<event>
12    6  0.1553355E-007  0.2836467E+04  0.7818608E-02  0.8292035E-01
          2   -1    0    0  501    0  0.00000000000E+00  0.00000000000E+00  0.20369398967E+04  0.20369398967E+04  0.00000000000E+00 0. -1.
         -1   -1    0    0    0  501 -0.00000000000E+00 -0.00000000000E+00 -0.98745510647E+03  0.98745510647E+03  0.00000000000E+00 0.  1.
         24    2    1    2    0    0 -0.24490805021E+03 -0.10324357410E+04  0.12254044260E+04  0.16229732843E+04  0.80763618606E+02 0.  0.
        254    2    1    2    0    0  0.24490805021E+03  0.10324357410E+04 -0.17591963577E+03  0.14014217188E+04  0.89840503306E+03 0.  0.
         23    2    4    4    0    0  0.41499287967E+03  0.91385776551E+03 -0.39725816272E+03  0.10843235685E+04  0.10290018260E+03 0.  0.
         23    2    4    4    0    0 -0.17008482946E+03  0.11857797547E+03  0.22133852695E+03  0.31709815033E+03  0.92579198257E+02 0.  0.
          4    1    3    3  502    0 -0.21511745992E+03 -0.84148954434E+03  0.95901130086E+03  0.12938635361E+04  0.00000000000E+00 0. -1.
         -3    1    3    3    0  502 -0.29790590285E+02 -0.19094619664E+03  0.26639312510E+03  0.32910974823E+03  0.00000000000E+00 0.  1.
         11    1    5    5    0    0  0.16308497729E+03  0.47824693693E+03 -0.18304939492E+03  0.53742341173E+03  0.00000000000E+00 0. -1.
        -11    1    5    5    0    0  0.25190790238E+03  0.43561082858E+03 -0.21420876780E+03  0.54690015676E+03  0.00000000000E+00 0.  1.
          2    1    6    6  503    0  0.11205089381E+02  0.12709010180E+02  0.20077692861E+02  0.26271404957E+02  0.00000000000E+00 0. -1.
         -2    1    6    6    0  503 -0.18128991884E+03  0.10586896529E+03  0.20126083409E+03  0.29082674538E+03  0.00000000000E+00 0.  1.
<mgrwt>
<rscale>  0 0.28364673E+04</rscale>
<asrwt>0</asrwt>
<pdfrwt beam="1">  1        2 0.31337537E+00 0.28364673E+04</pdfrwt>
<pdfrwt beam="2">  1       -1 0.15191617E+00 0.28364673E+04</pdfrwt>
<totfact> 0.21198736E+00</totfact>
</mgrwt>
</event>
<event>
12    6  0.1553355E-007  0.2071128E+04  0.7818608E-02  0.8574070E-01
         -1   -1    0    0    0  501 -0.00000000000E+00  0.00000000000E+00  0.50823278951E+03  0.50823278951E+03  0.00000000000E+00 0.  1.
          2   -1    0    0  501    0  0.00000000000E+00 -0.00000000000E+00 -0.21100415259E+04  0.21100415259E+04  0.00000000000E+00 0. -1.
         24    2    1    2    0    0  0.75524962201E+03  0.25890326622E+03 -0.94171472862E+03  0.12373111927E+04  0.81727991512E+02 0.  0.
        254    2    1    2    0    0 -0.75524962201E+03 -0.25890326622E+03 -0.66009400775E+03  0.13809631227E+04  0.91318243219E+03 0.  0.
         23    2    4    4    0    0 -0.26245431470E+03  0.40199114471E+02 -0.74098955080E+03  0.79228077719E+03  0.90250093615E+02 0.  0.
         23    2    4    4    0    0 -0.49279530731E+03 -0.29910238069E+03  0.80895543051E+02  0.58868234554E+03  0.87711835130E+02 0.  0.
          4    1    3    3  502    0  0.54262601832E+03  0.22352356119E+03 -0.69954744865E+03  0.91311139029E+03  0.00000000000E+00 0. -1.
         -3    1    3    3    0  502  0.21262360369E+03  0.35379705032E+02 -0.24216727997E+03  0.32419980238E+03  0.00000000000E+00 0.  1.
         11    1    5    5    0    0 -0.40143302949E+02 -0.76816503048E+01 -0.22086865070E+03  0.22461846181E+03  0.00000000000E+00 0.  1.
        -11    1    5    5    0    0 -0.22231101175E+03  0.47880764776E+02 -0.52012090010E+03  0.56766231538E+03  0.00000000000E+00 0. -1.
          4    1    6    6  503    0 -0.48264480062E+03 -0.29567804327E+03  0.91784481886E+02  0.57340727232E+03  0.00000000000E+00 0. -1.
         -4    1    6    6    0  503 -0.10150506697E+02 -0.34243374210E+01 -0.10888938835E+02  0.15275073222E+02  0.00000000000E+00 0.  1.
<mgrwt>
<rscale>  0 0.20711275E+04</rscale>
<asrwt>0</asrwt>
<pdfrwt beam="1">  1        2 0.32462177E+00 0.20711275E+04</pdfrwt>
<pdfrwt beam="2">  1       -1 0.78189660E-01 0.20711275E+04</pdfrwt>
<totfact> 0.99882049E+00</totfact>
</mgrwt>
</event>
<event>
12    6  0.1553355E-007  0.1561470E+04  0.7818608E-02  0.8844575E-01
         -1   -1    0    0    0  501 -0.00000000000E+00  0.00000000000E+00  0.13681575341E+04  0.13681575341E+04  0.00000000000E+00 0.  1.
          2   -1    0    0  501    0  0.00000000000E+00 -0.00000000000E+00 -0.44552381997E+03  0.44552381997E+03  0.00000000000E+00 0. -1.
         24    2    1    2    0    0 -0.29279254888E+03  0.52953467937E+02 -0.18299491881E+03  0.35821360511E+03  0.79361830446E+02 0.  0.
        254    2    1    2    0    0  0.29279254888E+03 -0.52953467937E+02  0.11056286329E+04  0.14554677489E+04  0.89857673450E+03 0.  0.
         23    2    4    4    0    0  0.56537383765E+03 -0.21386542603E+03  0.79177547530E+03  0.10003302121E+04  0.91466568211E+02 0.  0.
         23    2    4    4    0    0 -0.27258128877E+03  0.16091195809E+03  0.31385315760E+03  0.45513753686E+03  0.91941044563E+02 0.  0.
          2    1    3    3  502    0 -0.13718716987E+03  0.50443740190E+02 -0.53139225864E+02  0.15552706461E+03  0.00000000000E+00 0. -1.
         -1    1    3    3    0  502 -0.15560537901E+03  0.25097277475E+01 -0.12985569295E+03  0.20268654050E+03  0.00000000000E+00 0.  1.
         11    1    5    5    0    0  0.56571403775E+03 -0.21854839399E+03  0.78767525388E+03  0.99409661431E+03  0.00000000000E+00 0. -1.
        -11    1    5    5    0    0 -0.34020009304E+00  0.46829679613E+01  0.41002214249E+01  0.62335977383E+01  0.00000000000E+00 0.  1.
          1    1    6    6  503    0 -0.22484365828E+03  0.16889866043E+03  0.26760504978E+03  0.38819311023E+03  0.00000000000E+00 0. -1.
         -1    1    6    6    0  503 -0.47737630490E+02 -0.79867023387E+01  0.46248107819E+02  0.66944426623E+02  0.00000000000E+00 0.  1.
<mgrwt>
<rscale>  0 0.15614695E+04</rscale>
<asrwt>0</asrwt>
<pdfrwt beam="1">  1        2 0.68542127E-01 0.15614695E+04</pdfrwt>
<pdfrwt beam="2">  1       -1 0.21048577E+00 0.15614695E+04</pdfrwt>
<totfact> 0.98701341E+00</totfact>
</mgrwt>
</event>
<event>
12    6  0.1553355E-007  0.1656607E+04  0.7818608E-02  0.8786507E-01
         -1   -1    0    0    0  501 -0.00000000000E+00  0.00000000000E+00  0.13116825232E+04  0.13116825232E+04  0.00000000000E+00 0.  1.
          2   -1    0    0  501    0  0.00000000000E+00 -0.00000000000E+00 -0.52305874147E+03  0.52305874147E+03  0.00000000000E+00 0. -1.
         24    2    1    2    0    0  0.16160308632E+03  0.26782388043E+03  0.81645957994E+03  0.87802109495E+03  0.80433880129E+02 0.  0.
        254    2    1    2    0    0 -0.16160308632E+03 -0.26782388043E+03 -0.27835798246E+02  0.95672016968E+03  0.90371093994E+03 0.  0.
         23    2    4    4    0    0 -0.18686814080E+03  0.14026466194E+03  0.32389378999E+03  0.40963209003E+03  0.91089980519E+02 0.  0.
         23    2    4    4    0    0  0.25265054485E+02 -0.40808854237E+03 -0.35172958823E+03  0.54708807965E+03  0.91744657977E+02 0.  0.
          2    1    3    3  502    0  0.69763908637E+02  0.93797557485E+02  0.20879613669E+03  0.23929231378E+03  0.00000000000E+00 0. -1.
         -1    1    3    3    0  502  0.91839177679E+02  0.17402632295E+03  0.60766344325E+03  0.63872878118E+03  0.00000000000E+00 0.  1.
         11    1    5    5    0    0 -0.17706495754E+03  0.14605244775E+03  0.26920985330E+03  0.35377572245E+03  0.00000000000E+00 0. -1.
        -11    1    5    5    0    0 -0.98031832571E+01 -0.57877858104E+01  0.54683936693E+02  0.55856367576E+02  0.00000000000E+00 0.  1.
          1    1    6    6  503    0  0.26968272895E+02 -0.12533658388E+03 -0.16192367411E+03  0.20653286237E+03  0.00000000000E+00 0. -1.
         -1    1    6    6    0  503 -0.17032184109E+01 -0.28275195849E+03 -0.18980591413E+03  0.34055521728E+03  0.00000000000E+00 0.  1.
<mgrwt>
<rscale>  0 0.16566074E+04</rscale>
<asrwt>0</asrwt>
<pdfrwt beam="1">  1        2 0.80470576E-01 0.16566074E+04</pdfrwt>
<pdfrwt beam="2">  1       -1 0.20179731E+00 0.16566074E+04</pdfrwt>
<totfact> 0.93221209E+00</totfact>
</mgrwt>
</event>
<event>
12    6  0.1553355E-007  0.2197752E+04  0.7818608E-02  0.8519365E-01
          2   -1    0    0  501    0  0.00000000000E+00  0.00000000000E+00  0.13024408985E+04  0.13024408985E+04  0.00000000000E+00 0. -1.
         -1   -1    0    0    0  501 -0.00000000000E+00 -0.00000000000E+00 -0.92712685902E+03  0.92712685902E+03  0.00000000000E+00 0.  1.
         24    2    1    2    0    0 -0.75512133183E+02 -0.10729957006E+03 -0.75867866469E+03  0.77400036079E+03  0.79170463246E+02 0.  0.
        254    2    1    2    0    0  0.75512133183E+02  0.10729957006E+03  0.11339927041E+04  0.14555673967E+04  0.90306240832E+03 0.  0.
         23    2    4    4    0    0  0.18490613184E+02  0.11030581849E+03 -0.12591317342E+03  0.19104787912E+03  0.90199160217E+02 0.  0.
         23    2    4    4    0    0  0.57021519998E+02 -0.30062484279E+01  0.12599058776E+04  0.12645195176E+04  0.91576737157E+02 0.  0.
          2    1    3    3  502    0  0.11820355420E+01 -0.46022665931E+02 -0.38103175495E+03  0.38380291982E+03  0.00000000000E+00 0. -1.
         -1    1    3    3    0  502 -0.76694168725E+02 -0.61276904133E+02 -0.37764690974E+03  0.39019744096E+03  0.00000000000E+00 0.  1.
         11    1    5    5    0    0  0.40209240424E+02  0.11367578217E+03 -0.11450933332E+03  0.16628696246E+03  0.00000000000E+00 0.  1.
        -11    1    5    5    0    0 -0.21718627239E+02 -0.33699636807E+01 -0.11403840107E+02  0.24760916654E+02  0.00000000000E+00 0. -1.
          2    1    6    6  503    0 -0.24818225342E+02  0.47077741772E+01  0.34835577336E+03  0.34927045721E+03  0.00000000000E+00 0. -1.
         -2    1    6    6    0  503  0.81839745340E+02 -0.77140226051E+01  0.91155010419E+03  0.91524906037E+03  0.00000000000E+00 0.  1.
<mgrwt>
<rscale>  0 0.21977515E+04</rscale>
<asrwt>0</asrwt>
<pdfrwt beam="1">  1        2 0.20037552E+00 0.21977515E+04</pdfrwt>
<pdfrwt beam="2">  1       -1 0.14263490E+00 0.21977515E+04</pdfrwt>
<totfact> 0.68523940E+00</totfact>
</mgrwt>
</event>
<event>
12    6  0.1553355E-007  0.1816498E+04  0.7818608E-02  0.8697575E-01
         -1   -1    0    0    0  501 -0.00000000000E+00  0.00000000000E+00  0.44129364497E+03  0.44129364497E+03  0.00000000000E+00 0.  1.
          2   -1    0    0  501    0  0.00000000000E+00 -0.00000000000E+00 -0.18693139449E+04  0.18693139449E+04  0.00000000000E+00 0. -1.
         24    2    1    2    0    0 -0.53739856646E+03  0.14262763514E+03 -0.10430582354E+04  0.11845940219E+04  0.78438847015E+02 0.  0.
        254    2    1    2    0    0  0.53739856646E+03 -0.14262763514E+03 -0.38496206459E+03  0.11260135680E+04  0.90031711229E+03 0.  0.
         23    2    4    4    0    0 -0.65969406922E+02  0.28934458504E+03 -0.10492300512E+03  0.32764390927E+03  0.90936476376E+02 0.  0.
         23    2    4    4    0    0  0.60336797339E+03 -0.43197222019E+03 -0.28003905947E+03  0.79836965877E+03  0.91210344200E+02 0.  0.
          4    1    3    3  502    0 -0.36662249494E+03  0.12415480981E+03 -0.66734415502E+03  0.77147565862E+03  0.00000000000E+00 0. -1.
         -3    1    3    3    0  502 -0.17077607152E+03  0.18472825331E+02 -0.37571408036E+03  0.41311836326E+03  0.00000000000E+00 0.  1.
         11    1    5    5    0    0 -0.84521966663E+02  0.21936100043E+03 -0.98751039955E+02  0.25498035071E+03  0.00000000000E+00 0.  1.
        -11    1    5    5    0    0  0.18552559741E+02  0.69983584617E+02 -0.61719651691E+01  0.72663558561E+02  0.00000000000E+00 0. -1.
          1    1    6    6  503    0  0.44530144490E+02 -0.60133033076E+01 -0.14803934669E+02  0.47310147607E+02  0.00000000000E+00 0. -1.
         -1    1    6    6    0  503  0.55883782890E+03 -0.42595891688E+03 -0.26523512480E+03  0.75105951116E+03  0.00000000000E+00 0.  1.
<mgrwt>
<rscale>  0 0.18164981E+04</rscale>
<asrwt>0</asrwt>
<pdfrwt beam="1">  1        2 0.28758676E+00 0.18164981E+04</pdfrwt>
<pdfrwt beam="2">  1       -1 0.67891330E-01 0.18164981E+04</pdfrwt>
<totfact> 0.18627000E+01</totfact>
</mgrwt>
</event>
<event>
12    6  0.1553355E-007  0.1547232E+04  0.7818608E-02  0.8853638E-01
         -1   -1    0    0    0  501 -0.00000000000E+00  0.00000000000E+00  0.23425262412E+03  0.23425262412E+03  0.00000000000E+00 0.  1.
          2   -1    0    0  501    0  0.00000000000E+00 -0.00000000000E+00 -0.25548568980E+04  0.25548568980E+04  0.00000000000E+00 0. -1.
         24    2    1    2    0    0  0.63203115481E+02 -0.97370190434E+01 -0.16776476772E+04  0.16807922238E+04  0.80444560848E+02 0.  0.
        254    2    1    2    0    0 -0.63203115481E+02  0.97370190434E+01 -0.64295659667E+03  0.11083172983E+04  0.90049131324E+03 0.  0.
         23    2    4    4    0    0  0.50406460450E+02  0.15342351469E+02  0.21417815136E+03  0.23852669329E+03  0.90810263114E+02 0.  0.
         23    2    4    4    0    0 -0.11360957593E+03 -0.56053324257E+01 -0.85713474803E+03  0.86979060504E+03  0.94430740981E+02 0.  0.
          2    1    3    3  502    0  0.38953196438E+02 -0.28307561780E+01 -0.15592698819E+04  0.15597589331E+04  0.00000000000E+00 0. -1.
         -1    1    3    3    0  502  0.24249919043E+02 -0.69062628655E+01 -0.11837779524E+03  0.12103329065E+03  0.00000000000E+00 0.  1.
         11    1    5    5    0    0  0.69300264415E+02 -0.12720815315E+02  0.13131253047E+03  0.14902122818E+03  0.00000000000E+00 0. -1.
        -11    1    5    5    0    0 -0.18893803965E+02  0.28063166784E+02  0.82865620895E+02  0.89505465110E+02  0.00000000000E+00 0.  1.
          2    1    6    6  503    0 -0.95030197833E+02  0.59106290103E+01 -0.36639765176E+03  0.37856692044E+03  0.00000000000E+00 0. -1.
         -2    1    6    6    0  503 -0.18579378098E+02 -0.11515961436E+02 -0.49073709627E+03  0.49122368460E+03  0.00000000000E+00 0.  1.
<mgrwt>
<rscale>  0 0.15472323E+04</rscale>
<asrwt>0</asrwt>
<pdfrwt beam="1">  1        2 0.39305489E+00 0.15472323E+04</pdfrwt>
<pdfrwt beam="2">  1       -1 0.36038867E-01 0.15472323E+04</pdfrwt>
<totfact> 0.26180740E+01</totfact>
</mgrwt>
</event>
<event>
12    6  0.1553355E-007  0.1441320E+04  0.7818608E-02  0.8924440E-01
         -1   -1    0    0    0  501 -0.00000000000E+00  0.00000000000E+00  0.31012488699E+03  0.31012488699E+03  0.00000000000E+00 0.  1.
          2   -1    0    0  501    0  0.00000000000E+00 -0.00000000000E+00 -0.16746512926E+04  0.16746512926E+04  0.00000000000E+00 0. -1.
         24    2    1    2    0    0 -0.15273772553E+03  0.16389201230E+03 -0.92507219016E+03  0.95529890808E+03  0.81535527632E+02 0.  0.
        254    2    1    2    0    0  0.15273772553E+03 -0.16389201230E+03 -0.43945421546E+03  0.10294772715E+04  0.90361166471E+03 0.  0.
         23    2    4    4    0    0  0.28887975009E+03 -0.26356520803E+03 -0.63751584896E+03  0.75342009570E+03  0.91089264143E+02 0.  0.
         23    2    4    4    0    0 -0.13614202456E+03  0.99673195728E+02  0.19806163349E+03  0.27605717583E+03  0.92248343436E+02 0.  0.
          4    1    3    3  502    0 -0.14568714528E+03  0.16669652879E+03 -0.80207175491E+03  0.83206464715E+03  0.00000000000E+00 0. -1.
         -3    1    3    3    0  502 -0.70505802538E+01 -0.28045164880E+01 -0.12300043525E+03  0.12323426093E+03  0.00000000000E+00 0.  1.
         11    1    5    5    0    0  0.10569708710E+03 -0.66977148943E+02 -0.13847972226E+03  0.18663988368E+03  0.00000000000E+00 0.  1.
        -11    1    5    5    0    0  0.18318266299E+03 -0.19658805909E+03 -0.49903612669E+03  0.56678021202E+03  0.00000000000E+00 0. -1.
          3    1    6    6  503    0 -0.14820719806E+03  0.80889741903E+02  0.18372106401E+03  0.24952345233E+03  0.00000000000E+00 0. -1.
         -3    1    6    6    0  503  0.12065173507E+02  0.18783453825E+02  0.14340569479E+02  0.26533723492E+02  0.00000000000E+00 0.  1.
<mgrwt>
<rscale>  0 0.14413203E+04</rscale>
<asrwt>0</asrwt>
<pdfrwt beam="1">  1        2 0.25763866E+00 0.14413203E+04</pdfrwt>
<pdfrwt beam="2">  1       -1 0.47711520E-01 0.14413203E+04</pdfrwt>
<totfact> 0.49135805E+01</totfact>
</mgrwt>
</event>
<event>
12    6  0.1553355E-007  0.1591172E+04  0.7818608E-02  0.8825990E-01
          2   -1    0    0  501    0  0.00000000000E+00  0.00000000000E+00  0.16433989400E+04  0.16433989400E+04  0.00000000000E+00 0. -1.
         -1   -1    0    0    0  501 -0.00000000000E+00 -0.00000000000E+00 -0.38515098748E+03  0.38515098748E+03  0.00000000000E+00 0.  1.
         24    2    1    2    0    0  0.13081930552E+03  0.49039653546E+03  0.19498709196E+03  0.54956813842E+03  0.80016998512E+02 0.  0.
        254    2    1    2    0    0 -0.13081930552E+03 -0.49039653546E+03  0.10632608606E+04  0.14789817891E+04  0.89401399433E+03 0.  0.
         23    2    4    4    0    0 -0.41025334372E+02  0.25287739265E+03  0.25552189024E+03  0.37308355657E+03  0.90938715725E+02 0.  0.
         23    2    4    4    0    0 -0.89793971148E+02 -0.74327392811E+03  0.80773897033E+03  0.11058982325E+04  0.10024752844E+03 0.  0.
          2    1    3    3  502    0 -0.10599396587E+02  0.21481412329E+02  0.11219157238E+02  0.26451233862E+02  0.00000000000E+00 0. -1.
         -1    1    3    3    0  502  0.14141870211E+03  0.46891512313E+03  0.18376793472E+03  0.52311690456E+03  0.00000000000E+00 0.  1.
         11    1    5    5    0    0 -0.32012503300E+02  0.43482424480E+02  0.19435153059E+02  0.57386817133E+02  0.00000000000E+00 0. -1.
        -11    1    5    5    0    0 -0.90128310716E+01  0.20939496817E+03  0.23608673718E+03  0.31569673944E+03  0.00000000000E+00 0.  1.
          3    1    6    6  503    0  0.57368841747E+01 -0.23180310983E+02  0.72576182843E+01  0.24958198662E+02  0.00000000000E+00 0. -1.
         -3    1    6    6    0  503 -0.95530855323E+02 -0.72009361713E+03  0.80048135204E+03  0.10809400338E+04  0.00000000000E+00 0.  1.
<mgrwt>
<rscale>  0 0.15911715E+04</rscale>
<asrwt>0</asrwt>
<pdfrwt beam="1">  1        2 0.25283060E+00 0.15911715E+04</pdfrwt>
<pdfrwt beam="2">  1       -1 0.59253999E-01 0.15911715E+04</pdfrwt>
<totfact> 0.33284992E+01</totfact>
</mgrwt>
</event>
<event>
12    6  0.1553355E-007  0.2962432E+04  0.7818608E-02  0.8254541E-01
          2   -1    0    0  501    0  0.00000000000E+00  0.00000000000E+00  0.14809163671E+04  0.14809163671E+04  0.00000000000E+00 0. -1.
         -1   -1    0    0    0  501 -0.00000000000E+00 -0.00000000000E+00 -0.14815153223E+04  0.14815153223E+04  0.00000000000E+00 0.  1.
         24    2    1    2    0    0 -0.12257754142E+04  0.50501246653E+03 -0.22226026431E+03  0.13465898965E+04  0.79635210975E+02 0.  0.
        254    2    1    2    0    0  0.12257754142E+04 -0.50501246653E+03  0.22166130910E+03  0.16158417929E+04  0.89679875461E+03 0.  0.
         23    2    4    4    0    0  0.87330549918E+03  0.96286657870E+02  0.16387543120E+02  0.88351540980E+03  0.91636850688E+02 0.  0.
         23    2    4    4    0    0  0.35246991499E+03 -0.60129912440E+03  0.20527376598E+03  0.73232638306E+03  0.91481879898E+02 0.  0.
          4    1    3    3  502    0 -0.10200826420E+04  0.43475923163E+03 -0.15896748429E+03  0.11202030384E+04  0.00000000000E+00 0. -1.
         -3    1    3    3    0  502 -0.20569277213E+03  0.70253234898E+02 -0.63292780022E+02  0.22638685811E+03  0.00000000000E+00 0.  1.
         11    1    5    5    0    0  0.31620404297E+03  0.79330766058E+02  0.56647621574E+01  0.32605284352E+03  0.00000000000E+00 0. -1.
        -11    1    5    5    0    0  0.55710145621E+03  0.16955891812E+02  0.10722780963E+02  0.55746256628E+03  0.00000000000E+00 0.  1.
          3    1    6    6  503    0  0.21501973736E+03 -0.32873745060E+03  0.15814364249E+03  0.42345154451E+03  0.00000000000E+00 0. -1.
         -3    1    6    6    0  503  0.13745017763E+03 -0.27256167379E+03  0.47130123494E+02  0.30887483855E+03  0.00000000000E+00 0.  1.
<mgrwt>
<rscale>  0 0.29624316E+04</rscale>
<asrwt>0</asrwt>
<pdfrwt beam="1">  1        2 0.22783329E+00 0.29624316E+04</pdfrwt>
<pdfrwt beam="2">  1       -1 0.22792544E+00 0.29624316E+04</pdfrwt>
<totfact> 0.12397784E+00</totfact>
</mgrwt>
</event>
<event>
12    6  0.1553355E-007  0.1457493E+04  0.7818608E-02  0.8913222E-01
          2   -1    0    0  501    0  0.00000000000E+00  0.00000000000E+00  0.60840126758E+03  0.60840126758E+03  0.00000000000E+00 0. -1.
         -1   -1    0    0    0  501 -0.00000000000E+00 -0.00000000000E+00 -0.87289684404E+03  0.87289684404E+03  0.00000000000E+00 0.  1.
         24    2    1    2    0    0  0.39129023917E+03  0.17090490425E+03 -0.14531476964E+03  0.45793095998E+03  0.79169718126E+02 0.  0.
        254    2    1    2    0    0 -0.39129023917E+03 -0.17090490425E+03 -0.11918080682E+03  0.10233671516E+04  0.92236637231E+03 0.  0.
         23    2    4    4    0    0  0.15594405692E+02  0.34223203926E+03 -0.52506810139E+02  0.35859528203E+03  0.92019872831E+02 0.  0.
         23    2    4    4    0    0 -0.40688464486E+03 -0.51313694351E+03 -0.66673996681E+02  0.66477186961E+03  0.92798597925E+02 0.  0.
          4    1    3    3  502    0  0.37506802944E+02 -0.47287046396E+01 -0.23637706831E+01  0.37877543828E+02  0.00000000000E+00 0. -1.
         -3    1    3    3    0  502  0.35378343623E+03  0.17563360889E+03 -0.14295099896E+03  0.42005341615E+03  0.00000000000E+00 0.  1.
         11    1    5    5    0    0 -0.36401427001E+02  0.14468269868E+03 -0.37113426768E+02  0.15373858862E+03  0.00000000000E+00 0. -1.
        -11    1    5    5    0    0  0.51995832693E+02  0.19754934058E+03 -0.15393383371E+02  0.20485669340E+03  0.00000000000E+00 0.  1.
          1    1    6    6  503    0 -0.76832874929E+01 -0.37855027392E+02  0.84888109878E+01  0.39548652538E+02  0.00000000000E+00 0. -1.
         -1    1    6    6    0  503 -0.39920135737E+03 -0.47528191612E+03 -0.75162807669E+02  0.62522321707E+03  0.00000000000E+00 0.  1.
<mgrwt>
<rscale>  0 0.14574931E+04</rscale>
<asrwt>0</asrwt>
<pdfrwt beam="1">  1        2 0.93600195E-01 0.14574931E+04</pdfrwt>
<pdfrwt beam="2">  1       -1 0.13429182E+00 0.14574931E+04</pdfrwt>
<totfact> 0.25222398E+01</totfact>
</mgrwt>
</event>
<event>
12    6  0.1553355E-007  0.1584287E+04  0.7818608E-02  0.8830260E-01
          2   -1    0    0  501    0  0.00000000000E+00  0.00000000000E+00  0.11405090482E+04  0.11405090482E+04  0.00000000000E+00 0. -1.
         -1   -1    0    0    0  501 -0.00000000000E+00 -0.00000000000E+00 -0.55018501511E+03  0.55018501511E+03  0.00000000000E+00 0.  1.
         24    2    1    2    0    0  0.13680939796E+03  0.45065081700E+03 -0.79501147807E+02  0.48429514831E+03  0.80114842208E+02 0.  0.
        254    2    1    2    0    0 -0.13680939796E+03 -0.45065081700E+03  0.66982518085E+03  0.12063989150E+04  0.88596252679E+03 0.  0.
         23    2    4    4    0    0 -0.28712723166E+02 -0.42579314565E+03  0.86175640567E+03  0.96689671159E+03  0.10070215900E+03 0.  0.
         23    2    4    4    0    0 -0.10809667479E+03 -0.24857671353E+02 -0.19193122481E+03  0.23950220337E+03  0.90669263989E+02 0.  0.
          4    1    3    3  502    0  0.26689831945E+01  0.23195878301E+02  0.13163679869E+02  0.26804005468E+02  0.00000000000E+00 0. -1.
         -3    1    3    3    0  502  0.13414041476E+03  0.42745493870E+03 -0.92664827676E+02  0.45749114284E+03  0.00000000000E+00 0.  1.
         11    1    5    5    0    0 -0.37443881321E+02 -0.49943552014E+02  0.11534808103E+03  0.13115480332E+03  0.00000000000E+00 0.  1.
        -11    1    5    5    0    0  0.87311581549E+01 -0.37584959363E+03  0.74640832464E+03  0.83574190827E+03  0.00000000000E+00 0. -1.
          1    1    6    6  503    0 -0.55100667628E+02 -0.37598124076E+02 -0.39280461226E+02  0.77412254464E+02  0.00000000000E+00 0. -1.
         -1    1    6    6    0  503 -0.52996007164E+02  0.12740452724E+02 -0.15265076359E+03  0.16208994890E+03  0.00000000000E+00 0.  1.
<mgrwt>
<rscale>  0 0.15842866E+04</rscale>
<asrwt>0</asrwt>
<pdfrwt beam="1">  1        2 0.17546293E+00 0.15842866E+04</pdfrwt>
<pdfrwt beam="2">  1       -1 0.84643849E-01 0.15842866E+04</pdfrwt>
<totfact> 0.31128972E+01</totfact>
</mgrwt>
</event>
<event>
12    6  0.1553355E-007  0.1522999E+04  0.7818608E-02  0.8869301E-01
          2   -1    0    0  501    0  0.00000000000E+00  0.00000000000E+00  0.16182440963E+04  0.16182440963E+04  0.00000000000E+00 0. -1.
         -1   -1    0    0    0  501 -0.00000000000E+00 -0.00000000000E+00 -0.35833998802E+03  0.35833998802E+03  0.00000000000E+00 0.  1.
         24    2    1    2    0    0  0.48870660513E+02 -0.27990204219E+03 -0.12114941444E+03  0.31931302058E+03  0.80932872257E+02 0.  0.
        254    2    1    2    0    0 -0.48870660513E+02  0.27990204219E+03  0.13810535228E+04  0.16572710638E+04  0.87092195486E+03 0.  0.
         23    2    4    4    0    0 -0.34240802829E+03  0.40985625997E+03  0.60200812166E+03  0.80971076059E+03  0.89399807491E+02 0.  0.
         23    2    4    4    0    0  0.29353736778E+03 -0.12995421779E+03  0.77904540110E+03  0.84756030320E+03  0.91621207104E+02 0.  0.
          4    1    3    3  502    0 -0.71160291243E+01 -0.74322363791E+02 -0.64949150381E+02  0.98958798321E+02  0.00000000000E+00 0. -1.
         -3    1    3    3    0  502  0.55986689637E+02 -0.20557967840E+03 -0.56200264061E+02  0.22035422226E+03  0.00000000000E+00 0.  1.
         11    1    5    5    0    0 -0.22768991779E+03  0.29687437543E+03  0.36126405933E+03  0.52008539108E+03  0.00000000000E+00 0. -1.
        -11    1    5    5    0    0 -0.11471811050E+03  0.11298188454E+03  0.24074406234E+03  0.28962536950E+03  0.00000000000E+00 0.  1.
          3    1    6    6  503    0  0.17193898417E+03 -0.12262689592E+03  0.46477517150E+03  0.51050595484E+03  0.00000000000E+00 0. -1.
         -3    1    6    6    0  503  0.12159838361E+03 -0.73273218685E+01  0.31427022960E+03  0.33705434837E+03  0.00000000000E+00 0.  1.
<mgrwt>
<rscale>  0 0.15229991E+04</rscale>
<asrwt>0</asrwt>
<pdfrwt beam="1">  1        2 0.24896063E+00 0.15229991E+04</pdfrwt>
<pdfrwt beam="2">  1       -1 0.55129230E-01 0.15229991E+04</pdfrwt>
<totfact> 0.39808863E+01</totfact>
</mgrwt>
</event>
<event>
12    6  0.1553355E-007  0.1857235E+04  0.7818608E-02  0.8676441E-01
          2   -1    0    0  501    0  0.00000000000E+00  0.00000000000E+00  0.13804125738E+04  0.13804125738E+04  0.00000000000E+00 0. -1.
         -1   -1    0    0    0  501 -0.00000000000E+00 -0.00000000000E+00 -0.62469053544E+03  0.62469053544E+03  0.00000000000E+00 0.  1.
         24    2    1    2    0    0 -0.56373492910E+03  0.37022606803E+03  0.63037425858E+02  0.68143005843E+03  0.74221262061E+02 0.  0.
        254    2    1    2    0    0  0.56373492910E+03 -0.37022606803E+03  0.69268461255E+03  0.13236730509E+04  0.90412054582E+03 0.  0.
         23    2    4    4    0    0  0.15595838153E+03  0.22899157241E+03 -0.33023766330E+02  0.29402836548E+03  0.92746717242E+02 0.  0.
         23    2    4    4    0    0  0.40777654757E+03 -0.59921764044E+03  0.72570837887E+03  0.10296446854E+04  0.90399300818E+02 0.  0.
          2    1    3    3  502    0 -0.14129982284E+03  0.12844692677E+03  0.32860770393E+02  0.19376295612E+03  0.00000000000E+00 0. -1.
         -1    1    3    3    0  502 -0.42243510626E+03  0.24177914126E+03  0.30176655464E+02  0.48766710231E+03  0.00000000000E+00 0.  1.
         11    1    5    5    0    0  0.14082653640E+03  0.23039092620E+03 -0.46162173438E+02  0.27393984465E+03  0.00000000000E+00 0.  1.
        -11    1    5    5    0    0  0.15131845127E+02 -0.13993537830E+01  0.13138407108E+02  0.20088520834E+02  0.00000000000E+00 0. -1.
          4    1    6    6  503    0  0.50623381759E+02 -0.10265710963E+03  0.76455136703E+02  0.13764663769E+03  0.00000000000E+00 0. -1.
         -4    1    6    6    0  503  0.35715316581E+03 -0.49656053081E+03  0.64925324217E+03  0.89199804769E+03  0.00000000000E+00 0.  1.
<mgrwt>
<rscale>  0 0.18572352E+04</rscale>
<asrwt>0</asrwt>
<pdfrwt beam="1">  1        2 0.21237117E+00 0.18572352E+04</pdfrwt>
<pdfrwt beam="2">  1       -1 0.96106236E-01 0.18572352E+04</pdfrwt>
<totfact> 0.16593348E+01</totfact>
</mgrwt>
</event>
<event>
12    6  0.1553355E-007  0.2053801E+04  0.7818608E-02  0.8581872E-01
          2   -1    0    0  501    0  0.00000000000E+00  0.00000000000E+00  0.15995389174E+04  0.15995389174E+04  0.00000000000E+00 0. -1.
         -1   -1    0    0    0  501 -0.00000000000E+00 -0.00000000000E+00 -0.65926803735E+03  0.65926803735E+03  0.00000000000E+00 0.  1.
         24    2    1    2    0    0  0.29388184896E+02 -0.52440928650E+03  0.10912433441E+04  0.12134895704E+04  0.76655959490E+02 0.  0.
        254    2    1    2    0    0 -0.29388184896E+02  0.52440928650E+03 -0.15097246412E+03  0.10453173843E+04  0.89108191763E+03 0.  0.
         23    2    4    4    0    0 -0.34600289741E+03  0.58840262928E+03 -0.16554476487E+03  0.70830857898E+03  0.91434756637E+02 0.  0.
         23    2    4    4    0    0  0.31661471252E+03 -0.63993342781E+02  0.14572300756E+02  0.33700880537E+03  0.94987150928E+02 0.  0.
          4    1    3    3  502    0  0.38066499277E+01 -0.40581590825E+03  0.77617662823E+03  0.87587168021E+03  0.00000000000E+00 0. -1.
         -3    1    3    3    0  502  0.25581534968E+02 -0.11859337824E+03  0.31506671590E+03  0.33761789017E+03  0.00000000000E+00 0.  1.
         11    1    5    5    0    0 -0.16311189908E+03  0.19084945347E+03 -0.63601369607E+02  0.25898675589E+03  0.00000000000E+00 0.  1.
        -11    1    5    5    0    0 -0.18289099834E+03  0.39755317581E+03 -0.10194339527E+03  0.44932182310E+03  0.00000000000E+00 0. -1.
          1    1    6    6  503    0  0.13291248004E+02 -0.22649291824E+02  0.16238415198E+02  0.30876104382E+02  0.00000000000E+00 0. -1.
         -1    1    6    6    0  503  0.30332346451E+03 -0.41344050957E+02 -0.16661144421E+01  0.30613270098E+03  0.00000000000E+00 0.  1.
<mgrwt>
<rscale>  0 0.20538012E+04</rscale>
<asrwt>0</asrwt>
<pdfrwt beam="1">  1        2 0.24608291E+00 0.20538012E+04</pdfrwt>
<pdfrwt beam="2">  1       -1 0.10142585E+00 0.20538012E+04</pdfrwt>
<totfact> 0.10847379E+01</totfact>
</mgrwt>
</event>
<event>
12    6  0.1553355E-007  0.1526411E+04  0.7818608E-02  0.8867078E-01
          2   -1    0    0  501    0  0.00000000000E+00  0.00000000000E+00  0.31152596996E+04  0.31152596996E+04  0.00000000000E+00 0. -1.
         -1   -1    0    0    0  501 -0.00000000000E+00 -0.00000000000E+00 -0.18697715800E+03  0.18697715800E+03  0.00000000000E+00 0.  1.
         24    2    1    2    0    0  0.86305450733E+02  0.43775737536E+03  0.14111519651E+04  0.14822388807E+04  0.81253186608E+02 0.  0.
        254    2    1    2    0    0 -0.86305450733E+02 -0.43775737536E+03  0.15171305765E+04  0.18199979769E+04  0.90090360153E+03 0.  0.
         23    2    4    4    0    0 -0.29781057290E+03 -0.61982265039E+03  0.12116968268E+04  0.13970599607E+04  0.10342184688E+03 0.  0.
         23    2    4    4    0    0  0.21150512217E+03  0.18206527503E+03  0.30543374969E+03  0.42293801620E+03  0.87775902284E+02 0.  0.
          2    1    3    3  502    0  0.96687147702E+02  0.35903589051E+03  0.11013387827E+04  0.11624122717E+04  0.00000000000E+00 0. -1.
         -1    1    3    3    0  502 -0.10381696969E+02  0.78721484842E+02  0.30981318244E+03  0.31982660899E+03  0.00000000000E+00 0.  1.
         11    1    5    5    0    0 -0.92244157769E+02 -0.10023241212E+03  0.25659536139E+03  0.29051110232E+03  0.00000000000E+00 0.  1.
        -11    1    5    5    0    0 -0.20556641513E+03 -0.51959023827E+03  0.95510146540E+03  0.11065488584E+04  0.00000000000E+00 0. -1.
          1    1    6    6  503    0  0.15266512768E+03  0.15610935924E+03  0.18405539914E+03  0.28557514459E+03  0.00000000000E+00 0. -1.
         -1    1    6    6    0  503  0.58839994487E+02  0.25955915789E+02  0.12137835055E+03  0.13736287161E+03  0.00000000000E+00 0.  1.
<mgrwt>
<rscale>  0 0.15264107E+04</rscale>
<asrwt>0</asrwt>
<pdfrwt beam="1">  1        2 0.47927069E+00 0.15264107E+04</pdfrwt>
<pdfrwt beam="2">  1       -1 0.28765719E-01 0.15264107E+04</pdfrwt>
<totfact> 0.17892275E+01</totfact>
</mgrwt>
</event>
<event>
12    6  0.1553355E-007  0.1257871E+04  0.7818608E-02  0.9063657E-01
          2   -1    0    0  501    0  0.00000000000E+00  0.00000000000E+00  0.15879328511E+04  0.15879328511E+04  0.00000000000E+00 0. -1.
         -1   -1    0    0    0  501 -0.00000000000E+00 -0.00000000000E+00 -0.24910380819E+03  0.24910380819E+03  0.00000000000E+00 0.  1.
         24    2    1    2    0    0  0.43437180895E+02 -0.19600527347E+03  0.73483124075E+03  0.76586408222E+03  0.79157969499E+02 0.  0.
        254    2    1    2    0    0 -0.43437180895E+02  0.19600527347E+03  0.60399780219E+03  0.10711725771E+04  0.86156397845E+03 0.  0.
         23    2    4    4    0    0 -0.16668679112E+03 -0.16384989230E+03 -0.96480308252E+02  0.26864690650E+03  0.90727266867E+02 0.  0.
         23    2    4    4    0    0  0.12324961023E+03  0.35985516577E+03  0.70047811044E+03  0.80252567059E+03  0.93229083428E+02 0.  0.
          2    1    3    3  502    0  0.32787235278E+02 -0.12857017677E+03  0.60275678901E+03  0.61718801013E+03  0.00000000000E+00 0. -1.
         -1    1    3    3    0  502  0.10649945617E+02 -0.67435096699E+02  0.13207445174E+03  0.14867607209E+03  0.00000000000E+00 0.  1.
         11    1    5    5    0    0 -0.94310121814E+02 -0.73865087989E+02 -0.95436808297E+02  0.15316211894E+03  0.00000000000E+00 0. -1.
        -11    1    5    5    0    0 -0.72376669308E+02 -0.89984804308E+02 -0.10434999549E+01  0.11548478756E+03  0.00000000000E+00 0.  1.
          3    1    6    6  503    0  0.68766563495E+02  0.29025956237E+03  0.58930400512E+03  0.66049879958E+03  0.00000000000E+00 0. -1.
         -3    1    6    6    0  503  0.54483046733E+02  0.69595603398E+02  0.11117410532E+03  0.14202687101E+03  0.00000000000E+00 0.  1.
<mgrwt>
<rscale>  0 0.12578714E+04</rscale>
<asrwt>0</asrwt>
<pdfrwt beam="1">  1        2 0.24429736E+00 0.12578714E+04</pdfrwt>
<pdfrwt beam="2">  1       -1 0.38323664E-01 0.12578714E+04</pdfrwt>
<totfact> 0.83526121E+01</totfact>
</mgrwt>
</event>
<event>
12    6  0.1553355E-007  0.1945469E+04  0.7818608E-02  0.8632549E-01
          2   -1    0    0  501    0  0.00000000000E+00  0.00000000000E+00  0.19804938762E+04  0.19804938762E+04  0.00000000000E+00 0. -1.
         -1   -1    0    0    0  501 -0.00000000000E+00 -0.00000000000E+00 -0.47776608808E+03  0.47776608808E+03  0.00000000000E+00 0.  1.
         24    2    1    2    0    0  0.29975204736E+03  0.20087595921E+03 -0.25001921533E+03  0.44731829464E+03  0.85916283704E+02 0.  0.
        254    2    1    2    0    0 -0.29975204736E+03 -0.20087595921E+03  0.17527470035E+04  0.20109416697E+04  0.91736682943E+03 0.  0.
         23    2    4    4    0    0 -0.20948448283E+03 -0.23373955761E+03  0.18280629547E+04  0.18576905595E+04  0.10335433748E+03 0.  0.
         23    2    4    4    0    0 -0.90267564531E+02  0.32863598402E+02 -0.75315951242E+02  0.15325111018E+03  0.92656143634E+02 0.  0.
          4    1    3    3  502    0  0.20260670242E+03  0.99148353481E+02 -0.11872761006E+03  0.25490413346E+03  0.00000000000E+00 0. -1.
         -3    1    3    3    0  502  0.97145344933E+02  0.10172760573E+03 -0.13129160527E+03  0.19241416118E+03  0.00000000000E+00 0.  1.
         11    1    5    5    0    0 -0.57710323842E+02 -0.47613309178E+02  0.23488516383E+03  0.24651277630E+03  0.00000000000E+00 0. -1.
        -11    1    5    5    0    0 -0.15177415898E+03 -0.18612624843E+03  0.15931777909E+04  0.16111777832E+04  0.00000000000E+00 0.  1.
          3    1    6    6  503    0  0.14675487774E+02 -0.10109122358E+02 -0.13735224610E+01  0.17873188305E+02  0.00000000000E+00 0. -1.
         -3    1    6    6    0  503 -0.10494305230E+03  0.42972720759E+02 -0.73942428781E+02  0.13537792187E+03  0.00000000000E+00 0.  1.
<mgrwt>
<rscale>  0 0.19454694E+04</rscale>
<asrwt>0</asrwt>
<pdfrwt beam="1">  1        2 0.30469136E+00 0.19454694E+04</pdfrwt>
<pdfrwt beam="2">  1       -1 0.73502476E-01 0.19454694E+04</pdfrwt>
<totfact> 0.13573172E+01</totfact>
</mgrwt>
</event>
<event>
12    6  0.1553355E-007  0.9589807E+03  0.7818608E-02  0.9354715E-01
          2   -1    0    0  501    0  0.00000000000E+00  0.00000000000E+00  0.85312988638E+03  0.85312988638E+03  0.00000000000E+00 0. -1.
         -1   -1    0    0    0  501 -0.00000000000E+00 -0.00000000000E+00 -0.26949122228E+03  0.26949122228E+03  0.00000000000E+00 0.  1.
         24    2    1    2    0    0  0.23080437499E+02 -0.39136371037E+02  0.24932951707E+02  0.95635757085E+02  0.80375268704E+02 0.  0.
        254    2    1    2    0    0 -0.23080437499E+02  0.39136371037E+02  0.55870571239E+03  0.10269853516E+04  0.86051291517E+03 0.  0.
         23    2    4    4    0    0  0.39769404185E+03 -0.70283158579E+02  0.22560325767E+03  0.47154072772E+03  0.91397782936E+02 0.  0.
         23    2    4    4    0    0 -0.42077447935E+03  0.10941952962E+03  0.33310245473E+03  0.55544462386E+03  0.92399615242E+02 0.  0.
          4    1    3    3  502    0  0.26435221283E+02 -0.96501042017E+00  0.45136799697E+02  0.52317137310E+02  0.00000000000E+00 0. -1.
         -3    1    3    3    0  502 -0.33547837841E+01 -0.38171360617E+02 -0.20203847991E+02  0.43318619775E+02  0.00000000000E+00 0.  1.
         11    1    5    5    0    0  0.13397004953E+03 -0.68151911427E+02  0.84573868545E+02  0.17246853754E+03  0.00000000000E+00 0.  1.
        -11    1    5    5    0    0  0.26372399233E+03 -0.21312471520E+01  0.14102938912E+03  0.29907219018E+03  0.00000000000E+00 0. -1.
          1    1    6    6  503    0 -0.17663775412E+03  0.51559868242E+02  0.19869508004E+03  0.27081183694E+03  0.00000000000E+00 0. -1.
         -1    1    6    6    0  503 -0.24413672524E+03  0.57859661373E+02  0.13440737469E+03  0.28463278692E+03  0.00000000000E+00 0.  1.
<mgrwt>
<rscale>  0 0.95898074E+03</rscale>
<asrwt>0</asrwt>
<pdfrwt beam="1">  1        2 0.13125075E+00 0.95898074E+03</pdfrwt>
<pdfrwt beam="2">  1       -1 0.41460188E-01 0.95898074E+03</pdfrwt>
<totfact> 0.20531762E+02</totfact>
</mgrwt>
</event>
<event>
12    6  0.1553355E-007  0.1506252E+04  0.7818608E-02  0.8880306E-01
          2   -1    0    0  501    0  0.00000000000E+00  0.00000000000E+00  0.45283512997E+03  0.45283512997E+03  0.00000000000E+00 0. -1.
         -1   -1    0    0    0  501 -0.00000000000E+00 -0.00000000000E+00 -0.12525495463E+04  0.12525495463E+04  0.00000000000E+00 0.  1.
         24    2    1    2    0    0  0.21811537304E+03  0.15705642109E+03  0.19243434110E+03  0.34063001424E+03  0.82199729944E+02 0.  0.
        254    2    1    2    0    0 -0.21811537304E+03 -0.15705642109E+03 -0.99214875743E+03  0.13647546620E+04  0.89775001825E+03 0.  0.
         23    2    4    4    0    0 -0.38475827565E+03 -0.21737408667E+03 -0.11564496496E+03  0.46590936033E+03  0.91691602042E+02 0.  0.
         23    2    4    4    0    0  0.16664290261E+03  0.60317665576E+02 -0.87650379247E+03  0.89884530169E+03  0.90861985404E+02 0.  0.
          2    1    3    3  502    0  0.20692973228E+03  0.13048087178E+03  0.19329708868E+03  0.31178347695E+03  0.00000000000E+00 0. -1.
         -1    1    3    3    0  502  0.11185640754E+02  0.26575549312E+02 -0.86274758112E+00  0.28846537292E+02  0.00000000000E+00 0.  1.
         11    1    5    5    0    0 -0.18265549078E+01 -0.11462301411E+02 -0.16148480606E+02  0.19887033020E+02  0.00000000000E+00 0. -1.
        -11    1    5    5    0    0 -0.38293172074E+03 -0.20591178526E+03 -0.99496484351E+02  0.44602232731E+03  0.00000000000E+00 0.  1.
          3    1    6    6  503    0  0.21749645790E+02  0.40047315408E+02 -0.12081720663E+03  0.12912641860E+03  0.00000000000E+00 0. -1.
         -3    1    6    6    0  503  0.14489325682E+03  0.20270350168E+02 -0.75568658584E+03  0.76971888309E+03  0.00000000000E+00 0.  1.
<mgrwt>
<rscale>  0 0.15062516E+04</rscale>
<asrwt>0</asrwt>
<pdfrwt beam="1">  1        2 0.69666945E-01 0.15062516E+04</pdfrwt>
<pdfrwt beam="2">  1       -1 0.19269993E+00 0.15062516E+04</pdfrwt>
<totfact> 0.12898139E+01</totfact>
</mgrwt>
</event>
<event>
12    6  0.1553355E-007  0.1434732E+04  0.7818608E-02  0.8929054E-01
         -1   -1    0    0    0  501 -0.00000000000E+00  0.00000000000E+00  0.49210431537E+03  0.49210431537E+03  0.00000000000E+00 0.  1.
          2   -1    0    0  501    0  0.00000000000E+00 -0.00000000000E+00 -0.10457416301E+04  0.10457416301E+04  0.00000000000E+00 0. -1.
         24    2    1    2    0    0 -0.34340789449E+03 -0.42079197957E+02 -0.22878203826E+01  0.35503272669E+03  0.79645225850E+02 0.  0.
        254    2    1    2    0    0  0.34340789449E+03  0.42079197957E+02 -0.55134949437E+03  0.11828132188E+04  0.98760376908E+03 0.  0.
         23    2    4    4    0    0  0.61323963340E+03  0.27526729597E+03 -0.35131545850E+03  0.76391685326E+03  0.91167291918E+02 0.  0.
         23    2    4    4    0    0 -0.26983173890E+03 -0.23318809801E+03 -0.20003403587E+03  0.41889636553E+03  0.90965340526E+02 0.  0.
          2    1    3    3  502    0 -0.99479759593E+02  0.12761472315E+02 -0.26809159754E+02  0.10381622605E+03  0.00000000000E+00 0. -1.
         -1    1    3    3    0  502 -0.24392813490E+03 -0.54840670272E+02  0.24521339371E+02  0.25121650064E+03  0.00000000000E+00 0.  1.
         11    1    5    5    0    0  0.26018148579E+03  0.76849139118E+02 -0.11202351890E+03  0.29351229024E+03  0.00000000000E+00 0. -1.
        -11    1    5    5    0    0  0.35305814760E+03  0.19841815685E+03 -0.23929193960E+03  0.47040456302E+03  0.00000000000E+00 0.  1.
          1    1    6    6  503    0 -0.24906537888E+02  0.49883658525E+01 -0.63804792426E+01  0.26190264199E+02  0.00000000000E+00 0. -1.
         -1    1    6    6    0  503 -0.24492520102E+03 -0.23817646386E+03 -0.19365355663E+03  0.39270610133E+03  0.00000000000E+00 0.  1.
<mgrwt>
<rscale>  0 0.14347320E+04</rscale>
<asrwt>0</asrwt>
<pdfrwt beam="1">  1        2 0.16088333E+00 0.14347320E+04</pdfrwt>
<pdfrwt beam="2">  1       -1 0.75708356E-01 0.14347320E+04</pdfrwt>
<totfact> 0.45736297E+01</totfact>
</mgrwt>
</event>
<event>
12    6  0.1553355E-007  0.1398336E+04  0.7818608E-02  0.8955024E-01
          2   -1    0    0  501    0  0.00000000000E+00  0.00000000000E+00  0.47501762449E+03  0.47501762449E+03  0.00000000000E+00 0. -1.
         -1   -1    0    0    0  501 -0.00000000000E+00 -0.00000000000E+00 -0.10290901729E+04  0.10290901729E+04  0.00000000000E+00 0.  1.
         24    2    1    2    0    0  0.18841377788E+03  0.70814441991E+02  0.19694045331E+03  0.29331313617E+03  0.82052524702E+02 0.  0.
        254    2    1    2    0    0 -0.18841377788E+03 -0.70814441991E+02 -0.75101300176E+03  0.12107946612E+04  0.92816418052E+03 0.  0.
         23    2    4    4    0    0  0.53314361340E+02  0.35823166623E+03 -0.94529313777E+02  0.38516828945E+03  0.90810088763E+02 0.  0.
         23    2    4    4    0    0 -0.24172813922E+03 -0.42904610822E+03 -0.65648368798E+03  0.82562637179E+03  0.90415800332E+02 0.  0.
          4    1    3    3  502    0  0.41490492226E+02  0.35450503863E+02  0.99558791636E+02  0.11353480595E+03  0.00000000000E+00 0. -1.
         -3    1    3    3    0  502  0.14692328566E+03  0.35363938129E+02  0.97381661677E+02  0.17977833023E+03  0.00000000000E+00 0.  1.
         11    1    5    5    0    0 -0.24848347682E+02  0.10515077653E+03 -0.18714674845E+02  0.10965566671E+03  0.00000000000E+00 0. -1.
        -11    1    5    5    0    0  0.78162709022E+02  0.25308088970E+03 -0.75814638933E+02  0.27551262274E+03  0.00000000000E+00 0.  1.
          1    1    6    6  503    0  0.70885799905E+01 -0.65778187149E+01 -0.73958799373E+01  0.12174346199E+02  0.00000000000E+00 0. -1.
         -1    1    6    6    0  503 -0.24881671921E+03 -0.42246828950E+03 -0.64908780804E+03  0.81345202559E+03  0.00000000000E+00 0.  1.
<mgrwt>
<rscale>  0 0.13983361E+04</rscale>
<asrwt>0</asrwt>
<pdfrwt beam="1">  1        2 0.73079634E-01 0.13983361E+04</pdfrwt>
<pdfrwt beam="2">  1       -1 0.15832157E+00 0.13983361E+04</pdfrwt>
<totfact> 0.21894939E+01</totfact>
</mgrwt>
</event>
<event>
12    6  0.1553355E-007  0.1248250E+04  0.7818608E-02  0.9071641E-01
         -1   -1    0    0    0  501 -0.00000000000E+00  0.00000000000E+00  0.32514588317E+03  0.32514588317E+03  0.00000000000E+00 0.  1.
          2   -1    0    0  501    0  0.00000000000E+00 -0.00000000000E+00 -0.11980213900E+04  0.11980213900E+04  0.00000000000E+00 0. -1.
         24    2    1    2    0    0 -0.17260704561E+03 -0.32675128679E+03 -0.24096770263E+03  0.44836584959E+03  0.80043149366E+02 0.  0.
        254    2    1    2    0    0  0.17260704561E+03  0.32675128679E+03 -0.63190780418E+03  0.10748014236E+04  0.78697587732E+03 0.  0.
         23    2    4    4    0    0 -0.75486298414E+02  0.26031355065E+03 -0.73061958921E+03  0.78493070753E+03  0.94073936836E+02 0.  0.
         23    2    4    4    0    0  0.24809334402E+03  0.66437736137E+02  0.98711785025E+02  0.28987071603E+03  0.91196136844E+02 0.  0.
          4    1    3    3  502    0 -0.60565456466E+02 -0.72011301491E+02 -0.96615111929E+02  0.13486393852E+03  0.00000000000E+00 0. -1.
         -3    1    3    3    0  502 -0.11204158914E+03 -0.25473998530E+03 -0.14435259070E+03  0.31350191108E+03  0.00000000000E+00 0.  1.
         11    1    5    5    0    0 -0.89491049080E+02  0.24126644941E+03 -0.61066812497E+03  0.66267164292E+03  0.00000000000E+00 0. -1.
        -11    1    5    5    0    0  0.14004750666E+02  0.19047101240E+02 -0.11995146424E+03  0.12225906461E+03  0.00000000000E+00 0.  1.
          2    1    6    6  503    0 -0.26445362292E+01  0.30917777866E+01  0.18733626334E+02  0.19170326480E+02  0.00000000000E+00 0.  1.
         -2    1    6    6    0  503  0.25073788025E+03  0.63345958351E+02  0.79978158692E+02  0.27070038955E+03  0.00000000000E+00 0. -1.
<mgrwt>
<rscale>  0 0.12482495E+04</rscale>
<asrwt>0</asrwt>
<pdfrwt beam="1">  1        2 0.18431099E+00 0.12482495E+04</pdfrwt>
<pdfrwt beam="2">  1       -1 0.50022443E-01 0.12482495E+04</pdfrwt>
<totfact> 0.85391147E+01</totfact>
</mgrwt>
</event>
<event>
12    6  0.1553355E-007  0.2710474E+04  0.7818608E-02  0.8331614E-01
          2   -1    0    0  501    0  0.00000000000E+00  0.00000000000E+00  0.36540052638E+04  0.36540052638E+04  0.00000000000E+00 0. -1.
         -1   -1    0    0    0  501 -0.00000000000E+00 -0.00000000000E+00 -0.50264499808E+03  0.50264499808E+03  0.00000000000E+00 0.  1.
         24    2    1    2    0    0 -0.17080672853E+03  0.76689288086E+03  0.70065947326E+01  0.78957202398E+03  0.77943950704E+02 0.  0.
        254    2    1    2    0    0  0.17080672853E+03 -0.76689288086E+03  0.31443536710E+04  0.33670782379E+04  0.91266435379E+03 0.  0.
         23    2    4    4    0    0  0.32506757960E+03 -0.61858936850E+03  0.30186879833E+04  0.30997672824E+04  0.88081361957E+02 0.  0.
         23    2    4    4    0    0 -0.15426085107E+03 -0.14830351237E+03  0.12566568768E+03  0.26731095551E+03  0.99362668646E+02 0.  0.
          2    1    3    3  502    0 -0.17071149035E+03  0.74323932364E+03 -0.59225236057E+01  0.76261535614E+03  0.00000000000E+00 0. -1.
         -3    1    3    3    0  502 -0.95238171192E-01  0.23653557224E+02  0.12929118338E+02  0.26956667833E+02  0.00000000000E+00 0.  1.
         11    1    5    5    0    0  0.13224168633E+03 -0.18906214415E+03  0.86743013314E+03  0.89758976924E+03  0.00000000000E+00 0.  1.
        -11    1    5    5    0    0  0.19282589327E+03 -0.42952722435E+03  0.21512578502E+04  0.22021775132E+04  0.00000000000E+00 0. -1.
          3    1    6    6  503    0 -0.71403273149E+02 -0.42529532321E+02 -0.33595513785E+00  0.83110176283E+02  0.00000000000E+00 0. -1.
         -3    1    6    6    0  503 -0.82857577922E+02 -0.10577398004E+03  0.12600164282E+03  0.18420077923E+03  0.00000000000E+00 0.  1.
<mgrwt>
<rscale>  0 0.27104741E+04</rscale>
<asrwt>0</asrwt>
<pdfrwt beam="1">  1        2 0.56215464E+00 0.27104741E+04</pdfrwt>
<pdfrwt beam="2">  1       -1 0.77330002E-01 0.27104741E+04</pdfrwt>
<totfact> 0.10543817E+00</totfact>
</mgrwt>
</event>
<event>
12    6  0.1553355E-007  0.1171101E+04  0.7818608E-02  0.9138535E-01
         -1   -1    0    0    0  501 -0.00000000000E+00  0.00000000000E+00  0.11916174906E+04  0.11916174906E+04  0.00000000000E+00 0.  1.
          2   -1    0    0  501    0  0.00000000000E+00 -0.00000000000E+00 -0.28773432349E+03  0.28773432349E+03  0.00000000000E+00 0. -1.
         24    2    1    2    0    0 -0.18444927413E+03  0.78773645935E+02  0.34191102603E+03  0.40382241312E+03  0.77088063901E+02 0.  0.
        254    2    1    2    0    0  0.18444927413E+03 -0.78773645935E+02  0.56197214109E+03  0.10755294010E+04  0.89483181827E+03 0.  0.
         23    2    4    4    0    0  0.42614643587E+03  0.34438296819E+02 -0.10622099322E+02  0.43723882749E+03  0.90984516130E+02 0.  0.
         23    2    4    4    0    0 -0.24169716174E+03 -0.11321194275E+03  0.57259424042E+03  0.63829057349E+03  0.91193366398E+02 0.  0.
          4    1    3    3  502    0  0.52114660770E+01  0.81755486726E+01  0.52718094858E+01  0.11035893712E+02  0.00000000000E+00 0. -1.
         -3    1    3    3    0  502 -0.18966074021E+03  0.70598097263E+02  0.33663921654E+03  0.39278651940E+03  0.00000000000E+00 0.  1.
         11    1    5    5    0    0  0.27518042018E+03 -0.19787945375E+02 -0.19536139155E+02  0.27658179110E+03  0.00000000000E+00 0.  1.
        -11    1    5    5    0    0  0.15096601569E+03  0.54226242194E+02  0.89140398333E+01  0.16065703639E+03  0.00000000000E+00 0. -1.
          4    1    6    6  503    0 -0.17671502099E+02 -0.26798638351E+02  0.26097547813E+02  0.41370653920E+02  0.00000000000E+00 0. -1.
         -4    1    6    6    0  503 -0.22402565965E+03 -0.86413304404E+02  0.54649669260E+03  0.59691991957E+03  0.00000000000E+00 0.  1.
<mgrwt>
<rscale>  0 0.11711008E+04</rscale>
<asrwt>0</asrwt>
<pdfrwt beam="1">  1        2 0.44266820E-01 0.11711008E+04</pdfrwt>
<pdfrwt beam="2">  1       -1 0.18332576E+00 0.11711008E+04</pdfrwt>
<totfact> 0.25676774E+01</totfact>
</mgrwt>
</event>
<event>
12    6  0.1553355E-007  0.1268341E+04  0.7818608E-02  0.9055055E-01
         -1   -1    0    0    0  501 -0.00000000000E+00  0.00000000000E+00  0.41375596983E+03  0.41375596983E+03  0.00000000000E+00 0.  1.
          2   -1    0    0  501    0  0.00000000000E+00 -0.00000000000E+00 -0.97200310079E+03  0.97200310079E+03  0.00000000000E+00 0. -1.
         24    2    1    2    0    0 -0.14742979243E+02 -0.61411028814E+02 -0.46669047063E+03  0.47751294268E+03  0.78930001653E+02 0.  0.
        254    2    1    2    0    0  0.14742979243E+02  0.61411028814E+02 -0.91556660337E+02  0.90824612793E+03  0.90140986069E+03 0.  0.
         23    2    4    4    0    0  0.18042226820E+03 -0.34168127158E+03  0.12182602561E+03  0.41454690625E+03  0.87802453003E+02 0.  0.
         23    2    4    4    0    0 -0.16567928896E+03  0.40309230039E+03 -0.21338268595E+03  0.49369922169E+03  0.90959998929E+02 0.  0.
          4    1    3    3  502    0  0.35374767260E+00 -0.77955738415E+02 -0.38464752304E+03  0.39246775571E+03  0.00000000000E+00 0. -1.
         -3    1    3    3    0  502 -0.15096726915E+02  0.16544709601E+02 -0.82042947587E+02  0.85045186978E+02  0.00000000000E+00 0.  1.
         11    1    5    5    0    0  0.74199699857E+01 -0.71330668018E+02  0.13898985033E+01  0.71729017645E+02  0.00000000000E+00 0.  1.
        -11    1    5    5    0    0  0.17300229822E+03 -0.27035060356E+03  0.12043612711E+03  0.34281788860E+03  0.00000000000E+00 0. -1.
          1    1    6    6  503    0 -0.16842284548E+03  0.38851211734E+03 -0.18587815571E+03  0.46244849331E+03  0.00000000000E+00 0. -1.
         -1    1    6    6    0  503  0.27435565174E+01  0.14580183056E+02 -0.27504530239E+02  0.31250728375E+02  0.00000000000E+00 0.  1.
<mgrwt>
<rscale>  0 0.12683408E+04</rscale>
<asrwt>0</asrwt>
<pdfrwt beam="1">  1        2 0.14953894E+00 0.12683408E+04</pdfrwt>
<pdfrwt beam="2">  1       -1 0.63654765E-01 0.12683408E+04</pdfrwt>
<totfact> 0.73674984E+01</totfact>
</mgrwt>
</event>
<event>
12    6  0.1553355E-007  0.2325786E+04  0.7818608E-02  0.8467823E-01
         -1   -1    0    0    0  501 -0.00000000000E+00  0.00000000000E+00  0.79666006561E+03  0.79666006561E+03  0.00000000000E+00 0.  1.
          2   -1    0    0  501    0  0.00000000000E+00 -0.00000000000E+00 -0.16974876284E+04  0.16974876284E+04  0.00000000000E+00 0. -1.
         24    2    1    2    0    0 -0.43893769360E+03 -0.88092887472E+03 -0.40260303792E+03  0.10663620774E+04  0.79604603221E+02 0.  0.
        254    2    1    2    0    0  0.43893769360E+03  0.88092887472E+03 -0.49822452486E+03  0.14277856166E+04  0.90644476309E+03 0.  0.
         23    2    4    4    0    0  0.58837831037E+03  0.65925800697E+03 -0.65581205778E+03  0.11040771876E+04  0.89926777273E+02 0.  0.
         23    2    4    4    0    0 -0.14944061677E+03  0.22167086775E+03  0.15758753292E+03  0.32370842893E+03  0.92102360866E+02 0.  0.
          2    1    3    3  502    0 -0.23040793511E+03 -0.42208091468E+03 -0.23492666248E+03  0.53519216347E+03  0.00000000000E+00 0. -1.
         -1    1    3    3    0  502 -0.20852975849E+03 -0.45884796004E+03 -0.16767637544E+03  0.53116991395E+03  0.00000000000E+00 0.  1.
         11    1    5    5    0    0  0.42960461004E+03  0.51783932102E+03 -0.53430012620E+03  0.85918234864E+03  0.00000000000E+00 0. -1.
        -11    1    5    5    0    0  0.15877370032E+03  0.14141868595E+03 -0.12151193159E+03  0.24489483900E+03  0.00000000000E+00 0.  1.
          1    1    6    6  503    0 -0.86203293057E+02  0.10600641625E+03  0.13088810064E+03  0.18920904553E+03  0.00000000000E+00 0. -1.
         -1    1    6    6    0  503 -0.63237323712E+02  0.11566445150E+03  0.26699432281E+02  0.13449938340E+03  0.00000000000E+00 0.  1.
<mgrwt>
<rscale>  0 0.23257864E+04</rscale>
<asrwt>0</asrwt>
<pdfrwt beam="1">  1        2 0.26115194E+00 0.23257864E+04</pdfrwt>
<pdfrwt beam="2">  1       -1 0.12256309E+00 0.23257864E+04</pdfrwt>
<totfact> 0.59561392E+00</totfact>
</mgrwt>
</event>
<event>
12    6  0.1553355E-007  0.1289272E+04  0.7818608E-02  0.9038116E-01
          2   -1    0    0  501    0  0.00000000000E+00  0.00000000000E+00  0.13510109154E+04  0.13510109154E+04  0.00000000000E+00 0. -1.
         -1   -1    0    0    0  501 -0.00000000000E+00 -0.00000000000E+00 -0.30758867605E+03  0.30758867605E+03  0.00000000000E+00 0.  1.
         24    2    1    2    0    0  0.21490855379E+03  0.15501229515E+03  0.50141260514E+03  0.57268540600E+03  0.79620823343E+02 0.  0.
        254    2    1    2    0    0 -0.21490855379E+03 -0.15501229515E+03  0.54200963417E+03  0.10859141854E+04  0.90289571735E+03 0.  0.
         23    2    4    4    0    0  0.17872191320E+03  0.15403303434E+03 -0.97840054028E+02  0.26945459756E+03  0.85821943869E+02 0.  0.
         23    2    4    4    0    0 -0.39363046699E+03 -0.30904532950E+03  0.63984968820E+03  0.81645958786E+03  0.82125969647E+02 0.  0.
          4    1    3    3  502    0  0.84117050409E+02  0.99927389631E+02  0.28997218809E+03  0.31803306625E+03  0.00000000000E+00 0. -1.
         -3    1    3    3    0  502  0.13079150338E+03  0.55084905522E+02  0.21144041706E+03  0.25465233975E+03  0.00000000000E+00 0.  1.
         11    1    5    5    0    0  0.70640560434E+02  0.78513482512E+02 -0.58672156783E+00  0.10561628642E+03  0.00000000000E+00 0. -1.
        -11    1    5    5    0    0  0.10808135276E+03  0.75519551831E+02 -0.97253332460E+02  0.16383831114E+03  0.00000000000E+00 0.  1.
          2    1    6    6  503    0 -0.25799846170E+03 -0.23062302212E+03  0.38842355596E+03  0.52021442060E+03  0.00000000000E+00 0. -1.
         -2    1    6    6    0  503 -0.13563200528E+03 -0.78422307375E+02  0.25142613224E+03  0.29624516726E+03  0.00000000000E+00 0.  1.
<mgrwt>
<rscale>  0 0.12892721E+04</rscale>
<asrwt>0</asrwt>
<pdfrwt beam="1">  1        2 0.20784783E+00 0.12892721E+04</pdfrwt>
<pdfrwt beam="2">  1       -1 0.47321336E-01 0.12892721E+04</pdfrwt>
<totfact> 0.76895338E+01</totfact>
</mgrwt>
</event>
<event>
12    6  0.1553355E-007  0.2293032E+04  0.7818608E-02  0.8480673E-01
          2   -1    0    0  501    0  0.00000000000E+00  0.00000000000E+00  0.19029057240E+04  0.19029057240E+04  0.00000000000E+00 0. -1.
         -1   -1    0    0    0  501 -0.00000000000E+00 -0.00000000000E+00 -0.69078538088E+03  0.69078538088E+03  0.00000000000E+00 0.  1.
         24    2    1    2    0    0 -0.55149675043E+03 -0.43740344078E+03  0.12739700786E+04  0.14576248572E+04  0.78740251667E+02 0.  0.
        254    2    1    2    0    0  0.55149675043E+03  0.43740344078E+03 -0.61849735517E+02  0.11360662477E+04  0.88957894178E+03 0.  0.
         23    2    4    4    0    0  0.77369567821E+03  0.33111866172E+03  0.56966386810E+02  0.84825088222E+03  0.89665039653E+02 0.  0.
         23    2    4    4    0    0 -0.22219892778E+03  0.10628477906E+03 -0.11881612233E+03  0.28781536549E+03  0.89730685512E+02 0.  0.
          2    1    3    3  502    0 -0.39753631958E+03 -0.27142615575E+03  0.83962870840E+03  0.96782418413E+03  0.00000000000E+00 0. -1.
         -1    1    3    3    0  502 -0.15396043085E+03 -0.16597728503E+03  0.43434137024E+03  0.48980067305E+03  0.00000000000E+00 0.  1.
         11    1    5    5    0    0  0.38880626654E+03  0.21510141193E+03  0.29880135714E+02  0.44534453273E+03  0.00000000000E+00 0. -1.
        -11    1    5    5    0    0  0.38488941167E+03  0.11601724978E+03  0.27086251096E+02  0.40290634949E+03  0.00000000000E+00 0.  1.
          4    1    6    6  503    0 -0.19431350399E+03  0.52927912809E+02 -0.99178117828E+02  0.22448919983E+03  0.00000000000E+00 0. -1.
         -4    1    6    6    0  503 -0.27885423792E+02  0.53356866253E+02 -0.19638004499E+02  0.63326165659E+02  0.00000000000E+00 0.  1.
<mgrwt>
<rscale>  0 0.22930325E+04</rscale>
<asrwt>0</asrwt>
<pdfrwt beam="1">  1        2 0.29275473E+00 0.22930325E+04</pdfrwt>
<pdfrwt beam="2">  1       -1 0.10627467E+00 0.22930325E+04</pdfrwt>
<totfact> 0.64652133E+00</totfact>
</mgrwt>
</event>
<event>
12    6  0.1553355E-007  0.1713072E+04  0.7818608E-02  0.8753944E-01
         -1   -1    0    0    0  501 -0.00000000000E+00  0.00000000000E+00  0.28058486627E+03  0.28058486627E+03  0.00000000000E+00 0.  1.
          2   -1    0    0  501    0  0.00000000000E+00 -0.00000000000E+00 -0.26147312369E+04  0.26147312369E+04  0.00000000000E+00 0. -1.
         24    2    1    2    0    0 -0.48819149228E+03  0.15218713627E+03 -0.26282034955E+03  0.58053111146E+03  0.80311752914E+02 0.  0.
        254    2    1    2    0    0  0.48819149228E+03 -0.15218713627E+03 -0.20713260211E+04  0.23147849917E+04  0.89796782497E+03 0.  0.
         23    2    4    4    0    0 -0.23386008995E+03  0.45466296192E+01 -0.28671234673E+03  0.38110009518E+03  0.91225540620E+02 0.  0.
         23    2    4    4    0    0  0.72205158223E+03 -0.15673376589E+03 -0.17846136744E+04  0.19336848966E+04  0.91473229197E+02 0.  0.
          2    1    3    3  502    0 -0.45479355954E+03  0.14564883899E+03 -0.21986759222E+03  0.52573046726E+03  0.00000000000E+00 0. -1.
         -1    1    3    3    0  502 -0.33397932736E+02  0.65382972826E+01 -0.42952757324E+02  0.54800644194E+02  0.00000000000E+00 0.  1.
         11    1    5    5    0    0 -0.83478008839E+02 -0.30889533080E+02 -0.15187005453E+03  0.17603197061E+03  0.00000000000E+00 0. -1.
        -11    1    5    5    0    0 -0.15038208111E+03  0.35436162699E+02 -0.13484229220E+03  0.20506812456E+03  0.00000000000E+00 0.  1.
          4    1    6    6  503    0  0.37152331513E+03 -0.34847381633E+02 -0.87028422479E+03  0.94690999869E+03  0.00000000000E+00 0. -1.
         -4    1    6    6    0  503  0.35052826709E+03 -0.12188638426E+03 -0.91432944957E+03  0.98677489787E+03  0.00000000000E+00 0.  1.
<mgrwt>
<rscale>  0 0.17130721E+04</rscale>
<asrwt>0</asrwt>
<pdfrwt beam="1">  1        2 0.40226634E+00 0.17130721E+04</pdfrwt>
<pdfrwt beam="2">  1       -1 0.43166902E-01 0.17130721E+04</pdfrwt>
<totfact> 0.17124120E+01</totfact>
</mgrwt>
</event>
<event>
12    6  0.1553355E-007  0.1283270E+04  0.7818608E-02  0.9042939E-01
          2   -1    0    0  501    0  0.00000000000E+00  0.00000000000E+00  0.58073844386E+03  0.58073844386E+03  0.00000000000E+00 0. -1.
         -1   -1    0    0    0  501 -0.00000000000E+00 -0.00000000000E+00 -0.70891675166E+03  0.70891675166E+03  0.00000000000E+00 0.  1.
         24    2    1    2    0    0 -0.22545563960E+03  0.17170193048E+03  0.67894874715E+02  0.30219965334E+03  0.80019485809E+02 0.  0.
        254    2    1    2    0    0  0.22545563960E+03 -0.17170193048E+03 -0.19607318251E+03  0.98745554218E+03  0.92537125335E+03 0.  0.
         23    2    4    4    0    0  0.32437690722E+03 -0.18740256780E+03  0.29029741184E+03  0.48297737461E+03  0.93029332511E+02 0.  0.
         23    2    4    4    0    0 -0.98921267621E+02  0.15700637323E+02 -0.48637059435E+03  0.50447816757E+03  0.88937839561E+02 0.  0.
          4    1    3    3  502    0 -0.21370798114E+03  0.14888729453E+03  0.38679790170E+02  0.26331474293E+03  0.00000000000E+00 0. -1.
         -3    1    3    3    0  502 -0.11747658457E+02  0.22814635948E+02  0.29215084545E+02  0.38884910411E+02  0.00000000000E+00 0.  1.
         11    1    5    5    0    0  0.10222873737E+03 -0.23865303575E+02  0.11707214309E+03  0.15724552187E+03  0.00000000000E+00 0.  1.
        -11    1    5    5    0    0  0.22214816984E+03 -0.16353726423E+03  0.17322526875E+03  0.32573185274E+03  0.00000000000E+00 0. -1.
          4    1    6    6  503    0 -0.12809540371E+02 -0.52634460826E+01 -0.45541245923E+01  0.14578348328E+02  0.00000000000E+00 0. -1.
         -4    1    6    6    0  503 -0.86111727251E+02  0.20964083406E+02 -0.48181646976E+03  0.48989981924E+03  0.00000000000E+00 0.  1.
<mgrwt>
<rscale>  0 0.12832696E+04</rscale>
<asrwt>0</asrwt>
<pdfrwt beam="1">  1        2 0.89344376E-01 0.12832696E+04</pdfrwt>
<pdfrwt beam="2">  1       -1 0.10906412E+00 0.12832696E+04</pdfrwt>
<totfact> 0.45081643E+01</totfact>
</mgrwt>
</event>
<event>
12    6  0.1553355E-007  0.1430420E+04  0.7818608E-02  0.8932089E-01
          2   -1    0    0  501    0  0.00000000000E+00  0.00000000000E+00  0.56778504408E+03  0.56778504408E+03  0.00000000000E+00 0. -1.
         -1   -1    0    0    0  501 -0.00000000000E+00 -0.00000000000E+00 -0.90091358600E+03  0.90091358600E+03  0.00000000000E+00 0.  1.
         24    2    1    2    0    0 -0.91012709432E+02 -0.24842006298E+03 -0.44479981248E+03  0.52327964364E+03  0.77323161459E+02 0.  0.
        254    2    1    2    0    0  0.91012709432E+02  0.24842006298E+03  0.11167127056E+03  0.94541898644E+03  0.90075010202E+03 0.  0.
         23    2    4    4    0    0 -0.74490377743E+02 -0.22406698187E+03  0.30846778972E+03  0.39993535924E+03  0.95084623000E+02 0.  0.
         23    2    4    4    0    0  0.16550308718E+03  0.47248704484E+03 -0.19679651917E+03  0.54548362721E+03  0.90488884310E+02 0.  0.
          4    1    3    3  502    0 -0.49936778477E+02 -0.14796878233E+03 -0.18742648801E+03  0.24396133054E+03  0.00000000000E+00 0. -1.
         -3    1    3    3    0  502 -0.41075930955E+02 -0.10045128065E+03 -0.25737332447E+03  0.27931831310E+03  0.00000000000E+00 0.  1.
         11    1    5    5    0    0 -0.70023179559E+02 -0.83208028204E+02  0.96495810183E+02  0.14539003754E+03  0.00000000000E+00 0. -1.
        -11    1    5    5    0    0 -0.44671981839E+01 -0.14085895366E+03  0.21197197954E+03  0.25454532170E+03  0.00000000000E+00 0.  1.
          1    1    6    6  503    0  0.94317828079E+02  0.19963808879E+03 -0.45351273977E+02  0.22540620497E+03  0.00000000000E+00 0. -1.
         -1    1    6    6    0  503  0.71185259096E+02  0.27284895605E+03 -0.15144524519E+03  0.32007742223E+03  0.00000000000E+00 0.  1.
<mgrwt>
<rscale>  0 0.14304199E+04</rscale>
<asrwt>0</asrwt>
<pdfrwt beam="1">  1        2 0.87351545E-01 0.14304199E+04</pdfrwt>
<pdfrwt beam="2">  1       -1 0.13860209E+00 0.14304199E+04</pdfrwt>
<totfact> 0.25320311E+01</totfact>
</mgrwt>
</event>
<event>
12    6  0.1553355E-007  0.1347636E+04  0.7818608E-02  0.8992620E-01
         -1   -1    0    0    0  501 -0.00000000000E+00  0.00000000000E+00  0.22547020288E+03  0.22547020288E+03  0.00000000000E+00 0.  1.
          2   -1    0    0  501    0  0.00000000000E+00 -0.00000000000E+00 -0.20137055141E+04  0.20137055141E+04  0.00000000000E+00 0. -1.
         24    2    1    2    0    0 -0.29168721820E+03  0.21552207666E+03 -0.54101912678E+03  0.65608188940E+03  0.78807050839E+02 0.  0.
        254    2    1    2    0    0  0.29168721820E+03 -0.21552207666E+03 -0.12472161845E+04  0.15830938276E+04  0.90504511350E+03 0.  0.
         23    2    4    4    0    0 -0.17458934371E+03 -0.39900553690E+03 -0.74456749973E+03  0.86762285654E+03  0.93283450449E+02 0.  0.
         23    2    4    4    0    0  0.46627656190E+03  0.18348346024E+03 -0.50264868475E+03  0.71547097109E+03  0.90349310071E+02 0.  0.
          4    1    3    3  502    0 -0.28519331096E+03  0.22123490417E+03 -0.51681744466E+03  0.63038113752E+03  0.00000000000E+00 0. -1.
         -3    1    3    3    0  502 -0.64939072338E+01 -0.57128275066E+01 -0.24201682125E+02  0.25700751876E+02  0.00000000000E+00 0.  1.
         11    1    5    5    0    0 -0.27600854136E+02 -0.16810148296E+03 -0.25347931431E+03  0.30540412327E+03  0.00000000000E+00 0.  1.
        -11    1    5    5    0    0 -0.14698848957E+03 -0.23090405394E+03 -0.49108818541E+03  0.56221873328E+03  0.00000000000E+00 0. -1.
          2    1    6    6  503    0  0.46623750783E+03  0.17193342179E+03 -0.48500854598E+03  0.69438591929E+03  0.00000000000E+00 0. -1.
         -2    1    6    6    0  503  0.39054071284E-01  0.11550038456E+02 -0.17640138772E+02  0.21085051801E+02  0.00000000000E+00 0.  1.
<mgrwt>
<rscale>  0 0.13476358E+04</rscale>
<asrwt>0</asrwt>
<pdfrwt beam="1">  1        2 0.30980085E+00 0.13476358E+04</pdfrwt>
<pdfrwt beam="2">  1       -1 0.34687723E-01 0.13476358E+04</pdfrwt>
<totfact> 0.57656354E+01</totfact>
</mgrwt>
</event>
<event>
12    6  0.1553355E-007  0.1469357E+04  0.7818608E-02  0.8905089E-01
         -1   -1    0    0    0  501 -0.00000000000E+00  0.00000000000E+00  0.21198988918E+03  0.21198988918E+03  0.00000000000E+00 0.  1.
          2   -1    0    0  501    0  0.00000000000E+00 -0.00000000000E+00 -0.25461253347E+04  0.25461253347E+04  0.00000000000E+00 0. -1.
         24    2    1    2    0    0  0.14029750294E+03 -0.19908823542E+03 -0.14231472668E+04  0.14459141162E+04  0.77459497397E+02 0.  0.
        254    2    1    2    0    0 -0.14029750294E+03  0.19908823542E+03 -0.91098817879E+03  0.13122011077E+04  0.91249809334E+03 0.  0.
         23    2    4    4    0    0  0.23210319161E+03 -0.25118125121E+03 -0.34184347505E+03  0.49179231866E+03  0.89659415260E+02 0.  0.
         23    2    4    4    0    0 -0.37240069454E+03  0.45026948663E+03 -0.56914470373E+03  0.82040878904E+03  0.87863527501E+02 0.  0.
          4    1    3    3  502    0  0.13695632044E+03 -0.15291082315E+03 -0.10474970636E+04  0.10674215905E+04  0.00000000000E+00 0. -1.
         -3    1    3    3    0  502  0.33411824992E+01 -0.46177412271E+02 -0.37565020314E+03  0.37849252572E+03  0.00000000000E+00 0.  1.
         11    1    5    5    0    0  0.20973017917E+02 -0.15397327967E+02 -0.69641492200E+02  0.74343006563E+02  0.00000000000E+00 0.  1.
        -11    1    5    5    0    0  0.21113017369E+03 -0.23578392324E+03 -0.27220198285E+03  0.41744931210E+03  0.00000000000E+00 0. -1.
          1    1    6    6  503    0 -0.10819102663E+03  0.13381563988E+03 -0.22585647498E+03  0.28394202051E+03  0.00000000000E+00 0. -1.
         -1    1    6    6    0  503 -0.26420966791E+03  0.31645384674E+03 -0.34328822875E+03  0.53646676853E+03  0.00000000000E+00 0.  1.
<mgrwt>
<rscale>  0 0.14693574E+04</rscale>
<asrwt>0</asrwt>
<pdfrwt beam="1">  1        2 0.39171161E+00 0.14693574E+04</pdfrwt>
<pdfrwt beam="2">  1       -1 0.32613828E-01 0.14693574E+04</pdfrwt>
<totfact> 0.31879728E+01</totfact>
</mgrwt>
</event>
<event>
12    6  0.1553355E-007  0.1666407E+04  0.7818608E-02  0.8780759E-01
         -1   -1    0    0    0  501 -0.00000000000E+00  0.00000000000E+00  0.64829646578E+03  0.64829646578E+03  0.00000000000E+00 0.  1.
          2   -1    0    0  501    0  0.00000000000E+00 -0.00000000000E+00 -0.10708499433E+04  0.10708499433E+04  0.00000000000E+00 0. -1.
         24    2    1    2    0    0  0.39776437804E+03  0.46369534984E+02  0.29386253932E+03  0.50322648183E+03  0.80715957448E+02 0.  0.
        254    2    1    2    0    0 -0.39776437804E+03 -0.46369534984E+02 -0.71641601680E+03  0.12159199272E+04  0.89713027261E+03 0.  0.
         23    2    4    4    0    0 -0.67298347709E+03  0.20805542879E+02 -0.43953737834E+03  0.80917066552E+03  0.90688631769E+02 0.  0.
         23    2    4    4    0    0  0.27521909905E+03 -0.67175077864E+02 -0.27687863846E+03  0.40674926168E+03  0.92331673187E+02 0.  0.
          4    1    3    3  502    0  0.20404160763E+03 -0.97743578005E+01  0.11983121647E+03  0.23682912860E+03  0.00000000000E+00 0. -1.
         -1    1    3    3    0  502  0.19372277041E+03  0.56143892785E+02  0.17403132286E+03  0.26639735323E+03  0.00000000000E+00 0.  1.
         11    1    5    5    0    0 -0.47425752138E+03 -0.22377903366E+02 -0.28504521267E+03  0.55377950523E+03  0.00000000000E+00 0.  1.
        -11    1    5    5    0    0 -0.19872595571E+03  0.43183446245E+02 -0.15449216567E+03  0.25539116030E+03  0.00000000000E+00 0. -1.
          3    1    6    6  503    0  0.56210118498E+02 -0.45388057205E+02 -0.36890124016E+02  0.81120493147E+02  0.00000000000E+00 0. -1.
         -3    1    6    6    0  503  0.21900898055E+03 -0.21787020658E+02 -0.23998851444E+03  0.32562876853E+03  0.00000000000E+00 0.  1.
<mgrwt>
<rscale>  0 0.16664072E+04</rscale>
<asrwt>0</asrwt>
<pdfrwt beam="1">  1        2 0.16474614E+00 0.16664072E+04</pdfrwt>
<pdfrwt beam="2">  1       -1 0.99737918E-01 0.16664072E+04</pdfrwt>
<totfact> 0.23706129E+01</totfact>
</mgrwt>
</event>
<event>
12    6  0.1553355E-007  0.1818674E+04  0.7818608E-02  0.8696431E-01
          2   -1    0    0  501    0  0.00000000000E+00  0.00000000000E+00  0.19084975326E+04  0.19084975326E+04  0.00000000000E+00 0. -1.
         -1   -1    0    0    0  501 -0.00000000000E+00 -0.00000000000E+00 -0.43326972485E+03  0.43326972485E+03  0.00000000000E+00 0.  1.
         24    2    1    2    0    0  0.48231564600E+03  0.48478114479E+03  0.60577851280E+03  0.91704716101E+03  0.79791905863E+02 0.  0.
        254    2    1    2    0    0 -0.48231564600E+03 -0.48478114479E+03  0.86944929491E+03  0.14247200964E+04  0.89791098443E+03 0.  0.
         23    2    4    4    0    0  0.19186213030E+03 -0.19751667483E+03  0.61187614981E+01  0.28865303262E+03  0.86366776717E+02 0.  0.
         23    2    4    4    0    0 -0.67417777630E+03 -0.28726446996E+03  0.86333053341E+03  0.11360670638E+04  0.90951710969E+02 0.  0.
          4    1    3    3  502    0  0.69169890925E+02  0.62052992560E+02  0.12114142212E+03  0.15267708358E+03  0.00000000000E+00 0. -1.
         -3    1    3    3    0  502  0.41314575507E+03  0.42272815223E+03  0.48463709067E+03  0.76437007743E+03  0.00000000000E+00 0.  1.
         11    1    5    5    0    0  0.13862978093E+03 -0.11493605680E+03 -0.32676973617E+02  0.18301993859E+03  0.00000000000E+00 0. -1.
        -11    1    5    5    0    0  0.53232349370E+02 -0.82580618024E+02  0.38795735115E+02  0.10563309404E+03  0.00000000000E+00 0.  1.
          3    1    6    6  503    0 -0.55195564708E+03 -0.21576543535E+03  0.74183363655E+03  0.94948770595E+03  0.00000000000E+00 0. -1.
         -3    1    6    6    0  503 -0.12222212922E+03 -0.71499034608E+02  0.12149689686E+03  0.18657935783E+03  0.00000000000E+00 0.  1.
<mgrwt>
<rscale>  0 0.18186745E+04</rscale>
<asrwt>0</asrwt>
<pdfrwt beam="1">  1        2 0.29361500E+00 0.18186745E+04</pdfrwt>
<pdfrwt beam="2">  1       -1 0.66656882E-01 0.18186745E+04</pdfrwt>
<totfact> 0.18388154E+01</totfact>
</mgrwt>
</event>
<event>
12    6  0.1553355E-007  0.1609896E+04  0.7818608E-02  0.8814491E-01
         -1   -1    0    0    0  501 -0.00000000000E+00  0.00000000000E+00  0.27160475771E+03  0.27160475771E+03  0.00000000000E+00 0.  1.
          2   -1    0    0  501    0  0.00000000000E+00 -0.00000000000E+00 -0.23856049456E+04  0.23856049456E+04  0.00000000000E+00 0. -1.
         24    2    1    2    0    0  0.16949034354E+03  0.49240298954E+03 -0.10418825418E+04  0.11674677095E+04  0.79208213590E+02 0.  0.
        254    2    1    2    0    0 -0.16949034354E+03 -0.49240298954E+03 -0.10721176461E+04  0.14897419938E+04  0.89370424662E+03 0.  0.
         23    2    4    4    0    0 -0.32333127141E+03 -0.40923792074E+03 -0.15488549487E+03  0.55163363642E+03  0.91056935294E+02 0.  0.
         23    2    4    4    0    0  0.15384092787E+03 -0.83165068801E+02 -0.91723215119E+03  0.93810835738E+03  0.90271874072E+02 0.  0.
          2    1    3    3  502    0  0.12630648623E+03  0.43809769078E+03 -0.87309036514E+03  0.98497192895E+03  0.00000000000E+00 0. -1.
         -1    1    3    3    0  502  0.43183857312E+02  0.54305298757E+02 -0.16879217668E+03  0.18249578054E+03  0.00000000000E+00 0.  1.
         11    1    5    5    0    0 -0.17661377107E+03 -0.16051585748E+03 -0.46213602486E+02  0.24309146774E+03  0.00000000000E+00 0.  1.
        -11    1    5    5    0    0 -0.14671750034E+03 -0.24872206326E+03 -0.10867189238E+03  0.30854216868E+03  0.00000000000E+00 0. -1.
          4    1    6    6  503    0  0.10060375463E+03 -0.36662416081E+01 -0.50216791607E+03  0.51215932355E+03  0.00000000000E+00 0. -1.
         -4    1    6    6    0  503  0.53237173241E+02 -0.79498827193E+02 -0.41506423513E+03  0.42594903383E+03  0.00000000000E+00 0.  1.
<mgrwt>
<rscale>  0 0.16098965E+04</rscale>
<asrwt>0</asrwt>
<pdfrwt beam="1">  1        2 0.36701615E+00 0.16098965E+04</pdfrwt>
<pdfrwt beam="2">  1       -1 0.41785347E-01 0.16098965E+04</pdfrwt>
<totfact> 0.24888390E+01</totfact>
</mgrwt>
</event>
<event>
12    6  0.1553355E-007  0.2113492E+04  0.7818608E-02  0.8555323E-01
         -1   -1    0    0    0  501 -0.00000000000E+00  0.00000000000E+00  0.61436726046E+03  0.61436726046E+03  0.00000000000E+00 0.  1.
          2   -1    0    0  501    0  0.00000000000E+00 -0.00000000000E+00 -0.18176622024E+04  0.18176622024E+04  0.00000000000E+00 0. -1.
         24    2    1    2    0    0 -0.29174383023E+02 -0.83203027874E+03 -0.22613946254E+03  0.86650726631E+03  0.81057119885E+02 0.  0.
        254    2    1    2    0    0  0.29174383023E+02  0.83203027874E+03 -0.97715547941E+03  0.15655221966E+04  0.89604764809E+03 0.  0.
         23    2    4    4    0    0  0.37326010909E+02 -0.10275022886E+03  0.73577532981E+02  0.15621373091E+03  0.83894193754E+02 0.  0.
         23    2    4    4    0    0 -0.81516278863E+01  0.93478050760E+03 -0.10507330124E+04  0.14093084657E+04  0.90716269902E+02 0.  0.
          4    1    3    3  502    0  0.17869743598E+02 -0.13254782289E+03 -0.16436926193E+02  0.13475320268E+03  0.00000000000E+00 0. -1.
         -3    1    3    3    0  502 -0.47044126621E+02 -0.69948245584E+03 -0.20970253635E+03  0.73175406362E+03  0.00000000000E+00 0.  1.
         11    1    5    5    0    0  0.41853063375E+02 -0.51272271864E+02 -0.14203512205E+00  0.66185685386E+02  0.00000000000E+00 0. -1.
        -11    1    5    5    0    0 -0.45270524657E+01 -0.51477956993E+02  0.73719568103E+02  0.90028045528E+02  0.00000000000E+00 0.  1.
          2    1    6    6  503    0  0.22650124420E+02  0.11217065992E+03 -0.15644239378E+03  0.19382855222E+03  0.00000000000E+00 0. -1.
         -2    1    6    6    0  503 -0.30801752306E+02  0.82260984767E+03 -0.89429061861E+03  0.12154799134E+04  0.00000000000E+00 0.  1.
<mgrwt>
<rscale>  0 0.21134920E+04</rscale>
<asrwt>0</asrwt>
<pdfrwt beam="1">  1        2 0.27964034E+00 0.21134920E+04</pdfrwt>
<pdfrwt beam="2">  1       -1 0.94518041E-01 0.21134920E+04</pdfrwt>
<totfact> 0.95764444E+00</totfact>
</mgrwt>
</event>
<event>
12    6  0.1553355E-007  0.1420162E+04  0.7818608E-02  0.8939352E-01
          2   -1    0    0  501    0  0.00000000000E+00  0.00000000000E+00  0.64705099908E+03  0.64705099908E+03  0.00000000000E+00 0. -1.
         -1   -1    0    0    0  501 -0.00000000000E+00 -0.00000000000E+00 -0.77925061600E+03  0.77925061600E+03  0.00000000000E+00 0.  1.
         24    2    1    2    0    0 -0.39489680839E+02 -0.48268141842E+02  0.37524142443E+03  0.38877010622E+03  0.80292094710E+02 0.  0.
        254    2    1    2    0    0  0.39489680839E+02  0.48268141842E+02 -0.50744104135E+03  0.10375315089E+04  0.90282111906E+03 0.  0.
         23    2    4    4    0    0  0.16636621150E+03 -0.14959713032E+03 -0.68704926528E+03  0.72828541322E+03  0.91136888513E+02 0.  0.
         23    2    4    4    0    0 -0.12687653066E+03  0.19786527217E+03  0.17960822393E+03  0.30924609564E+03  0.90142740151E+02 0.  0.
          2    1    3    3  502    0 -0.29003290882E+02 -0.65152045432E+02  0.34689601812E+03  0.35415085387E+03  0.00000000000E+00 0. -1.
         -1    1    3    3    0  502 -0.10486389956E+02  0.16883903590E+02  0.28345406309E+02  0.34619252355E+02  0.00000000000E+00 0.  1.
         11    1    5    5    0    0  0.16591285887E+03 -0.14119715108E+03 -0.68605330624E+03  0.71981445610E+03  0.00000000000E+00 0.  1.
        -11    1    5    5    0    0  0.45335263325E+00 -0.83999792482E+01 -0.99595903912E+00  0.84709571117E+01  0.00000000000E+00 0. -1.
          1    1    6    6  503    0 -0.33232346039E+02  0.18947446574E+01  0.13973181809E+02  0.36100258869E+02  0.00000000000E+00 0. -1.
         -1    1    6    6    0  503 -0.93644184624E+02  0.19597052751E+03  0.16563504212E+03  0.27314583677E+03  0.00000000000E+00 0.  1.
<mgrwt>
<rscale>  0 0.14201618E+04</rscale>
<asrwt>0</asrwt>
<pdfrwt beam="1">  1        2 0.99546308E-01 0.14201618E+04</pdfrwt>
<pdfrwt beam="2">  1       -1 0.11988471E+00 0.14201618E+04</pdfrwt>
<totfact> 0.31166483E+01</totfact>
</mgrwt>
</event>
<event>
12    6  0.1553355E-007  0.1550741E+04  0.7818608E-02  0.8851394E-01
          2   -1    0    0  501    0  0.00000000000E+00  0.00000000000E+00  0.89058286134E+03  0.89058286134E+03  0.00000000000E+00 0. -1.
         -1   -1    0    0    0  501 -0.00000000000E+00 -0.00000000000E+00 -0.67506308977E+03  0.67506308977E+03  0.00000000000E+00 0.  1.
         24    2    1    2    0    0 -0.10818235473E+02 -0.49775094350E+03  0.19030717894E+02  0.50449139663E+03  0.79223513393E+02 0.  0.
        254    2    1    2    0    0  0.10818235473E+02  0.49775094350E+03  0.19648905368E+03  0.10611545545E+04  0.91627943572E+03 0.  0.
         23    2    4    4    0    0 -0.23705550019E+03  0.22756671580E+02  0.40447754509E+03  0.47787975947E+03  0.89742987248E+02 0.  0.
         23    2    4    4    0    0  0.24787373566E+03  0.47499427192E+03 -0.20798849141E+03  0.58327479502E+03  0.99445094236E+02 0.  0.
          4    1    3    3  502    0 -0.17854599746E+02 -0.49543081475E+03  0.14829597754E+02  0.49597418875E+03  0.00000000000E+00 0. -1.
         -3    1    3    3    0  502  0.70363642738E+01 -0.23201287491E+01  0.42011201400E+01  0.85172078780E+01  0.00000000000E+00 0.  1.
         11    1    5    5    0    0 -0.32303850201E+02 -0.23581881452E+02  0.36071200504E+02  0.53858846779E+02  0.00000000000E+00 0. -1.
        -11    1    5    5    0    0 -0.20475164998E+03  0.46338553032E+02  0.36840634458E+03  0.42402091269E+03  0.00000000000E+00 0.  1.
          1    1    6    6  503    0  0.13905871497E+03  0.35139275641E+03 -0.11962336102E+03  0.39638862745E+03  0.00000000000E+00 0. -1.
         -1    1    6    6    0  503  0.10881502069E+03  0.12360151551E+03 -0.88365130394E+02  0.18688616758E+03  0.00000000000E+00 0.  1.
<mgrwt>
<rscale>  0 0.15507413E+04</rscale>
<asrwt>0</asrwt>
<pdfrwt beam="1">  1        2 0.13701275E+00 0.15507413E+04</pdfrwt>
<pdfrwt beam="2">  1       -1 0.10385586E+00 0.15507413E+04</pdfrwt>
<totfact> 0.28558065E+01</totfact>
</mgrwt>
</event>
<event>
12    6  0.1553355E-007  0.1305232E+04  0.7818608E-02  0.9025426E-01
         -1   -1    0    0    0  501 -0.00000000000E+00  0.00000000000E+00  0.36745394465E+03  0.36745394465E+03  0.00000000000E+00 0.  1.
          2   -1    0    0  501    0  0.00000000000E+00 -0.00000000000E+00 -0.11590777798E+04  0.11590777798E+04  0.00000000000E+00 0. -1.
         24    2    1    2    0    0 -0.86827968008E+02  0.20822894446E+03  0.73922064253E+02  0.24680487784E+03  0.67452107471E+02 0.  0.
        254    2    1    2    0    0  0.86827968008E+02 -0.20822894446E+03 -0.86554589945E+03  0.12797268466E+04  0.91522276449E+03 0.  0.
         23    2    4    4    0    0 -0.38602484525E+03 -0.56391066294E+02 -0.20989604625E+03  0.45213684504E+03  0.90422579592E+02 0.  0.
         23    2    4    4    0    0  0.47285281326E+03 -0.15183787817E+03 -0.65564985319E+03  0.82759000160E+03  0.91563947622E+02 0.  0.
          2    1    3    3  502    0 -0.11041652225E+02  0.76971785849E+02  0.52284568749E+02  0.93702988373E+02  0.00000000000E+00 0. -1.
         -3    1    3    3    0  502 -0.75786315783E+02  0.13125715861E+03  0.21637495504E+02  0.15310188947E+03  0.00000000000E+00 0.  1.
         11    1    5    5    0    0 -0.17264957160E+02  0.12893582586E+02 -0.27511721065E+02  0.34945929857E+02  0.00000000000E+00 0. -1.
        -11    1    5    5    0    0 -0.36875988809E+03 -0.69284648880E+02 -0.18238432519E+03  0.41719091518E+03  0.00000000000E+00 0.  1.
          3    1    6    6  503    0  0.65020325335E+02  0.88943053392E+01 -0.68659055199E+02  0.94977982896E+02  0.00000000000E+00 0. -1.
         -3    1    6    6    0  503  0.40783248793E+03 -0.16073218351E+03 -0.58699079800E+03  0.73261201871E+03  0.00000000000E+00 0.  1.
<mgrwt>
<rscale>  0 0.13052321E+04</rscale>
<asrwt>0</asrwt>
<pdfrwt beam="1">  1        2 0.17831966E+00 0.13052321E+04</pdfrwt>
<pdfrwt beam="2">  1       -1 0.56531377E-01 0.13052321E+04</pdfrwt>
<totfact> 0.70922903E+01</totfact>
</mgrwt>
</event>
<event>
12    6  0.1553355E-007  0.2050423E+04  0.7818608E-02  0.8583402E-01
         -1   -1    0    0    0  501 -0.00000000000E+00  0.00000000000E+00  0.14187055548E+04  0.14187055548E+04  0.00000000000E+00 0.  1.
          2   -1    0    0  501    0  0.00000000000E+00 -0.00000000000E+00 -0.74085746729E+03  0.74085746729E+03  0.00000000000E+00 0. -1.
         24    2    1    2    0    0  0.70302326240E+03  0.30197042345E+03 -0.50180324644E+02  0.77142835551E+03  0.84591953476E+02 0.  0.
        254    2    1    2    0    0 -0.70302326240E+03 -0.30197042345E+03  0.72802841216E+03  0.13881346666E+04  0.90081332113E+03 0.  0.
         23    2    4    4    0    0 -0.58317132872E+03  0.18770686448E+03  0.59845866967E+03  0.86134115358E+03  0.91832118239E+02 0.  0.
         23    2    4    4    0    0 -0.11985193368E+03 -0.48967728793E+03  0.12956974249E+03  0.52679351299E+03  0.81084861986E+02 0.  0.
          2    1    3    3  502    0  0.34748246958E+03  0.15131953873E+03 -0.67200097573E+02  0.38491235701E+03  0.00000000000E+00 0. -1.
         -1    1    3    3    0  502  0.35554079282E+03  0.15065088472E+03  0.17019772928E+02  0.38651599850E+03  0.00000000000E+00 0.  1.
         11    1    5    5    0    0 -0.41642518378E+03  0.14292215215E+03  0.48348523870E+03  0.65390721918E+03  0.00000000000E+00 0.  1.
        -11    1    5    5    0    0 -0.16674614495E+03  0.44784712332E+02  0.11497343097E+03  0.20743393440E+03  0.00000000000E+00 0. -1.
          1    1    6    6  503    0 -0.11057863483E+03 -0.34664078906E+03  0.65114248218E+02  0.36963135209E+03  0.00000000000E+00 0.  1.
         -1    1    6    6    0  503 -0.92732988453E+01 -0.14303649886E+03  0.64455494272E+02  0.15716216090E+03  0.00000000000E+00 0. -1.
<mgrwt>
<rscale>  0 0.20504230E+04</rscale>
<asrwt>0</asrwt>
<pdfrwt beam="1">  1        2 0.11397807E+00 0.20504230E+04</pdfrwt>
<pdfrwt beam="2">  1       -1 0.21826239E+00 0.20504230E+04</pdfrwt>
<totfact> 0.45481865E+00</totfact>
</mgrwt>
</event>
<event>
12    6  0.1553355E-007  0.1034670E+04  0.7818608E-02  0.9271316E-01
          2   -1    0    0  501    0  0.00000000000E+00  0.00000000000E+00  0.18465551962E+04  0.18465551962E+04  0.00000000000E+00 0. -1.
         -1   -1    0    0    0  501 -0.00000000000E+00 -0.00000000000E+00 -0.14493777133E+03  0.14493777133E+03  0.00000000000E+00 0.  1.
         24    2    1    2    0    0 -0.81203970596E+01  0.11416599217E+03  0.38175424745E+03  0.40597576788E+03  0.77331779021E+02 0.  0.
        254    2    1    2    0    0  0.81203970596E+01 -0.11416599217E+03  0.13198631774E+04  0.15855171997E+04  0.87104888996E+03 0.  0.
         23    2    4    4    0    0  0.31148452711E+03  0.18738591404E+03  0.31782563362E+03  0.49154001854E+03  0.91991113905E+02 0.  0.
         23    2    4    4    0    0 -0.30336413005E+03 -0.30155190621E+03  0.10020375438E+04  0.10939771811E+04  0.98709098254E+02 0.  0.
          2    1    3    3  502    0  0.34765054482E+01 -0.44718061567E+01 -0.38386337868E+00  0.56771904608E+01  0.00000000000E+00 0. -1.
         -1    1    3    3    0  502 -0.11596902508E+02  0.11863779832E+03  0.38213811083E+03  0.40029857742E+03  0.00000000000E+00 0.  1.
         11    1    5    5    0    0  0.30669628978E+03  0.15783980989E+03  0.28923386634E+03  0.45014691956E+03  0.00000000000E+00 0. -1.
        -11    1    5    5    0    0  0.47882373226E+01  0.29546104153E+02  0.28591767277E+02  0.41393098981E+02  0.00000000000E+00 0.  1.
          1    1    6    6  503    0 -0.18008413712E+03 -0.23050762184E+03  0.74163868308E+03  0.79724023757E+03  0.00000000000E+00 0. -1.
         -1    1    6    6    0  503 -0.12327999293E+03 -0.71044284363E+02  0.26039886075E+03  0.29673694357E+03  0.00000000000E+00 0.  1.
<mgrwt>
<rscale>  0 0.10346702E+04</rscale>
<asrwt>0</asrwt>
<pdfrwt beam="1">  1        2 0.28408540E+00 0.10346702E+04</pdfrwt>
<pdfrwt beam="2">  1       -1 0.22298120E-01 0.10346702E+04</pdfrwt>
<totfact> 0.15738698E+02</totfact>
</mgrwt>
</event>
<event>
12    6  0.1553355E-007  0.1961688E+04  0.7818608E-02  0.8624745E-01
         -1   -1    0    0    0  501 -0.00000000000E+00  0.00000000000E+00  0.61395076493E+03  0.61395076493E+03  0.00000000000E+00 0.  1.
          2   -1    0    0  501    0  0.00000000000E+00 -0.00000000000E+00 -0.15669896684E+04  0.15669896684E+04  0.00000000000E+00 0. -1.
         24    2    1    2    0    0  0.22211750497E+03  0.72501339139E+03 -0.21837293134E+03  0.79326387653E+03  0.81241842426E+02 0.  0.
        254    2    1    2    0    0 -0.22211750497E+03 -0.72501339139E+03 -0.73466597209E+03  0.13876765568E+04  0.90051736903E+03 0.  0.
         23    2    4    4    0    0 -0.18587137457E+03 -0.92575421366E+03 -0.59006850368E+03  0.11171233796E+04  0.90635392057E+02 0.  0.
         23    2    4    4    0    0 -0.36246130392E+02  0.20074082227E+03 -0.14459746842E+03  0.27055317713E+03  0.10334376657E+03 0.  0.
          4    1    3    3  502    0  0.18694713074E+03  0.59108328821E+03 -0.20998191411E+03  0.65453883579E+03  0.00000000000E+00 0. -1.
         -3    1    3    3    0  502  0.35170374221E+02  0.13393010317E+03 -0.83910172303E+01  0.13872504074E+03  0.00000000000E+00 0.  1.
         11    1    5    5    0    0 -0.19310204671E+03 -0.88354632888E+03 -0.55019368292E+03  0.10586102231E+04  0.00000000000E+00 0.  1.
        -11    1    5    5    0    0  0.72306721383E+01 -0.42207884779E+02 -0.39874820758E+02  0.58513156534E+02  0.00000000000E+00 0. -1.
          3    1    6    6  503    0  0.31875067792E+01 -0.10555757456E+02  0.79195839137E+00  0.11054927093E+02  0.00000000000E+00 0. -1.
         -3    1    6    6    0  503 -0.39433637171E+02  0.21129657973E+03 -0.14538942681E+03  0.25949825004E+03  0.00000000000E+00 0.  1.
<mgrwt>
<rscale>  0 0.19616875E+04</rscale>
<asrwt>0</asrwt>
<pdfrwt beam="1">  1        2 0.24107533E+00 0.19616875E+04</pdfrwt>
<pdfrwt beam="2">  1       -1 0.94453964E-01 0.19616875E+04</pdfrwt>
<totfact> 0.13402240E+01</totfact>
</mgrwt>
</event>
<event>
12    6  0.1553355E-007  0.1626092E+04  0.7818608E-02  0.8804677E-01
         -1   -1    0    0    0  501 -0.00000000000E+00  0.00000000000E+00  0.12494847342E+04  0.12494847342E+04  0.00000000000E+00 0.  1.
          2   -1    0    0  501    0  0.00000000000E+00 -0.00000000000E+00 -0.52905330622E+03  0.52905330622E+03  0.00000000000E+00 0. -1.
         24    2    1    2    0    0  0.51704262999E+03 -0.21058438627E+03  0.25249937214E+03  0.61778213880E+03  0.78866806194E+02 0.  0.
        254    2    1    2    0    0 -0.51704262999E+03  0.21058438627E+03  0.46793205587E+03  0.11607559017E+04  0.90372284987E+03 0.  0.
         23    2    4    4    0    0 -0.69776242005E+03  0.10111362812E+03  0.87757107370E+02  0.71662502996E+03  0.93561546776E+02 0.  0.
         23    2    4    4    0    0  0.18071979007E+03  0.10947075815E+03  0.38017494850E+03  0.44413087171E+03  0.89865178588E+02 0.  0.
          2    1    3    3  502    0  0.88260977745E+01 -0.26200234130E+01 -0.58658011590E+01  0.10916599647E+02  0.00000000000E+00 0. -1.
         -1    1    3    3    0  502  0.50821653221E+03 -0.20796436286E+03  0.25836517330E+03  0.60686553915E+03  0.00000000000E+00 0.  1.
         11    1    5    5    0    0 -0.15059887248E+03  0.56504396818E+02  0.38826000847E+02  0.16546971201E+03  0.00000000000E+00 0. -1.
        -11    1    5    5    0    0 -0.54716354758E+03  0.44609231303E+02  0.48931106522E+02  0.55115531795E+03  0.00000000000E+00 0.  1.
          2    1    6    6  503    0  0.18047709157E+03  0.80519759256E+02  0.35228312367E+03  0.40392921587E+03  0.00000000000E+00 0. -1.
         -2    1    6    6    0  503  0.24269849982E+00  0.28950998894E+02  0.27891824833E+02  0.40201655837E+02  0.00000000000E+00 0.  1.
<mgrwt>
<rscale>  0 0.16260923E+04</rscale>
<asrwt>0</asrwt>
<pdfrwt beam="1">  1        2 0.81392817E-01 0.16260923E+04</pdfrwt>
<pdfrwt beam="2">  1       -1 0.19222842E+00 0.16260923E+04</pdfrwt>
<totfact> 0.10744113E+01</totfact>
</mgrwt>
</event>
<event>
12    6  0.1553355E-007  0.1293305E+04  0.7818608E-02  0.9034891E-01
          2   -1    0    0  501    0  0.00000000000E+00  0.00000000000E+00  0.19647881531E+04  0.19647881531E+04  0.00000000000E+00 0. -1.
         -1   -1    0    0    0  501 -0.00000000000E+00 -0.00000000000E+00 -0.21282664275E+03  0.21282664275E+03  0.00000000000E+00 0.  1.
         24    2    1    2    0    0  0.80507912335E+01  0.13599495614E+02 -0.89561279335E+02  0.12223946454E+03  0.81679265505E+02 0.  0.
        254    2    1    2    0    0 -0.80507912335E+01 -0.13599495614E+02  0.18415227897E+04  0.20553753313E+04  0.91274958564E+03 0.  0.
         23    2    4    4    0    0 -0.39783403616E+03 -0.21295517527E+03  0.10408690629E+04  0.11385322736E+04  0.96049491758E+02 0.  0.
         23    2    4    4    0    0  0.38978324492E+03  0.19935567966E+03  0.80065372675E+03  0.91684305770E+03  0.88775769536E+02 0.  0.
          2    1    3    3  502    0 -0.23138951231E+02 -0.13385601306E+02 -0.37002909716E+01  0.26986617788E+02  0.00000000000E+00 0. -1.
         -1    1    3    3    0  502  0.31189742465E+02  0.26985096919E+02 -0.85860988364E+02  0.95252846748E+02  0.00000000000E+00 0.  1.
         11    1    5    5    0    0 -0.16510622196E+01 -0.91449508743E+01  0.42383467068E+01  0.10213702353E+02  0.00000000000E+00 0. -1.
        -11    1    5    5    0    0 -0.39618297394E+03 -0.20381022440E+03  0.10366307162E+04  0.11283185712E+04  0.00000000000E+00 0.  1.
          2    1    6    6  503    0  0.16545036867E+03  0.59273536255E+02  0.24565511366E+03  0.30204902162E+03  0.00000000000E+00 0. -1.
         -2    1    6    6    0  503  0.22433287625E+03  0.14008214340E+03  0.55499861309E+03  0.61479403608E+03  0.00000000000E+00 0.  1.
<mgrwt>
<rscale>  0 0.12933047E+04</rscale>
<asrwt>0</asrwt>
<pdfrwt beam="1">  1        2 0.30227509E+00 0.12933047E+04</pdfrwt>
<pdfrwt beam="2">  1       -1 0.32742562E-01 0.12933047E+04</pdfrwt>
<totfact> 0.68302921E+01</totfact>
</mgrwt>
</event>
<event>
12    6  0.1553355E-007  0.1095227E+04  0.7818608E-02  0.9209856E-01
          2   -1    0    0  501    0  0.00000000000E+00  0.00000000000E+00  0.19284025893E+04  0.19284025893E+04  0.00000000000E+00 0. -1.
         -1   -1    0    0    0  501 -0.00000000000E+00 -0.00000000000E+00 -0.15550723287E+03  0.15550723287E+03  0.00000000000E+00 0.  1.
         24    2    1    2    0    0 -0.37777413049E+02 -0.56222039074E+02  0.12130238015E+02  0.10595539756E+03  0.80568933110E+02 0.  0.
        254    2    1    2    0    0  0.37777413049E+02  0.56222039074E+02  0.17607651184E+04  0.19779544246E+04  0.89856655458E+03 0.  0.
         23    2    4    4    0    0 -0.18943144227E+03 -0.17374096901E+03  0.15670351545E+04  0.15905971042E+04  0.91267611246E+02 0.  0.
         23    2    4    4    0    0  0.22720885532E+03  0.22996300808E+03  0.19372996393E+03  0.38735732041E+03  0.89484891077E+02 0.  0.
          2    1    3    3  502    0 -0.92466161209E+01  0.17063512822E+02 -0.13040648148E+02  0.23382084673E+02  0.00000000000E+00 0. -1.
         -1    1    3    3    0  502 -0.28530796928E+02 -0.73285551896E+02  0.25170886163E+02  0.82573312882E+02  0.00000000000E+00 0.  1.
         11    1    5    5    0    0 -0.17329612321E+03 -0.17014048258E+03  0.12644661529E+04  0.12875767868E+04  0.00000000000E+00 0. -1.
        -11    1    5    5    0    0 -0.16135319067E+02 -0.36004864304E+01  0.30256900161E+03  0.30302031740E+03  0.00000000000E+00 0.  1.
          1    1    6    6  503    0  0.15516249255E+03  0.20642143248E+03  0.16417259779E+03  0.30600302081E+03  0.00000000000E+00 0. -1.
         -1    1    6    6    0  503  0.72046362772E+02  0.23541575603E+02  0.29557366137E+02  0.81354299601E+02  0.00000000000E+00 0.  1.
<mgrwt>
<rscale>  0 0.10952270E+04</rscale>
<asrwt>0</asrwt>
<pdfrwt beam="1">  1        2 0.29667730E+00 0.10952270E+04</pdfrwt>
<pdfrwt beam="2">  1       -1 0.23924191E-01 0.10952270E+04</pdfrwt>
<totfact> 0.12532741E+02</totfact>
</mgrwt>
</event>
<event>
12    6  0.1553355E-007  0.1626100E+04  0.7818608E-02  0.8804672E-01
         -1   -1    0    0    0  501 -0.00000000000E+00  0.00000000000E+00  0.52375177827E+03  0.52375177827E+03  0.00000000000E+00 0.  1.
          2   -1    0    0  501    0  0.00000000000E+00 -0.00000000000E+00 -0.12621447733E+04  0.12621447733E+04  0.00000000000E+00 0. -1.
         24    2    1    2    0    0 -0.11897642791E+03 -0.31053175404E+03  0.23489415854E+03  0.41586666722E+03  0.84761185214E+02 0.  0.
        254    2    1    2    0    0  0.11897642791E+03  0.31053175404E+03 -0.97328715358E+03  0.13700298844E+04  0.90504620881E+03 0.  0.
         23    2    4    4    0    0 -0.55922259853E+02 -0.26406545886E+03 -0.58048737173E+03  0.64668219328E+03  0.91511773333E+02 0.  0.
         23    2    4    4    0    0  0.17489868776E+03  0.57459721290E+03 -0.39279978185E+03  0.72334769109E+03  0.90491466606E+02 0.  0.
          4    1    3    3  502    0 -0.47603061486E+02 -0.21189324588E+03  0.11836716011E+03  0.24733698410E+03  0.00000000000E+00 0. -1.
         -3    1    3    3    0  502 -0.71373366425E+02 -0.98638508162E+02  0.11652699844E+03  0.16852968312E+03  0.00000000000E+00 0.  1.
         11    1    5    5    0    0 -0.12932027424E+02 -0.19321856184E+03 -0.47187698346E+03  0.51006718919E+03  0.00000000000E+00 0. -1.
        -11    1    5    5    0    0 -0.42990232429E+02 -0.70846897020E+02 -0.10861038827E+03  0.13661500409E+03  0.00000000000E+00 0.  1.
          3    1    6    6  503    0  0.28267093834E+02  0.87373152327E+02 -0.23941279082E+02  0.94901428785E+02  0.00000000000E+00 0.  1.
         -3    1    6    6    0  503  0.14663159393E+03  0.48722406057E+03 -0.36885850277E+03  0.62844626230E+03  0.00000000000E+00 0. -1.
<mgrwt>
<rscale>  0 0.16261003E+04</rscale>
<asrwt>0</asrwt>
<pdfrwt beam="1">  1        2 0.19417612E+00 0.16261003E+04</pdfrwt>
<pdfrwt beam="2">  1       -1 0.80577197E-01 0.16261003E+04</pdfrwt>
<totfact> 0.29163193E+01</totfact>
</mgrwt>
</event>
<event>
12    6  0.1553355E-007  0.1689900E+04  0.7818608E-02  0.8767146E-01
         -1   -1    0    0    0  501 -0.00000000000E+00  0.00000000000E+00  0.10849725460E+04  0.10849725460E+04  0.00000000000E+00 0.  1.
          2   -1    0    0  501    0  0.00000000000E+00 -0.00000000000E+00 -0.65802627087E+03  0.65802627087E+03  0.00000000000E+00 0. -1.
         24    2    1    2    0    0 -0.28765520744E+03 -0.61358377917E+02 -0.38530783991E+03  0.49145332578E+03  0.80955981984E+02 0.  0.
        254    2    1    2    0    0  0.28765520744E+03  0.61358377917E+02  0.81225411507E+03  0.12515454911E+04  0.90559317575E+03 0.  0.
         23    2    4    4    0    0 -0.15450190448E+03  0.23290941110E+03  0.69463112307E+03  0.75444624310E+03  0.92515427503E+02 0.  0.
         23    2    4    4    0    0  0.44215711193E+03 -0.17155103319E+03  0.11762299200E+03  0.49709924801E+03  0.91322645121E+02 0.  0.
          4    1    3    3  502    0 -0.26326049513E+03 -0.29455395300E+02 -0.33441262647E+03  0.42662104186E+03  0.00000000000E+00 0. -1.
         -3    1    3    3    0  502 -0.24394712310E+02 -0.31902982618E+02 -0.50895213437E+02  0.64832283928E+02  0.00000000000E+00 0.  1.
         11    1    5    5    0    0  0.13867248534E+01  0.65989584209E+02  0.15855624252E+03  0.17174583043E+03  0.00000000000E+00 0. -1.
        -11    1    5    5    0    0 -0.15588862934E+03  0.16691982690E+03  0.53607488055E+03  0.58270041267E+03  0.00000000000E+00 0.  1.
          3    1    6    6  503    0  0.32167239701E+03 -0.16653748680E+03  0.82554630823E+02  0.37151464652E+03  0.00000000000E+00 0. -1.
         -3    1    6    6    0  503  0.12048471492E+03 -0.50135463827E+01  0.35068361181E+02  0.12558460149E+03  0.00000000000E+00 0.  1.
<mgrwt>
<rscale>  0 0.16898999E+04</rscale>
<asrwt>0</asrwt>
<pdfrwt beam="1">  1        2 0.10123481E+00 0.16898999E+04</pdfrwt>
<pdfrwt beam="2">  1       -1 0.16691885E+00 0.16898999E+04</pdfrwt>
<totfact> 0.12489335E+01</totfact>
</mgrwt>
</event>
<event>
12    6  0.1553355E-007  0.1236501E+04  0.7818608E-02  0.9081494E-01
         -1   -1    0    0    0  501 -0.00000000000E+00  0.00000000000E+00  0.42041812262E+03  0.42041812262E+03  0.00000000000E+00 0.  1.
          2   -1    0    0  501    0  0.00000000000E+00 -0.00000000000E+00 -0.90917447126E+03  0.90917447126E+03  0.00000000000E+00 0. -1.
         24    2    1    2    0    0 -0.24591484153E+03  0.14437705184E+03 -0.17676318826E+03  0.34417731466E+03  0.76772109664E+02 0.  0.
        254    2    1    2    0    0  0.24591484153E+03 -0.14437705184E+03 -0.31199316038E+03  0.98541527922E+03  0.89015992833E+03 0.  0.
         23    2    4    4    0    0 -0.29539049590E+03 -0.79130086467E+02 -0.29022923388E+03  0.43209208988E+03  0.94622673207E+02 0.  0.
         23    2    4    4    0    0  0.54130533742E+03 -0.65246965370E+02 -0.21763926501E+02  0.55332318934E+03  0.91783705266E+02 0.  0.
          2    1    3    3  502    0 -0.24998694517E+03  0.14450719058E+03 -0.16691875159E+03  0.33352311842E+03  0.00000000000E+00 0. -1.
         -1    1    3    3    0  502  0.40721036477E+01 -0.13013874162E+00 -0.98444366713E+01  0.10654196243E+02  0.00000000000E+00 0.  1.
         11    1    5    5    0    0 -0.20889750609E+03 -0.88880413633E+02 -0.16977589768E+03  0.28348148337E+03  0.00000000000E+00 0.  1.
        -11    1    5    5    0    0 -0.86492989805E+02  0.97503271667E+01 -0.12045333620E+03  0.14861060651E+03  0.00000000000E+00 0. -1.
          3    1    6    6  503    0  0.54328411557E+03 -0.68976014727E+02 -0.18449397609E+02  0.54795592990E+03  0.00000000000E+00 0.  1.
         -3    1    6    6    0  503 -0.19787781525E+01  0.37290493573E+01 -0.33145288921E+01  0.53672594368E+01  0.00000000000E+00 0. -1.
<mgrwt>
<rscale>  0 0.12365006E+04</rscale>
<asrwt>0</asrwt>
<pdfrwt beam="1">  1        2 0.13987299E+00 0.12365006E+04</pdfrwt>
<pdfrwt beam="2">  1       -1 0.64679712E-01 0.12365006E+04</pdfrwt>
<totfact> 0.78711159E+01</totfact>
</mgrwt>
</event>
<event>
12    6  0.1553355E-007  0.2322269E+04  0.7818608E-02  0.8469192E-01
         -1   -1    0    0    0  501 -0.00000000000E+00  0.00000000000E+00  0.64358710367E+03  0.64358710367E+03  0.00000000000E+00 0.  1.
          2   -1    0    0  501    0  0.00000000000E+00 -0.00000000000E+00 -0.20948723086E+04  0.20948723086E+04  0.00000000000E+00 0. -1.
         24    2    1    2    0    0  0.55688750429E+03  0.79483534748E+03 -0.45200598488E+03  0.10736451200E+04  0.80731104877E+02 0.  0.
        254    2    1    2    0    0 -0.55688750429E+03 -0.79483534748E+03 -0.99927922003E+03  0.16648142922E+04  0.91168017750E+03 0.  0.
         23    2    4    4    0    0  0.20226331851E+03 -0.27793256298E+03 -0.50453384304E+03  0.61750429645E+03  0.92737251337E+02 0.  0.
         23    2    4    4    0    0 -0.75915082280E+03 -0.51690278450E+03 -0.49474537699E+03  0.10473099958E+04  0.92664873852E+02 0.  0.
          4    1    3    3  502    0  0.12846296975E+03  0.14023113617E+03 -0.66387258228E+02  0.20143181030E+03  0.00000000000E+00 0. -1.
         -3    1    3    3    0  502  0.42842453454E+03  0.65460421132E+03 -0.38561872666E+03  0.87221330970E+03  0.00000000000E+00 0.  1.
         11    1    5    5    0    0  0.16130447953E+03 -0.14692148995E+03 -0.29236390620E+03  0.36480366360E+03  0.00000000000E+00 0.  1.
        -11    1    5    5    0    0  0.40958838984E+02 -0.13101107303E+03 -0.21216993684E+03  0.25270063286E+03  0.00000000000E+00 0. -1.
          2    1    6    6  503    0 -0.82440297156E+02 -0.84394987307E+02 -0.41146626652E+02  0.12494783457E+03  0.00000000000E+00 0.  1.
         -2    1    6    6    0  503 -0.67671052564E+03 -0.43250779719E+03 -0.45359875034E+03  0.92236216123E+03  0.00000000000E+00 0. -1.
<mgrwt>
<rscale>  0 0.23222685E+04</rscale>
<asrwt>0</asrwt>
<pdfrwt beam="1">  1        2 0.32228805E+00 0.23222685E+04</pdfrwt>
<pdfrwt beam="2">  1       -1 0.99013400E-01 0.23222685E+04</pdfrwt>
<totfact> 0.59381523E+00</totfact>
</mgrwt>
</event>
<event>
12    6  0.1553355E-007  0.1530363E+04  0.7818608E-02  0.8864509E-01
          2   -1    0    0  501    0  0.00000000000E+00  0.00000000000E+00  0.48555034844E+04  0.48555034844E+04  0.00000000000E+00 0. -1.
         -1   -1    0    0    0  501 -0.00000000000E+00 -0.00000000000E+00 -0.12058538035E+03  0.12058538035E+03  0.00000000000E+00 0.  1.
         24    2    1    2    0    0 -0.32811734906E+03 -0.22424859565E+03  0.25397645759E+04  0.25719716226E+04  0.81764899818E+02 0.  0.
        254    2    1    2    0    0  0.32811734906E+03  0.22424859565E+03  0.21951535281E+04  0.24041172422E+04  0.89617647515E+03 0.  0.
         23    2    4    4    0    0  0.36742962429E+03 -0.10150990593E+03  0.34274470327E+03  0.52069984927E+03  0.91354319035E+02 0.  0.
         23    2    4    4    0    0 -0.39312275227E+02  0.32575850158E+03  0.18524088249E+04  0.18834173929E+04  0.90435419441E+02 0.  0.
          4    1    3    3  502    0 -0.26319648556E+03 -0.19181340494E+03  0.18549792041E+04  0.18833514330E+04  0.00000000000E+00 0. -1.
         -3    1    3    3    0  502 -0.64920863504E+02 -0.32435190709E+02  0.68478537182E+03  0.68862018964E+03  0.00000000000E+00 0.  1.
         11    1    5    5    0    0  0.41890243646E+02 -0.38688994536E+02  0.76894285543E+02  0.95730674081E+02  0.00000000000E+00 0. -1.
        -11    1    5    5    0    0  0.32553938064E+03 -0.62820911397E+02  0.26585041773E+03  0.42496917519E+03  0.00000000000E+00 0.  1.
          3    1    6    6  503    0 -0.15570132500E+02  0.12721258089E+03  0.49325825167E+03  0.50963631405E+03  0.00000000000E+00 0. -1.
         -3    1    6    6    0  503 -0.23742142727E+02  0.19854592069E+03  0.13591505732E+04  0.13737810788E+04  0.00000000000E+00 0.  1.
<mgrwt>
<rscale>  0 0.15303630E+04</rscale>
<asrwt>0</asrwt>
<pdfrwt beam="1">  1        2 0.74700039E+00 0.15303630E+04</pdfrwt>
<pdfrwt beam="2">  1       -1 0.18551601E-01 0.15303630E+04</pdfrwt>
<totfact> 0.13680880E+00</totfact>
</mgrwt>
</event>
<event>
12    6  0.1553355E-007  0.1434171E+04  0.7818608E-02  0.8929449E-01
         -1   -1    0    0    0  501 -0.00000000000E+00  0.00000000000E+00  0.46809473702E+03  0.46809473702E+03  0.00000000000E+00 0.  1.
          2   -1    0    0  501    0  0.00000000000E+00 -0.00000000000E+00 -0.10985200381E+04  0.10985200381E+04  0.00000000000E+00 0. -1.
         24    2    1    2    0    0 -0.36052104254E+03  0.25099864538E+03 -0.22358865818E+03  0.49931356460E+03  0.79664330995E+02 0.  0.
        254    2    1    2    0    0  0.36052104254E+03 -0.25099864538E+03 -0.40683664287E+03  0.10673012105E+04  0.88353838503E+03 0.  0.
         23    2    4    4    0    0  0.48785784236E+03  0.17377210578E+03 -0.14810753220E+03  0.54603419779E+03  0.89529240823E+02 0.  0.
         23    2    4    4    0    0 -0.12733679983E+03 -0.42477075115E+03 -0.25872911067E+03  0.52126701269E+03  0.90186995641E+02 0.  0.
          4    1    3    3  502    0 -0.80881188467E+02  0.70989668721E+02 -0.92272037148E+02  0.14175834562E+03  0.00000000000E+00 0. -1.
         -3    1    3    3    0  502 -0.27963985407E+03  0.18000897666E+03 -0.13131662103E+03  0.35755521898E+03  0.00000000000E+00 0.  1.
         11    1    5    5    0    0  0.47192635892E+03  0.14737067621E+03 -0.14386769741E+03  0.51490826251E+03  0.00000000000E+00 0.  1.
        -11    1    5    5    0    0  0.15931483447E+02  0.26401429566E+02 -0.42398347936E+01  0.31125935279E+02  0.00000000000E+00 0. -1.
          3    1    6    6  503    0  0.22242659736E+01 -0.65898021288E+02 -0.67960041321E+02  0.94689301324E+02  0.00000000000E+00 0. -1.
         -3    1    6    6    0  503 -0.12956106580E+03 -0.35887272987E+03 -0.19076906935E+03  0.42657771136E+03  0.00000000000E+00 0.  1.
<mgrwt>
<rscale>  0 0.14341708E+04</rscale>
<asrwt>0</asrwt>
<pdfrwt beam="1">  1        2 0.16900308E+00 0.14341708E+04</pdfrwt>
<pdfrwt beam="2">  1       -1 0.72014576E-01 0.14341708E+04</pdfrwt>
<totfact> 0.47048758E+01</totfact>
</mgrwt>
</event>
<event>
12    6  0.1553355E-007  0.1749104E+04  0.7818608E-02  0.8733844E-01
          2   -1    0    0  501    0  0.00000000000E+00  0.00000000000E+00  0.27341554907E+04  0.27341554907E+04  0.00000000000E+00 0. -1.
         -1   -1    0    0    0  501 -0.00000000000E+00 -0.00000000000E+00 -0.27973578225E+03  0.27973578225E+03  0.00000000000E+00 0.  1.
         24    2    1    2    0    0  0.35149054588E+03  0.18183861458E+03  0.28480026859E+02  0.40458787101E+03  0.79179213447E+02 0.  0.
        254    2    1    2    0    0 -0.35149054588E+03 -0.18183861458E+03  0.24259396816E+04  0.26093034020E+04  0.87559695014E+03 0.  0.
         23    2    4    4    0    0 -0.44780454700E+03 -0.32713423861E+03  0.84102424110E+03  0.10115573355E+04  0.91546417554E+02 0.  0.
         23    2    4    4    0    0  0.96314001121E+02  0.14529562403E+03  0.15849154405E+04  0.15977460664E+04  0.10221709279E+03 0.  0.
          4    1    3    3  502    0  0.21223548000E+03  0.11600036382E+03 -0.21060042808E+02  0.24278284284E+03  0.00000000000E+00 0. -1.
         -3    1    3    3    0  502  0.13925506589E+03  0.65838250765E+02  0.49540069667E+02  0.16180502817E+03  0.00000000000E+00 0.  1.
         11    1    5    5    0    0 -0.81144903614E+02 -0.82219093703E+02  0.12131183762E+03  0.16751428805E+03  0.00000000000E+00 0.  1.
        -11    1    5    5    0    0 -0.36665964339E+03 -0.24491514490E+03  0.71971240348E+03  0.84404304749E+03  0.00000000000E+00 0. -1.
          2    1    6    6  503    0  0.11774158259E+03  0.13188760874E+03  0.13834980568E+04  0.13947488286E+04  0.00000000000E+00 0. -1.
         -2    1    6    6    0  503 -0.21427581471E+02  0.13408015284E+02  0.20141738366E+03  0.20299723782E+03  0.00000000000E+00 0.  1.
<mgrwt>
<rscale>  0 0.17491039E+04</rscale>
<asrwt>0</asrwt>
<pdfrwt beam="1">  1        2 0.42063929E+00 0.17491039E+04</pdfrwt>
<pdfrwt beam="2">  1       -1 0.43036276E-01 0.17491039E+04</pdfrwt>
<totfact> 0.14589737E+01</totfact>
</mgrwt>
</event>
<event>
12    6  0.1553355E-007  0.1415857E+04  0.7818608E-02  0.8942420E-01
          2   -1    0    0  501    0  0.00000000000E+00  0.00000000000E+00  0.80817717121E+03  0.80817717121E+03  0.00000000000E+00 0. -1.
         -1   -1    0    0    0  501 -0.00000000000E+00 -0.00000000000E+00 -0.62011459795E+03  0.62011459795E+03  0.00000000000E+00 0.  1.
         24    2    1    2    0    0 -0.29100407707E+03 -0.23121173359E+02  0.35786502202E+03  0.46965724426E+03  0.85396671917E+02 0.  0.
        254    2    1    2    0    0  0.29100407707E+03  0.23121173359E+02 -0.16980244877E+03  0.95863452490E+03  0.89717853251E+03 0.  0.
         23    2    4    4    0    0  0.56638098578E+03  0.13684976310E+02  0.75661954209E+02  0.57879034660E+03  0.91097938378E+02 0.  0.
         23    2    4    4    0    0 -0.27537690871E+03  0.94361970494E+01 -0.24546440298E+03  0.37984417830E+03  0.90040785181E+02 0.  0.
          2    1    3    3  502    0 -0.28540525771E+03 -0.75880527253E+01  0.32309526025E+03  0.43116619402E+03  0.00000000000E+00 0. -1.
         -1    1    3    3    0  502 -0.55988193569E+01 -0.15533120634E+02  0.34769761773E+02  0.38491050240E+02  0.00000000000E+00 0.  1.
         11    1    5    5    0    0  0.37436561292E+03  0.21473276463E+02  0.80411268211E+01  0.37506715860E+03  0.00000000000E+00 0. -1.
        -11    1    5    5    0    0  0.19201537285E+03 -0.77883001530E+01  0.67620827388E+02  0.20372318800E+03  0.00000000000E+00 0.  1.
          4    1    6    6  503    0 -0.25110564816E+03  0.14434378400E+02 -0.17844736052E+03  0.30839237717E+03  0.00000000000E+00 0. -1.
         -4    1    6    6    0  503 -0.24271260546E+02 -0.49981813507E+01 -0.67017042460E+02  0.71451801135E+02  0.00000000000E+00 0.  1.
<mgrwt>
<rscale>  0 0.14158566E+04</rscale>
<asrwt>0</asrwt>
<pdfrwt beam="1">  1        2 0.12433495E+00 0.14158566E+04</pdfrwt>
<pdfrwt beam="2">  1       -1 0.95402246E-01 0.14158566E+04</pdfrwt>
<totfact> 0.40019888E+01</totfact>
</mgrwt>
</event>
<event>
12    6  0.1553355E-007  0.2210249E+04  0.7818608E-02  0.8514175E-01
         -3   -1    0    0    0  501 -0.00000000000E+00  0.00000000000E+00  0.86868993561E+03  0.86868993561E+03  0.00000000000E+00 0.  1.
          2   -1    0    0  501    0  0.00000000000E+00 -0.00000000000E+00 -0.14059097104E+04  0.14059097104E+04  0.00000000000E+00 0. -1.
         24    2    1    2    0    0 -0.53680428843E+03 -0.83393004281E+02 -0.99622062576E+03  0.11375335614E+04  0.80086395861E+02 0.  0.
        254    2    1    2    0    0  0.53680428843E+03  0.83393004281E+02  0.45900085097E+03  0.11370660846E+04  0.88720023806E+03 0.  0.
         23    2    4    4    0    0 -0.11956443727E+03 -0.26117340222E+01  0.44368881531E+03  0.46819169617E+03  0.89672870551E+02 0.  0.
         23    2    4    4    0    0  0.65636872570E+03  0.86004738304E+02  0.15312035659E+02  0.66887438847E+03  0.94560932872E+02 0.  0.
          2    1    3    3  502    0 -0.48075751515E+03 -0.68822352615E+02 -0.93277063197E+03  0.10516298572E+04  0.00000000000E+00 0. -1.
         -1    1    3    3    0  502 -0.56046773276E+02 -0.14570651666E+02 -0.63449993782E+02  0.85903704202E+02  0.00000000000E+00 0.  1.
         11    1    5    5    0    0 -0.28584087162E+02  0.23222273513E+02  0.43582486233E+02  0.57059242304E+02  0.00000000000E+00 0.  1.
        -11    1    5    5    0    0 -0.90980350112E+02 -0.25834007535E+02  0.40010632908E+03  0.41113245387E+03  0.00000000000E+00 0. -1.
          4    1    6    6  503    0  0.51012910479E+03  0.58112796821E+02 -0.26891589386E+02  0.51413223813E+03  0.00000000000E+00 0. -1.
         -4    1    6    6    0  503  0.14623962092E+03  0.27891941482E+02  0.42203625045E+02  0.15474215034E+03  0.00000000000E+00 0.  1.
<mgrwt>
<rscale>  0 0.22102485E+04</rscale>
<asrwt>0</asrwt>
<pdfrwt beam="1">  1        2 0.21629380E+00 0.22102485E+04</pdfrwt>
<pdfrwt beam="2">  1       -3 0.13364461E+00 0.22102485E+04</pdfrwt>
<totfact> 0.36015996E+00</totfact>
</mgrwt>
</event>
<event>
12    6  0.1553355E-007  0.1480559E+04  0.7818608E-02  0.8897485E-01
          2   -1    0    0  501    0  0.00000000000E+00  0.00000000000E+00  0.11194179063E+04  0.11194179063E+04  0.00000000000E+00 0. -1.
         -1   -1    0    0    0  501 -0.00000000000E+00 -0.00000000000E+00 -0.48955244863E+03  0.48955244863E+03  0.00000000000E+00 0.  1.
         24    2    1    2    0    0  0.31924551672E+03 -0.32392962759E+03  0.30957200671E+03  0.55585350629E+03  0.79310715150E+02 0.  0.
        254    2    1    2    0    0 -0.31924551672E+03  0.32392962759E+03  0.32029345095E+03  0.10531168486E+04  0.89421423528E+03 0.  0.
         23    2    4    4    0    0 -0.11955406627E+02 -0.17706849160E+03 -0.18657978818E+03  0.27160495022E+03  0.86377364865E+02 0.  0.
         23    2    4    4    0    0 -0.30729011010E+03  0.50099811919E+03  0.50687323913E+03  0.78151189841E+03  0.91728074270E+02 0.  0.
          4    1    3    3  502    0  0.75704738337E+02 -0.10875370850E+03  0.56925440695E+02  0.14421886949E+03  0.00000000000E+00 0. -1.
         -3    1    3    3    0  502  0.24354077839E+03 -0.21517591909E+03  0.25264656602E+03  0.41163463680E+03  0.00000000000E+00 0.  1.
         11    1    5    5    0    0 -0.57270291383E+01  0.84064515233E+01 -0.19037732072E+02  0.21584775477E+02  0.00000000000E+00 0.  1.
        -11    1    5    5    0    0 -0.62283774889E+01 -0.18547494313E+03 -0.16754205611E+03  0.25002017475E+03  0.00000000000E+00 0. -1.
          3    1    6    6  503    0 -0.19791167943E+03  0.38955077018E+03  0.39910562905E+03  0.59178048171E+03  0.00000000000E+00 0. -1.
         -3    1    6    6    0  503 -0.10937843067E+03  0.11144734901E+03  0.10776761009E+03  0.18973141670E+03  0.00000000000E+00 0.  1.
<mgrwt>
<rscale>  0 0.14805591E+04</rscale>
<asrwt>0</asrwt>
<pdfrwt beam="1">  1        2 0.17221814E+00 0.14805591E+04</pdfrwt>
<pdfrwt beam="2">  1       -1 0.75315762E-01 0.14805591E+04</pdfrwt>
<totfact> 0.41456352E+01</totfact>
</mgrwt>
</event>
<event>
12    6  0.1553355E-007  0.1267498E+04  0.7818608E-02  0.9055744E-01
         -1   -1    0    0    0  501 -0.00000000000E+00  0.00000000000E+00  0.16065390119E+03  0.16065390119E+03  0.00000000000E+00 0.  1.
          2   -1    0    0  501    0  0.00000000000E+00 -0.00000000000E+00 -0.25000191393E+04  0.25000191393E+04  0.00000000000E+00 0. -1.
         24    2    1    2    0    0 -0.27312831772E+03 -0.23979546276E+02 -0.29004321113E+03  0.40656144487E+03  0.77414776054E+02 0.  0.
        254    2    1    2    0    0  0.27312831772E+03  0.23979546276E+02 -0.20493220270E+04  0.22541115956E+04  0.89784420626E+03 0.  0.
         23    2    4    4    0    0  0.27681336118E+03  0.41952526137E+03 -0.13779015977E+04  0.14694229729E+04  0.89241125799E+02 0.  0.
         23    2    4    4    0    0 -0.36850434657E+01 -0.39554571509E+03 -0.67142042925E+03  0.78468862269E+03  0.91982876051E+02 0.  0.
          2    1    3    3  502    0 -0.98718167111E+02 -0.37150039509E+02 -0.14519897968E+03  0.17946627999E+03  0.00000000000E+00 0. -1.
         -1    1    3    3    0  502 -0.17441015060E+03  0.13170493233E+02 -0.14484423145E+03  0.22709516487E+03  0.00000000000E+00 0.  1.
         11    1    5    5    0    0  0.11528130516E+03  0.14958138130E+03 -0.63952471602E+03  0.66682548793E+03  0.00000000000E+00 0. -1.
        -11    1    5    5    0    0  0.16153205602E+03  0.26994388007E+03 -0.73837688171E+03  0.80259748501E+03  0.00000000000E+00 0.  1.
          3    1    6    6  503    0 -0.10356239813E+02 -0.31787267490E+03 -0.45903602336E+03  0.55844817118E+03  0.00000000000E+00 0. -1.
         -3    1    6    6    0  503  0.66711963470E+01 -0.77673040196E+02 -0.21238440589E+03  0.22624045151E+03  0.00000000000E+00 0.  1.
<mgrwt>
<rscale>  0 0.12674981E+04</rscale>
<asrwt>0</asrwt>
<pdfrwt beam="1">  1        2 0.38461833E+00 0.12674981E+04</pdfrwt>
<pdfrwt beam="2">  1       -1 0.24715985E-01 0.12674981E+04</pdfrwt>
<totfact> 0.55927294E+01</totfact>
</mgrwt>
</event>
<event>
12    6  0.1553355E-007  0.1361393E+04  0.7818608E-02  0.8982248E-01
          2   -1    0    0  501    0  0.00000000000E+00  0.00000000000E+00  0.10766423130E+04  0.10766423130E+04  0.00000000000E+00 0. -1.
         -1   -1    0    0    0  501 -0.00000000000E+00 -0.00000000000E+00 -0.43036355815E+03  0.43036355815E+03  0.00000000000E+00 0.  1.
         24    2    1    2    0    0 -0.24781111756E+03  0.18318508302E+03 -0.36439353696E+02  0.32314468289E+03  0.90152842176E+02 0.  0.
        254    2    1    2    0    0  0.24781111756E+03 -0.18318508302E+03  0.68271810851E+03  0.11838611882E+04  0.91676396780E+03 0.  0.
         23    2    4    4    0    0  0.22926406855E+03 -0.52336037614E+03  0.57580909620E+03  0.81610129893E+03  0.89426609079E+02 0.  0.
         23    2    4    4    0    0  0.18547049014E+02  0.34017529312E+03  0.10690901232E+03  0.36775988929E+03  0.88060071453E+02 0.  0.
          2    1    3    3  502    0 -0.82995760266E+01  0.20032163012E+02  0.18113595841E+02  0.28253723143E+02  0.00000000000E+00 0. -1.
         -1    1    3    3    0  502 -0.23951154154E+03  0.16315292001E+03 -0.54552949537E+02  0.29489095975E+03  0.00000000000E+00 0.  1.
         11    1    5    5    0    0  0.17696105038E+03 -0.37530277050E+03  0.46895863472E+03  0.62617057099E+03  0.00000000000E+00 0.  1.
        -11    1    5    5    0    0  0.52303018166E+02 -0.14805760564E+03  0.10685046147E+03  0.18993072794E+03  0.00000000000E+00 0. -1.
          4    1    6    6  503    0  0.35700322917E+02  0.94708890808E+02  0.58740762829E+02  0.11702463105E+03  0.00000000000E+00 0. -1.
         -4    1    6    6    0  503 -0.17153273903E+02  0.24546640231E+03  0.48168249488E+02  0.25073525824E+03  0.00000000000E+00 0.  1.
<mgrwt>
<rscale>  0 0.13613928E+04</rscale>
<asrwt>0</asrwt>
<pdfrwt beam="1">  1        2 0.16563728E+00 0.13613928E+04</pdfrwt>
<pdfrwt beam="2">  1       -1 0.66209779E-01 0.13613928E+04</pdfrwt>
<totfact> 0.57973796E+01</totfact>
</mgrwt>
</event>
<event>
12    6  0.1553355E-007  0.1418671E+04  0.7818608E-02  0.8940413E-01
          2   -1    0    0  501    0  0.00000000000E+00  0.00000000000E+00  0.19766899589E+04  0.19766899589E+04  0.00000000000E+00 0. -1.
         -1   -1    0    0    0  501 -0.00000000000E+00 -0.00000000000E+00 -0.25454529806E+03  0.25454529806E+03  0.00000000000E+00 0.  1.
         24    2    1    2    0    0  0.21785140743E+03  0.29047976711E+03  0.87873813823E+03  0.95402719705E+03  0.78418405477E+02 0.  0.
        254    2    1    2    0    0 -0.21785140743E+03 -0.29047976711E+03  0.84340652262E+03  0.12772080599E+04  0.88774328222E+03 0.  0.
         23    2    4    4    0    0 -0.35268623648E+02  0.10346929546E+03 -0.13942986708E+03  0.19890636221E+03  0.90406206517E+02 0.  0.
         23    2    4    4    0    0 -0.18258278378E+03 -0.39394906257E+03  0.98283638970E+03  0.10783016977E+04  0.90746049785E+02 0.  0.
          4    1    3    3  502    0  0.18403484882E+03  0.27862132290E+03  0.81764010333E+03  0.88319533838E+03  0.00000000000E+00 0. -1.
         -3    1    3    3    0  502  0.33816558605E+02  0.11858444213E+02  0.61098034899E+02  0.70831858676E+02  0.00000000000E+00 0.  1.
         11    1    5    5    0    0 -0.55799083452E+02  0.96000823303E+02 -0.13784044265E+03  0.17700193055E+03  0.00000000000E+00 0.  1.
        -11    1    5    5    0    0  0.20530459804E+02  0.74684721566E+01 -0.15894244248E+01  0.21904431655E+02  0.00000000000E+00 0. -1.
          1    1    6    6  503    0 -0.85343959102E+02 -0.88166684333E+02  0.27451959025E+03  0.30069579481E+03  0.00000000000E+00 0. -1.
         -1    1    6    6    0  503 -0.97238824676E+02 -0.30578237824E+03  0.70831679944E+03  0.77760590291E+03  0.00000000000E+00 0.  1.
<mgrwt>
<rscale>  0 0.14186714E+04</rscale>
<asrwt>0</asrwt>
<pdfrwt beam="1">  1        2 0.30410614E+00 0.14186714E+04</pdfrwt>
<pdfrwt beam="2">  1       -1 0.39160816E-01 0.14186714E+04</pdfrwt>
<totfact> 0.48284450E+01</totfact>
</mgrwt>
</event>
<event>
12    6  0.1553355E-007  0.1440863E+04  0.7818608E-02  0.8924759E-01
          2   -1    0    0  501    0  0.00000000000E+00  0.00000000000E+00  0.28082298454E+04  0.28082298454E+04  0.00000000000E+00 0. -1.
         -1   -1    0    0    0  501 -0.00000000000E+00 -0.00000000000E+00 -0.18482168859E+03  0.18482168859E+03  0.00000000000E+00 0.  1.
         24    2    1    2    0    0  0.18819156069E+03 -0.15964310097E+03  0.66675385009E+02  0.27231035483E+03  0.93836768815E+02 0.  0.
        254    2    1    2    0    0 -0.18819156069E+03  0.15964310097E+03  0.25567327718E+04  0.27207411792E+04  0.89702180258E+03 0.  0.
         23    2    4    4    0    0 -0.53789979742E+03  0.14919469148E+03  0.16678331085E+04  0.17610849188E+04  0.90319240987E+02 0.  0.
         23    2    4    4    0    0  0.34970823672E+03  0.10448409484E+02  0.88889966332E+03  0.95965626039E+03  0.91610624739E+02 0.  0.
          2    1    3    3  502    0  0.81852343571E+01 -0.59963089619E+01  0.31441838028E+02  0.33038507248E+02  0.00000000000E+00 0. -1.
         -1    1    3    3    0  502  0.18000632634E+03 -0.15364679200E+03  0.35233546981E+02  0.23927184759E+03  0.00000000000E+00 0.  1.
         11    1    5    5    0    0 -0.29773310254E+03  0.43809088782E+02  0.96912124223E+03  0.10147710179E+04  0.00000000000E+00 0.  1.
        -11    1    5    5    0    0 -0.24016669487E+03  0.10538560270E+03  0.69871186627E+03  0.74631390088E+03  0.00000000000E+00 0. -1.
          2    1    6    6  503    0  0.28013698179E+02  0.32435945898E+01  0.16597754683E+03  0.16835627176E+03  0.00000000000E+00 0. -1.
         -2    1    6    6    0  503  0.32169453854E+03  0.72048148943E+01  0.72292211649E+03  0.79129998863E+03  0.00000000000E+00 0.  1.
<mgrwt>
<rscale>  0 0.14408633E+04</rscale>
<asrwt>0</asrwt>
<pdfrwt beam="1">  1        2 0.43203533E+00 0.14408633E+04</pdfrwt>
<pdfrwt beam="2">  1       -1 0.28434108E-01 0.14408633E+04</pdfrwt>
<totfact> 0.28491784E+01</totfact>
</mgrwt>
</event>
<event>
12    6  0.1553355E-007  0.2215848E+04  0.7818608E-02  0.8511861E-01
         -1   -1    0    0    0  501 -0.00000000000E+00  0.00000000000E+00  0.85381947110E+03  0.85381947110E+03  0.00000000000E+00 0.  1.
          2   -1    0    0  501    0  0.00000000000E+00 -0.00000000000E+00 -0.14376527339E+04  0.14376527339E+04  0.00000000000E+00 0. -1.
         24    2    1    2    0    0 -0.86710501880E+03  0.38189129895E+02  0.83691283193E+02  0.87572016538E+03  0.80944758322E+02 0.  0.
        254    2    1    2    0    0  0.86710501880E+03 -0.38189129895E+02 -0.66752454603E+03  0.14157520397E+04  0.89746046985E+03 0.  0.
         23    2    4    4    0    0  0.54432110763E+03 -0.19807354138E+03 -0.82494561001E+03  0.10121052147E+04  0.91121403424E+02 0.  0.
         23    2    4    4    0    0  0.32278391117E+03  0.15988441149E+03  0.15742106398E+03  0.40364682494E+03  0.91634543444E+02 0.  0.
          4    1    3    3  502    0 -0.28541919988E+03  0.15162149418E+01  0.64196044438E+02  0.29255350056E+03  0.00000000000E+00 0. -1.
         -3    1    3    3    0  502 -0.58168581892E+03  0.36672914953E+02  0.19495238755E+02  0.58316666482E+03  0.00000000000E+00 0.  1.
         11    1    5    5    0    0  0.41277631733E+03 -0.11054916519E+03 -0.62832302784E+03  0.75986527318E+03  0.00000000000E+00 0. -1.
        -11    1    5    5    0    0  0.13154479030E+03 -0.87524376197E+02 -0.19662258217E+03  0.25223994153E+03  0.00000000000E+00 0.  1.
          3    1    6    6  503    0  0.32133396178E+03  0.16842801271E+03  0.15155575297E+03  0.39318272688E+03  0.00000000000E+00 0. -1.
         -3    1    6    6    0  503  0.14499493902E+01 -0.85436012177E+01  0.58653110083E+01  0.10464098061E+02  0.00000000000E+00 0.  1.
<mgrwt>
<rscale>  0 0.22158483E+04</rscale>
<asrwt>0</asrwt>
<pdfrwt beam="1">  1        2 0.22117734E+00 0.22158483E+04</pdfrwt>
<pdfrwt beam="2">  1       -1 0.13135684E+00 0.22158483E+04</pdfrwt>
<totfact> 0.70755095E+00</totfact>
</mgrwt>
</event>
<event>
12    6  0.1553355E-007  0.1322645E+04  0.7818608E-02  0.9011798E-01
         -1   -1    0    0    0  501 -0.00000000000E+00  0.00000000000E+00  0.66461846596E+03  0.66461846596E+03  0.00000000000E+00 0.  1.
          2   -1    0    0  501    0  0.00000000000E+00 -0.00000000000E+00 -0.65804281045E+03  0.65804281045E+03  0.00000000000E+00 0. -1.
         24    2    1    2    0    0 -0.22993976807E+03  0.25782789208E+03 -0.43164366531E+02  0.35722482411E+03  0.79993084369E+02 0.  0.
        254    2    1    2    0    0  0.22993976807E+03 -0.25782789208E+03  0.49740022041E+02  0.96543645231E+03  0.90013663118E+03 0.  0.
         23    2    4    4    0    0  0.15756070595E+03 -0.60935306933E+02  0.45861161357E+03  0.49697078693E+03  0.90093636129E+02 0.  0.
         23    2    4    4    0    0  0.72379062114E+02 -0.19689258515E+03 -0.40887159153E+03  0.46846566538E+03  0.90987265922E+02 0.  0.
          4    1    3    3  502    0 -0.77027523631E+02  0.10718778830E+03  0.19938458614E+02  0.13349158584E+03  0.00000000000E+00 0. -1.
         -3    1    3    3    0  502 -0.15291224443E+03  0.15064010378E+03 -0.63102825145E+02  0.22373323827E+03  0.00000000000E+00 0.  1.
         11    1    5    5    0    0  0.15040406681E+03 -0.41744845984E+02  0.31128660949E+03  0.34822890278E+03  0.00000000000E+00 0.  1.
        -11    1    5    5    0    0  0.71566391380E+01 -0.19190460948E+02  0.14732500408E+03  0.14874188416E+03  0.00000000000E+00 0. -1.
          1    1    6    6  503    0  0.28009809873E+02 -0.37438522309E+01 -0.75771577308E+02  0.80869634637E+02  0.00000000000E+00 0. -1.
         -1    1    6    6    0  503  0.44369252241E+02 -0.19314873292E+03 -0.33310001422E+03  0.38759603074E+03  0.00000000000E+00 0.  1.
<mgrwt>
<rscale>  0 0.13226449E+04</rscale>
<asrwt>0</asrwt>
<pdfrwt beam="1">  1        2 0.10123736E+00 0.13226449E+04</pdfrwt>
<pdfrwt beam="2">  1       -1 0.10224900E+00 0.13226449E+04</pdfrwt>
<totfact> 0.44853271E+01</totfact>
</mgrwt>
</event>
<event>
12    6  0.1553355E-007  0.2223708E+04  0.7818608E-02  0.8508625E-01
          2   -1    0    0  501    0  0.00000000000E+00  0.00000000000E+00  0.10007699795E+04  0.10007699795E+04  0.00000000000E+00 0. -1.
         -1   -1    0    0    0  501 -0.00000000000E+00 -0.00000000000E+00 -0.12352677348E+04  0.12352677348E+04  0.00000000000E+00 0.  1.
         24    2    1    2    0    0  0.34331589327E+03 -0.77668249875E+03 -0.46862246534E+03  0.97328645094E+03  0.81104834050E+02 0.  0.
        254    2    1    2    0    0 -0.34331589327E+03  0.77668249875E+03  0.23412471001E+03  0.12627512633E+04  0.90477890492E+03 0.  0.
         23    2    4    4    0    0  0.28818606376E+03  0.38871294014E+03  0.11901128233E+03  0.50714199178E+03  0.94235647871E+02 0.  0.
         23    2    4    4    0    0 -0.63150195703E+03  0.38796955862E+03  0.11511342768E+03  0.75560927156E+03  0.91537805802E+02 0.  0.
          2    1    3    3  502    0  0.10338338515E+03 -0.15740397200E+03 -0.11870574332E+03  0.22260994637E+03  0.00000000000E+00 0. -1.
         -1    1    3    3    0  502  0.23993250812E+03 -0.61927852676E+03 -0.34991672202E+03  0.75067650456E+03  0.00000000000E+00 0.  1.
         11    1    5    5    0    0  0.67338780174E+02  0.86094825352E+02  0.68812978418E+02  0.12915903478E+03  0.00000000000E+00 0. -1.
        -11    1    5    5    0    0  0.22084728358E+03  0.30261811479E+03  0.50198303909E+02  0.37798295699E+03  0.00000000000E+00 0.  1.
          3    1    6    6  503    0 -0.95629025169E+02  0.22784544773E+02  0.13944449580E+02  0.99289947172E+02  0.00000000000E+00 0. -1.
         -3    1    6    6    0  503 -0.53587293186E+03  0.36518501384E+03  0.10116897810E+03  0.65631932439E+03  0.00000000000E+00 0.  1.
<mgrwt>
<rscale>  0 0.22237076E+04</rscale>
<asrwt>0</asrwt>
<pdfrwt beam="1">  1        2 0.15396461E+00 0.22237076E+04</pdfrwt>
<pdfrwt beam="2">  1       -1 0.19004119E+00 0.22237076E+04</pdfrwt>
<totfact> 0.46220044E+00</totfact>
</mgrwt>
</event>
<event>
12    6  0.1553355E-007  0.2547819E+04  0.7818608E-02  0.8386145E-01
         -1   -1    0    0    0  501 -0.00000000000E+00  0.00000000000E+00  0.96356693512E+03  0.96356693512E+03  0.00000000000E+00 0.  1.
          2   -1    0    0  501    0  0.00000000000E+00 -0.00000000000E+00 -0.16842058401E+04  0.16842058401E+04  0.00000000000E+00 0. -1.
         24    2    1    2    0    0  0.95972215063E+02  0.13869259562E+03 -0.14570779814E+04  0.14686067895E+04  0.72686698321E+02 0.  0.
        254    2    1    2    0    0 -0.95972215063E+02 -0.13869259562E+03  0.73643907649E+03  0.11791659857E+04  0.90534170689E+03 0.  0.
         23    2    4    4    0    0 -0.21567288887E+03 -0.31840145924E+03  0.83535267581E+03  0.92428909581E+03  0.92746727235E+02 0.  0.
         23    2    4    4    0    0  0.11970067381E+03  0.17970886362E+03 -0.98913599318E+02  0.25487688986E+03  0.92492172002E+02 0.  0.
          4    1    3    3  502    0  0.82788010380E+02  0.78977079766E+02 -0.11367478301E+04  0.11424915156E+04  0.00000000000E+00 0. -1.
         -3    1    3    3    0  502  0.13184204682E+02  0.59715515853E+02 -0.32033015128E+03  0.32611527396E+03  0.00000000000E+00 0.  1.
         11    1    5    5    0    0 -0.83857854791E+02 -0.20581880934E+03  0.46933756764E+03  0.51929882966E+03  0.00000000000E+00 0. -1.
        -11    1    5    5    0    0 -0.13181503408E+03 -0.11258264990E+03  0.36601510817E+03  0.40499026615E+03  0.00000000000E+00 0.  1.
          1    1    6    6  503    0  0.14499050713E+02 -0.40191020657E+01  0.87015936285E+01  0.17380833831E+02  0.00000000000E+00 0. -1.
         -1    1    6    6    0  503  0.10520162310E+03  0.18372796569E+03 -0.10761519295E+03  0.23749605603E+03  0.00000000000E+00 0.  1.
<mgrwt>
<rscale>  0 0.25478187E+04</rscale>
<asrwt>0</asrwt>
<pdfrwt beam="1">  1        2 0.25910859E+00 0.25478187E+04</pdfrwt>
<pdfrwt beam="2">  1       -1 0.14824107E+00 0.25478187E+04</pdfrwt>
<totfact> 0.36456203E+00</totfact>
</mgrwt>
</event>
<event>
12    6  0.1553355E-007  0.1611086E+04  0.7818608E-02  0.8813766E-01
         -1   -1    0    0    0  501 -0.00000000000E+00  0.00000000000E+00  0.14105069247E+04  0.14105069247E+04  0.00000000000E+00 0.  1.
          2   -1    0    0  501    0  0.00000000000E+00 -0.00000000000E+00 -0.46004712944E+03  0.46004712944E+03  0.00000000000E+00 0. -1.
         24    2    1    2    0    0  0.43386426410E+02  0.50655369020E+03  0.58352182698E+03  0.77801758602E+03  0.79590316905E+02 0.  0.
        254    2    1    2    0    0 -0.43386426410E+02 -0.50655369020E+03  0.36693796832E+03  0.10925364682E+04  0.89471416588E+03 0.  0.
         23    2    4    4    0    0  0.17013862643E+03 -0.69262004360E+03  0.33785868311E+03  0.79436870417E+03  0.90573017001E+02 0.  0.
         23    2    4    4    0    0 -0.21352505284E+03  0.18606635340E+03  0.29079285212E+02  0.29816776400E+03  0.88570732192E+02 0.  0.
          4    1    3    3  502    0  0.89853262748E+01  0.85429700800E+01  0.30984272181E+02  0.33372796536E+02  0.00000000000E+00 0. -1.
         -1    1    3    3    0  502  0.34401100135E+02  0.49801072012E+03  0.55253755480E+03  0.74464478949E+03  0.00000000000E+00 0.  1.
         11    1    5    5    0    0 -0.89653626778E+01 -0.54050529789E+02  0.36963241467E+02  0.66091744705E+02  0.00000000000E+00 0. -1.
        -11    1    5    5    0    0  0.17910398910E+03 -0.63856951381E+03  0.30089544165E+03  0.72827695946E+03  0.00000000000E+00 0.  1.
          1    1    6    6  503    0 -0.36094869086E+02  0.85454418892E+02  0.10252654318E+02  0.93329599822E+02  0.00000000000E+00 0. -1.
         -1    1    6    6    0  503 -0.17743018375E+03  0.10061193451E+03  0.18826630895E+02  0.20483816418E+03  0.00000000000E+00 0.  1.
<mgrwt>
<rscale>  0 0.16110862E+04</rscale>
<asrwt>0</asrwt>
<pdfrwt beam="1">  1        2 0.70776482E-01 0.16110862E+04</pdfrwt>
<pdfrwt beam="2">  1       -1 0.21700106E+00 0.16110862E+04</pdfrwt>
<totfact> 0.85621020E+00</totfact>
</mgrwt>
</event>
<event>
12    6  0.1553355E-007  0.1724901E+04  0.7818608E-02  0.8747288E-01
         -1   -1    0    0    0  501 -0.00000000000E+00  0.00000000000E+00  0.14498617615E+04  0.14498617615E+04  0.00000000000E+00 0.  1.
          2   -1    0    0  501    0  0.00000000000E+00 -0.00000000000E+00 -0.51302897690E+03  0.51302897690E+03  0.00000000000E+00 0. -1.
         24    2    1    2    0    0 -0.59927292633E+03  0.12727269738E+03  0.30965976121E+03  0.69104949105E+03  0.79585498935E+02 0.  0.
        254    2    1    2    0    0  0.59927292633E+03 -0.12727269738E+03  0.62717302340E+03  0.12718412474E+04  0.92136191448E+03 0.  0.
         23    2    4    4    0    0  0.44448645903E+02  0.32786513661E+03  0.36880104978E+03  0.50384016258E+03  0.91484781126E+02 0.  0.
         23    2    4    4    0    0  0.55482428043E+03 -0.45513783399E+03  0.25837197362E+03  0.76800108478E+03  0.89939754216E+02 0.  0.
          4    1    3    3  502    0 -0.58178121267E+03  0.11705961185E+03  0.31233966219E+03  0.67061792156E+03  0.00000000000E+00 0. -1.
         -3    1    3    3    0  502 -0.17491713662E+02  0.10213085522E+02 -0.26799009760E+01  0.20431569493E+02  0.00000000000E+00 0.  1.
         11    1    5    5    0    0  0.39823882610E+02  0.32567589103E+03  0.33230623473E+03  0.46698839521E+03  0.00000000000E+00 0.  1.
        -11    1    5    5    0    0  0.46247632934E+01  0.21892455754E+01  0.36494815056E+02  0.36851767362E+02  0.00000000000E+00 0. -1.
          3    1    6    6  503    0  0.15703881349E+03 -0.88411029043E+02  0.40290114219E+02  0.18466453991E+03  0.00000000000E+00 0. -1.
         -3    1    6    6    0  503  0.39778546694E+03 -0.36672680494E+03  0.21808185940E+03  0.58333654486E+03  0.00000000000E+00 0.  1.
<mgrwt>
<rscale>  0 0.17249013E+04</rscale>
<asrwt>0</asrwt>
<pdfrwt beam="1">  1        2 0.78927535E-01 0.17249013E+04</pdfrwt>
<pdfrwt beam="2">  1       -1 0.22305565E+00 0.17249013E+04</pdfrwt>
<totfact> 0.68085486E+00</totfact>
</mgrwt>
</event>
<event>
12    6  0.1553355E-007  0.1322090E+04  0.7818608E-02  0.9012229E-01
         -3   -1    0    0    0  501 -0.00000000000E+00  0.00000000000E+00  0.34441046093E+03  0.34441046093E+03  0.00000000000E+00 0.  1.
          2   -1    0    0  501    0  0.00000000000E+00 -0.00000000000E+00 -0.12687787395E+04  0.12687787395E+04  0.00000000000E+00 0. -1.
         24    2    1    2    0    0 -0.14013127510E+03 -0.69295215700E+02 -0.65296090083E+03  0.67600788089E+03  0.78677289212E+02 0.  0.
        254    2    1    2    0    0  0.14013127510E+03  0.69295215700E+02 -0.27140737772E+03  0.93718131951E+03  0.88329398265E+03 0.  0.
         23    2    4    4    0    0 -0.54981836038E+02  0.43156382224E+03 -0.26313027603E+03  0.51573448856E+03  0.86453372234E+02 0.  0.
         23    2    4    4    0    0  0.19511311114E+03 -0.36226860654E+03 -0.82771016907E+01  0.42144683095E+03  0.90781338852E+02 0.  0.
          4    1    3    3  502    0 -0.12348939622E+03 -0.84461058238E+02 -0.51765280437E+03  0.53883924060E+03  0.00000000000E+00 0. -1.
         -3    1    3    3    0  502 -0.16641878877E+02  0.15165842538E+02 -0.13530809646E+03  0.13716864029E+03  0.00000000000E+00 0.  1.
         11    1    5    5    0    0 -0.60918615404E+02  0.37993888907E+03 -0.25850959914E+03  0.46356428894E+03  0.00000000000E+00 0. -1.
        -11    1    5    5    0    0  0.59367793658E+01  0.51624933167E+02 -0.46206768856E+01  0.52170199622E+02  0.00000000000E+00 0.  1.
          2    1    6    6  503    0  0.15286822391E+03 -0.20682951829E+03  0.19754762799E+02  0.25794843316E+03  0.00000000000E+00 0. -1.
         -2    1    6    6    0  503  0.42244887229E+02 -0.15543908825E+03 -0.28031864490E+02  0.16349839779E+03  0.00000000000E+00 0.  1.
<mgrwt>
<rscale>  0 0.13220903E+04</rscale>
<asrwt>0</asrwt>
<pdfrwt beam="1">  1        2 0.19519673E+00 0.13220903E+04</pdfrwt>
<pdfrwt beam="2">  1       -3 0.52986224E-01 0.13220903E+04</pdfrwt>
<totfact> 0.37955783E+01</totfact>
</mgrwt>
</event>
<event>
12    6  0.1553355E-007  0.1404269E+04  0.7818608E-02  0.8950734E-01
         -1   -1    0    0    0  501 -0.00000000000E+00  0.00000000000E+00  0.81222352457E+03  0.81222352457E+03  0.00000000000E+00 0.  1.
          2   -1    0    0  501    0  0.00000000000E+00 -0.00000000000E+00 -0.60696726865E+03  0.60696726865E+03  0.00000000000E+00 0. -1.
         24    2    1    2    0    0 -0.69262312579E+02 -0.19917344867E+03  0.40545081597E+03  0.46507692457E+03  0.86248773873E+02 0.  0.
        254    2    1    2    0    0  0.69262312579E+02  0.19917344867E+03 -0.20019456004E+03  0.95411386865E+03  0.90872882747E+03 0.  0.
         23    2    4    4    0    0  0.32916156355E+03  0.31852632134E+03 -0.38201571150E+03  0.60341465106E+03  0.91470678226E+02 0.  0.
         23    2    4    4    0    0 -0.25989925097E+03 -0.11935287267E+03  0.18182115146E+03  0.35069921759E+03  0.90212422844E+02 0.  0.
          2    1    3    3  502    0  0.10594314698E+02 -0.26771847466E+01  0.52045309004E+01  0.12103469088E+02  0.00000000000E+00 0. -1.
         -3    1    3    3    0  502 -0.79856627277E+02 -0.19649626393E+03  0.40024628507E+03  0.45297345548E+03  0.00000000000E+00 0.  1.
         11    1    5    5    0    0  0.10026542289E+03  0.50333205706E+02 -0.67499982175E+02  0.13093064659E+03  0.00000000000E+00 0. -1.
        -11    1    5    5    0    0  0.22889614066E+03  0.26819311564E+03 -0.31451572932E+03  0.47248400446E+03  0.00000000000E+00 0.  1.
          3    1    6    6  503    0  0.63183575670E+00  0.91220999725E+01  0.81954280063E+01  0.12279127190E+02  0.00000000000E+00 0. -1.
         -3    1    6    6    0  503 -0.26053108673E+03 -0.12847497264E+03  0.17362572345E+03  0.33842009040E+03  0.00000000000E+00 0.  1.
<mgrwt>
<rscale>  0 0.14042693E+04</rscale>
<asrwt>0</asrwt>
<pdfrwt beam="1">  1        2 0.93379580E-01 0.14042693E+04</pdfrwt>
<pdfrwt beam="2">  1       -1 0.12495746E+00 0.14042693E+04</pdfrwt>
<totfact> 0.30466805E+01</totfact>
</mgrwt>
</event>
<event>
12    6  0.1553355E-007  0.2744519E+04  0.7818608E-02  0.8320703E-01
          2   -1    0    0  501    0  0.00000000000E+00  0.00000000000E+00  0.21623340495E+04  0.21623340495E+04  0.00000000000E+00 0. -1.
         -1   -1    0    0    0  501 -0.00000000000E+00 -0.00000000000E+00 -0.87086272130E+03  0.87086272130E+03  0.00000000000E+00 0.  1.
         24    2    1    2    0    0 -0.48629280093E+02  0.83046157308E+03 -0.40062692003E+03  0.92623496556E+03  0.73335197019E+02 0.  0.
        254    2    1    2    0    0  0.48629280093E+02 -0.83046157308E+03  0.16920982482E+04  0.21069618052E+04  0.94024482760E+03 0.  0.
         23    2    4    4    0    0 -0.42401274050E+03 -0.49566332902E+03  0.10274747249E+04  0.12206191703E+04  0.93476782140E+02 0.  0.
         23    2    4    4    0    0  0.47264202059E+03 -0.33479824406E+03  0.66462352325E+03  0.88634263486E+03  0.91643302261E+02 0.  0.
          2    1    3    3  502    0 -0.61204269424E+02  0.53951077875E+03 -0.28131618024E+03  0.61151993937E+03  0.00000000000E+00 0. -1.
         -1    1    3    3    0  502  0.12574989331E+02  0.29095079433E+03 -0.11931073979E+03  0.31471502619E+03  0.00000000000E+00 0.  1.
         11    1    5    5    0    0 -0.35948530497E+03 -0.46301753471E+03  0.92808398028E+03  0.10977043301E+04  0.00000000000E+00 0.  1.
        -11    1    5    5    0    0 -0.64527435532E+02 -0.32645794314E+02  0.99390744647E+02  0.12291484021E+03  0.00000000000E+00 0. -1.
          3    1    6    6  503    0  0.10251974227E+03 -0.12169160829E+03  0.17013820115E+03  0.23295096603E+03  0.00000000000E+00 0. -1.
         -3    1    6    6    0  503  0.37012227832E+03 -0.21310663578E+03  0.49448532210E+03  0.65339166883E+03  0.00000000000E+00 0.  1.
<mgrwt>
<rscale>  0 0.27445190E+04</rscale>
<asrwt>0</asrwt>
<pdfrwt beam="1">  1        2 0.33266678E+00 0.27445190E+04</pdfrwt>
<pdfrwt beam="2">  1       -1 0.13397888E+00 0.27445190E+04</pdfrwt>
<totfact> 0.25315749E+00</totfact>
</mgrwt>
</event>
<event>
12    6  0.1553355E-007  0.2086838E+04  0.7818608E-02  0.8567064E-01
          2   -1    0    0  501    0  0.00000000000E+00  0.00000000000E+00  0.32310053817E+04  0.32310053817E+04  0.00000000000E+00 0. -1.
         -1   -1    0    0    0  501 -0.00000000000E+00 -0.00000000000E+00 -0.33696100541E+03  0.33696100541E+03  0.00000000000E+00 0.  1.
         24    2    1    2    0    0 -0.23407640448E+03  0.80969276012E+02 -0.20473547055E+03  0.33130814785E+03  0.80626851203E+02 0.  0.
        254    2    1    2    0    0  0.23407640448E+03 -0.80969276012E+02  0.30987798469E+04  0.32366582393E+04  0.90120598747E+03 0.  0.
         23    2    4    4    0    0 -0.24365231217E+03 -0.30155149421E+03  0.12096339948E+04  0.12732784552E+04  0.87885551452E+02 0.  0.
         23    2    4    4    0    0  0.47772871666E+03  0.22058221820E+03  0.18891458521E+04  0.19633797841E+04  0.95429998389E+02 0.  0.
          2    1    3    3  502    0 -0.42342968520E+02  0.49476441270E+02 -0.38883528066E+02  0.75847043309E+02  0.00000000000E+00 0. -1.
         -3    1    3    3    0  502 -0.19173343596E+03  0.31492834742E+02 -0.16585194249E+03  0.25546110454E+03  0.00000000000E+00 0.  1.
         11    1    5    5    0    0 -0.23112521207E+03 -0.25149854894E+03  0.97688841886E+03  0.10348822960E+04  0.00000000000E+00 0.  1.
        -11    1    5    5    0    0 -0.12527100101E+02 -0.50052945276E+02  0.23274557593E+03  0.23839615912E+03  0.00000000000E+00 0. -1.
          3    1    6    6  503    0  0.20293015453E+03  0.77737322592E+02  0.61961120101E+03  0.65661387387E+03  0.00000000000E+00 0. -1.
         -3    1    6    6    0  503  0.27479856212E+03  0.14284489561E+03  0.12695346511E+04  0.13067659103E+04  0.00000000000E+00 0.  1.
<mgrwt>
<rscale>  0 0.20868376E+04</rscale>
<asrwt>0</asrwt>
<pdfrwt beam="1">  1        2 0.49707773E+00 0.20868376E+04</pdfrwt>
<pdfrwt beam="2">  1       -1 0.51840157E-01 0.20868376E+04</pdfrwt>
<totfact> 0.48811056E+00</totfact>
</mgrwt>
</event>
<event>
12    6  0.1742992E-007  0.1955806E+04  0.7818608E-02  0.8627566E-01
         -1   -1    0    0    0  501 -0.00000000000E+00  0.00000000000E+00  0.41302089499E+03  0.41302089499E+03  0.00000000000E+00 0.  1.
          2   -1    0    0  501    0  0.00000000000E+00 -0.00000000000E+00 -0.23153657986E+04  0.23153657986E+04  0.00000000000E+00 0. -1.
         24    2    1    2    0    0  0.16025092462E+03 -0.23676548370E+03  0.24421094374E+03  0.38164815513E+03  0.65407003933E+02 0.  0.
        254    2    1    2    0    0 -0.16025092462E+03  0.23676548370E+03 -0.21465558474E+04  0.23467385385E+04  0.90429061091E+03 0.  0.
         23    2    4    4    0    0 -0.39936306725E+03 -0.54800388030E+02 -0.17246376725E+04  0.17734216795E+04  0.90307308498E+02 0.  0.
         23    2    4    4    0    0  0.23911214264E+03  0.29156587173E+03 -0.42191817489E+03  0.57331685897E+03  0.92152049169E+02 0.  0.
          4    1    3    3  502    0  0.94872407065E+01 -0.69052233414E+01 -0.28194061881E+01  0.12068094169E+02  0.00000000000E+00 0. -1.
         -3    1    3    3    0  502  0.15076368391E+03 -0.22986026036E+03  0.24703034992E+03  0.36958006096E+03  0.00000000000E+00 0.  1.
         11    1    5    5    0    0 -0.32791027870E+02  0.10156014218E+02 -0.25794543810E+03  0.26021960950E+03  0.00000000000E+00 0. -1.
        -11    1    5    5    0    0 -0.36657203938E+03 -0.64956402248E+02 -0.14666922344E+04  0.15132020700E+04  0.00000000000E+00 0.  1.
          2    1    6    6  503    0  0.10006968129E+03  0.96986364606E+02 -0.96648876216E+02  0.16959157204E+03  0.00000000000E+00 0. -1.
         -2    1    6    6    0  503  0.13904246135E+03  0.19457950713E+03 -0.32526929867E+03  0.40372528693E+03  0.00000000000E+00 0.  1.
<mgrwt>
<rscale>  0 0.19558062E+04</rscale>
<asrwt>0</asrwt>
<pdfrwt beam="1">  1        2 0.35621013E+00 0.19558062E+04</pdfrwt>
<pdfrwt beam="2">  1       -1 0.63541676E-01 0.19558062E+04</pdfrwt>
<totfact> 0.11850607E+01</totfact>
</mgrwt>
</event>
<event>
12    6  0.1553355E-007  0.2267747E+04  0.7818608E-02  0.8490748E-01
          2   -1    0    0  501    0  0.00000000000E+00  0.00000000000E+00  0.17211517228E+04  0.17211517228E+04  0.00000000000E+00 0. -1.
         -3   -1    0    0    0  501 -0.00000000000E+00 -0.00000000000E+00 -0.74698161058E+03  0.74698161058E+03  0.00000000000E+00 0.  1.
         24    2    1    2    0    0 -0.76667027572E+03  0.52420608662E+03  0.19062306305E+03  0.95156088263E+03  0.80966834334E+02 0.  0.
        254    2    1    2    0    0  0.76667027572E+03 -0.52420608662E+03  0.78354704914E+03  0.15165724507E+04  0.90745285671E+03 0.  0.
         23    2    4    4    0    0  0.43295661751E+03  0.15731782210E+03  0.53624690824E+03  0.71303895947E+03  0.93077824113E+02 0.  0.
         23    2    4    4    0    0  0.33371365821E+03 -0.68152390872E+03  0.24730014091E+03  0.80353349125E+03  0.93107830190E+02 0.  0.
          2    1    3    3  502    0 -0.43357921020E+03  0.30905793741E+03  0.14863510782E+03  0.55281112097E+03  0.00000000000E+00 0. -1.
         -1    1    3    3    0  502 -0.33309106552E+03  0.21514814921E+03  0.41987955234E+02  0.39874976166E+03  0.00000000000E+00 0.  1.
         11    1    5    5    0    0  0.61540940162E+02  0.30923589081E+02  0.13671153834E+03  0.15308037233E+03  0.00000000000E+00 0.  1.
        -11    1    5    5    0    0  0.37141567735E+03  0.12639423302E+03  0.39953536990E+03  0.55995858715E+03  0.00000000000E+00 0. -1.
          3    1    6    6  503    0  0.15827749141E+03 -0.42098634140E+03  0.12894017740E+03  0.46787480513E+03  0.00000000000E+00 0. -1.
         -3    1    6    6    0  503  0.17543616680E+03 -0.26053756732E+03  0.11835996351E+03  0.33565868612E+03  0.00000000000E+00 0.  1.
<mgrwt>
<rscale>  0 0.22677466E+04</rscale>
<asrwt>0</asrwt>
<pdfrwt beam="1">  1        2 0.26479257E+00 0.22677466E+04</pdfrwt>
<pdfrwt beam="2">  1       -3 0.11492025E+00 0.22677466E+04</pdfrwt>
<totfact> 0.34653321E+00</totfact>
</mgrwt>
</event>
<event>
12    6  0.1553355E-007  0.2663164E+04  0.7818608E-02  0.8347057E-01
          2   -1    0    0  501    0  0.00000000000E+00  0.00000000000E+00  0.14949941066E+04  0.14949941066E+04  0.00000000000E+00 0. -1.
         -1   -1    0    0    0  501 -0.00000000000E+00 -0.00000000000E+00 -0.11860314359E+04  0.11860314359E+04  0.00000000000E+00 0.  1.
         24    2    1    2    0    0 -0.31934707461E+03  0.84441037876E+02 -0.10016962579E+04  0.10578527371E+04  0.80896089149E+02 0.  0.
        254    2    1    2    0    0  0.31934707461E+03 -0.84441037876E+02  0.13106589286E+04  0.16231728054E+04  0.89874928988E+03 0.  0.
         23    2    4    4    0    0  0.46423769761E+03 -0.11096510084E+03  0.24650348581E+03  0.54508005165E+03  0.92295182412E+02 0.  0.
         23    2    4    4    0    0 -0.14489062300E+03  0.26524062962E+02  0.10641554428E+04  0.10780927538E+04  0.90334714635E+02 0.  0.
          2    1    3    3  502    0 -0.36971572700E+02  0.35982220257E+02 -0.11560141107E+03  0.12659108817E+03  0.00000000000E+00 0. -1.
         -1    1    3    3    0  502 -0.28237550191E+03  0.48458817619E+02 -0.88609484688E+03  0.93126164892E+03  0.00000000000E+00 0.  1.
         11    1    5    5    0    0  0.26939663540E+03 -0.10643305800E+03  0.12550439089E+03  0.31568005185E+03  0.00000000000E+00 0.  1.
        -11    1    5    5    0    0  0.19484106222E+03 -0.45320428337E+01  0.12099909492E+03  0.22939999980E+03  0.00000000000E+00 0. -1.
          4    1    6    6  503    0 -0.19662360035E+02 -0.42175272976E+01  0.31194292999E+02  0.37114415722E+02  0.00000000000E+00 0. -1.
         -4    1    6    6    0  503 -0.12522826297E+03  0.30741590259E+02  0.10329611498E+04  0.10409783380E+04  0.00000000000E+00 0.  1.
<mgrwt>
<rscale>  0 0.26631635E+04</rscale>
<asrwt>0</asrwt>
<pdfrwt beam="1">  1        2 0.22999909E+00 0.26631635E+04</pdfrwt>
<pdfrwt beam="2">  1       -1 0.18246637E+00 0.26631635E+04</pdfrwt>
<totfact> 0.25585471E+00</totfact>
</mgrwt>
</event>
<event>
12    6  0.1553355E-007  0.1416428E+04  0.7818608E-02  0.8942012E-01
          2   -1    0    0  501    0  0.00000000000E+00  0.00000000000E+00  0.13643789504E+04  0.13643789504E+04  0.00000000000E+00 0. -1.
         -1   -1    0    0    0  501 -0.00000000000E+00 -0.00000000000E+00 -0.36761577830E+03  0.36761577830E+03  0.00000000000E+00 0.  1.
         24    2    1    2    0    0 -0.40466086403E+03  0.49521153980E+01  0.43092255919E+03  0.59635239688E+03  0.78530191179E+02 0.  0.
        254    2    1    2    0    0  0.40466086403E+03 -0.49521153980E+01  0.56584061290E+03  0.11356423318E+04  0.89762629654E+03 0.  0.
         23    2    4    4    0    0  0.64685676457E+03 -0.16979863091E+03  0.35063285623E+03  0.76078164622E+03  0.92682600481E+02 0.  0.
         23    2    4    4    0    0 -0.24219590054E+03  0.16484651552E+03  0.21520775666E+03  0.37486068557E+03  0.91503700181E+02 0.  0.
          2    1    3    3  502    0 -0.36566279673E+03  0.17828083550E+02  0.35456090286E+03  0.50964748142E+03  0.00000000000E+00 0. -1.
         -1    1    3    3    0  502 -0.38998067295E+02 -0.12875968153E+02  0.76361656327E+02  0.86704915464E+02  0.00000000000E+00 0.  1.
         11    1    5    5    0    0  0.85805603723E+02  0.35894437431E+01  0.65367852083E+02  0.10792794737E+03  0.00000000000E+00 0.  1.
        -11    1    5    5    0    0  0.56105116084E+03 -0.17338807466E+03  0.28526500415E+03  0.65285369886E+03  0.00000000000E+00 0. -1.
          3    1    6    6  503    0 -0.13023136523E+03  0.13859286639E+03  0.15318441422E+03  0.24420003248E+03  0.00000000000E+00 0. -1.
         -3    1    6    6    0  503 -0.11196453530E+03  0.26253649124E+02  0.62023342439E+02  0.13066065309E+03  0.00000000000E+00 0.  1.
<mgrwt>
<rscale>  0 0.14164282E+04</rscale>
<asrwt>0</asrwt>
<pdfrwt beam="1">  1        2 0.20990445E+00 0.14164282E+04</pdfrwt>
<pdfrwt beam="2">  1       -1 0.56556274E-01 0.14164282E+04</pdfrwt>
<totfact> 0.53179232E+01</totfact>
</mgrwt>
</event>
<event>
12    6  0.1553355E-007  0.1853154E+04  0.7818608E-02  0.8678532E-01
          2   -1    0    0  501    0  0.00000000000E+00  0.00000000000E+00  0.98202733759E+03  0.98202733759E+03  0.00000000000E+00 0. -1.
         -1   -1    0    0    0  501 -0.00000000000E+00 -0.00000000000E+00 -0.87425785462E+03  0.87425785462E+03  0.00000000000E+00 0.  1.
         24    2    1    2    0    0 -0.25761467069E+03 -0.39700829262E+02  0.69969259555E+03  0.75080056871E+03  0.78678404290E+02 0.  0.
        254    2    1    2    0    0  0.25761467069E+03  0.39700829262E+02 -0.59192311258E+03  0.11054846235E+04  0.89653879292E+03 0.  0.
         23    2    4    4    0    0 -0.65445758666E+02 -0.10035936205E+03 -0.70731433159E+03  0.72386284144E+03  0.96585198998E+02 0.  0.
         23    2    4    4    0    0  0.32306042935E+03  0.14006019131E+03  0.11539121902E+03  0.38162178206E+03  0.91297058614E+02 0.  0.
          4    1    3    3  502    0 -0.22752510807E+03 -0.20234011413E+02  0.65391826418E+03  0.69266599906E+03  0.00000000000E+00 0. -1.
         -3    1    3    3    0  502 -0.30089562620E+02 -0.19466817849E+02  0.45774331366E+02  0.58134569645E+02  0.00000000000E+00 0.  1.
         11    1    5    5    0    0 -0.75769945045E+02 -0.56710456069E+02 -0.60201095513E+03  0.60940491505E+03  0.00000000000E+00 0.  1.
        -11    1    5    5    0    0  0.10324186379E+02 -0.43648905983E+02 -0.10530337647E+03  0.11445792639E+03  0.00000000000E+00 0. -1.
          4    1    6    6  503    0  0.78792234333E+02  0.78492232721E+02  0.25041144731E+02  0.11400134086E+03  0.00000000000E+00 0. -1.
         -4    1    6    6    0  503  0.24426819502E+03  0.61567958592E+02  0.90350074286E+02  0.26762044120E+03  0.00000000000E+00 0.  1.
<mgrwt>
<rscale>  0 0.18531542E+04</rscale>
<asrwt>0</asrwt>
<pdfrwt beam="1">  1        2 0.15108113E+00 0.18531542E+04</pdfrwt>
<pdfrwt beam="2">  1       -1 0.13450121E+00 0.18531542E+04</pdfrwt>
<totfact> 0.12904737E+01</totfact>
</mgrwt>
</event>
<event>
12    6  0.1553355E-007  0.1822776E+04  0.7818608E-02  0.8694280E-01
         -1   -1    0    0    0  501 -0.00000000000E+00  0.00000000000E+00  0.87578191858E+03  0.87578191858E+03  0.00000000000E+00 0.  1.
          2   -1    0    0  501    0  0.00000000000E+00 -0.00000000000E+00 -0.94844167726E+03  0.94844167726E+03  0.00000000000E+00 0. -1.
         24    2    1    2    0    0  0.55679731025E+02  0.24784512428E+03  0.61329455298E+03  0.66955995971E+03  0.87480814240E+02 0.  0.
        254    2    1    2    0    0 -0.55679731025E+02 -0.24784512428E+03 -0.68595431165E+03  0.11546636361E+04  0.89341331803E+03 0.  0.
         23    2    4    4    0    0 -0.73268858066E+02  0.30983329925E+03 -0.40672586572E+03  0.52432579090E+03  0.90147691433E+02 0.  0.
         23    2    4    4    0    0  0.17589127041E+02 -0.55767842353E+03 -0.27922844594E+03  0.63033784523E+03  0.89680949190E+02 0.  0.
          2    1    3    3  502    0  0.12211638381E+02  0.31805186930E+01  0.82712354381E+02  0.83669429175E+02  0.00000000000E+00 0. -1.
         -1    1    3    3    0  502  0.43468092644E+02  0.24466460559E+03  0.53058219859E+03  0.58589053054E+03  0.00000000000E+00 0.  1.
         11    1    5    5    0    0 -0.46398334330E+02  0.67728475196E+02 -0.14610461252E+03  0.16759030276E+03  0.00000000000E+00 0. -1.
        -11    1    5    5    0    0 -0.26870523736E+02  0.24210482405E+03 -0.26062125320E+03  0.35673548813E+03  0.00000000000E+00 0.  1.
          2    1    6    6  503    0  0.32193749500E+02 -0.68607743432E+02 -0.40106317824E+02  0.85743668543E+02  0.00000000000E+00 0. -1.
         -2    1    6    6    0  503 -0.14604622460E+02 -0.48907068010E+03 -0.23912212811E+03  0.54459417669E+03  0.00000000000E+00 0.  1.
<mgrwt>
<rscale>  0 0.18227760E+04</rscale>
<asrwt>0</asrwt>
<pdfrwt beam="1">  1        2 0.14591410E+00 0.18227760E+04</pdfrwt>
<pdfrwt beam="2">  1       -1 0.13473568E+00 0.18227760E+04</pdfrwt>
<totfact> 0.13548531E+01</totfact>
</mgrwt>
</event>
<event>
12    6  0.1553355E-007  0.2382459E+04  0.7818608E-02  0.8446100E-01
         -1   -1    0    0    0  501 -0.00000000000E+00  0.00000000000E+00  0.39627371863E+03  0.39627371863E+03  0.00000000000E+00 0.  1.
          2   -1    0    0  501    0  0.00000000000E+00 -0.00000000000E+00 -0.35809280538E+04  0.35809280538E+04  0.00000000000E+00 0. -1.
         24    2    1    2    0    0  0.52381276310E+03  0.85368572264E+03 -0.16786826807E+04  0.19564021649E+04  0.79842122665E+02 0.  0.
        254    2    1    2    0    0 -0.52381276310E+03 -0.85368572264E+03 -0.15059716544E+04  0.20207996075E+04  0.90139963713E+03 0.  0.
         23    2    4    4    0    0 -0.55668584824E+03 -0.42619426293E+03 -0.14020836625E+04  0.15704688719E+04  0.94832471981E+02 0.  0.
         23    2    4    4    0    0  0.32873085144E+02 -0.42749145971E+03 -0.10388799192E+03  0.45033073552E+03  0.90418298112E+02 0.  0.
          2    1    3    3  502    0  0.55482779188E+02  0.10729932785E+03 -0.25373352969E+03  0.28101990789E+03  0.00000000000E+00 0. -1.
         -1    1    3    3    0  502  0.46832998391E+03  0.74638639479E+03 -0.14249491511E+04  0.16753822571E+04  0.00000000000E+00 0.  1.
         11    1    5    5    0    0 -0.87380193640E+02 -0.91665914887E+02 -0.32664784214E+03  0.35033805241E+03  0.00000000000E+00 0.  1.
        -11    1    5    5    0    0 -0.46930565460E+03 -0.33452834804E+03 -0.10754358203E+04  0.12201308195E+04  0.00000000000E+00 0. -1.
          4    1    6    6  503    0  0.10690382288E+02 -0.39859690375E+03 -0.79765683197E+02  0.40664030810E+03  0.00000000000E+00 0. -1.
         -4    1    6    6    0  503  0.22182702856E+02 -0.28894555962E+02 -0.24122308721E+02  0.43690427422E+02  0.00000000000E+00 0.  1.
<mgrwt>
<rscale>  0 0.23824590E+04</rscale>
<asrwt>0</asrwt>
<pdfrwt beam="1">  1        2 0.55091200E+00 0.23824590E+04</pdfrwt>
<pdfrwt beam="2">  1       -1 0.60965189E-01 0.23824590E+04</pdfrwt>
<totfact> 0.19963377E+00</totfact>
</mgrwt>
</event>
<event>
12    6  0.1553355E-007  0.1378400E+04  0.7818608E-02  0.8969603E-01
          2   -1    0    0  501    0  0.00000000000E+00  0.00000000000E+00  0.11757663853E+04  0.11757663853E+04  0.00000000000E+00 0. -1.
         -1   -1    0    0    0  501 -0.00000000000E+00 -0.00000000000E+00 -0.40398925343E+03  0.40398925343E+03  0.00000000000E+00 0.  1.
         24    2    1    2    0    0 -0.30208969813E+03  0.23789633385E+03  0.14246716662E+03  0.41777419005E+03  0.79909504621E+02 0.  0.
        254    2    1    2    0    0  0.30208969813E+03 -0.23789633385E+03  0.62930996521E+03  0.11619814486E+04  0.89795155955E+03 0.  0.
         23    2    4    4    0    0 -0.45730148518E+02 -0.49167808281E+03  0.48677440753E+03  0.69922751183E+03  0.90173199318E+02 0.  0.
         23    2    4    4    0    0  0.34781984665E+03  0.25378174895E+03  0.14253555768E+03  0.46275393681E+03  0.91874909584E+02 0.  0.
          4    1    3    3  502    0 -0.24020467211E+03  0.17692279002E+03  0.14314867040E+03  0.33089499841E+03  0.00000000000E+00 0. -1.
         -3    1    3    3    0  502 -0.61885026016E+02  0.60973543836E+02 -0.68150378106E+00  0.86879191641E+02  0.00000000000E+00 0.  1.
         11    1    5    5    0    0 -0.37817965676E+02 -0.41866158111E+03  0.45422915707E+03  0.61889566580E+03  0.00000000000E+00 0.  1.
        -11    1    5    5    0    0 -0.79121828414E+01 -0.73016501701E+02  0.32545250465E+02  0.80331846025E+02  0.00000000000E+00 0. -1.
          2    1    6    6  503    0  0.41307834735E+02  0.62719088032E+02  0.48940439245E+02  0.89639209097E+02  0.00000000000E+00 0. -1.
         -2    1    6    6    0  503  0.30651201191E+03  0.19106266092E+03  0.93595118430E+02  0.37311472772E+03  0.00000000000E+00 0.  1.
<mgrwt>
<rscale>  0 0.13784005E+04</rscale>
<asrwt>0</asrwt>
<pdfrwt beam="1">  1        2 0.18088713E+00 0.13784005E+04</pdfrwt>
<pdfrwt beam="2">  1       -1 0.62152193E-01 0.13784005E+04</pdfrwt>
<totfact> 0.57165384E+01</totfact>
</mgrwt>
</event>
<event>
12    6  0.1553355E-007  0.1194202E+04  0.7818608E-02  0.9117947E-01
          2   -1    0    0  501    0  0.00000000000E+00  0.00000000000E+00  0.72480192309E+03  0.72480192309E+03  0.00000000000E+00 0. -1.
         -1   -1    0    0    0  501 -0.00000000000E+00 -0.00000000000E+00 -0.49189930055E+03  0.49189930055E+03  0.00000000000E+00 0.  1.
         24    2    1    2    0    0 -0.14588955317E+02 -0.22808095248E+03  0.14970754416E+03  0.28794196350E+03  0.90909114297E+02 0.  0.
        254    2    1    2    0    0  0.14588955317E+02  0.22808095248E+03  0.83195078382E+02  0.92875926015E+03  0.89634735663E+03 0.  0.
         23    2    4    4    0    0 -0.35951761255E+03 -0.12045183048E+03  0.12115595710E+03  0.40804606092E+03  0.89784545979E+02 0.  0.
         23    2    4    4    0    0  0.37410656786E+03  0.34853278296E+03 -0.37960878723E+02  0.52071319922E+03  0.90941644015E+02 0.  0.
          4    1    3    3  502    0 -0.50802257868E+01 -0.15740832767E+03  0.14874010213E+03  0.21662596404E+03  0.00000000000E+00 0. -1.
         -3    1    3    3    0  502 -0.95087295302E+01 -0.70672624810E+02  0.96744203310E+00  0.71315999459E+02  0.00000000000E+00 0.  1.
         11    1    5    5    0    0 -0.14250242711E+03 -0.94636105937E+02  0.50479824902E+02  0.17835679690E+03  0.00000000000E+00 0. -1.
        -11    1    5    5    0    0 -0.21701518544E+03 -0.25815724546E+02  0.70676132203E+02  0.22968926403E+03  0.00000000000E+00 0.  1.
          4    1    6    6  503    0  0.28279383675E+03  0.30156676350E+03 -0.53482512683E+02  0.41686358214E+03  0.00000000000E+00 0. -1.
         -4    1    6    6    0  503  0.91312731117E+02  0.46966019456E+02  0.15521633960E+02  0.10384961708E+03  0.00000000000E+00 0.  1.
<mgrwt>
<rscale>  0 0.11942019E+04</rscale>
<asrwt>0</asrwt>
<pdfrwt beam="1">  1        2 0.11150799E+00 0.11942019E+04</pdfrwt>
<pdfrwt beam="2">  1       -1 0.75676815E-01 0.11942019E+04</pdfrwt>
<totfact> 0.77552564E+01</totfact>
</mgrwt>
</event>
<event>
12    6  0.2002274E-007  0.2460834E+04  0.7818608E-02  0.8417073E-01
          2   -1    0    0  501    0  0.00000000000E+00  0.00000000000E+00  0.16572505223E+04  0.16572505223E+04  0.00000000000E+00 0. -1.
         -1   -1    0    0    0  501 -0.00000000000E+00 -0.00000000000E+00 -0.91351671939E+03  0.91351671939E+03  0.00000000000E+00 0.  1.
         24    2    1    2    0    0  0.44070426942E+03  0.29701733787E+03 -0.60926767197E+03  0.81258140991E+03  0.81497849991E+02 0.  0.
        254    2    1    2    0    0 -0.44070426942E+03 -0.29701733787E+03  0.13530014749E+04  0.17581858318E+04  0.98902218173E+03 0.  0.
         23    2    4    4    0    0 -0.57409103308E+03 -0.25341669460E+03  0.14371817794E+04  0.15706725279E+04  0.87864598405E+02 0.  0.
         23    2    4    4    0    0  0.13338676366E+03 -0.43600643272E+02 -0.84180304492E+02  0.18751330386E+03  0.91552556732E+02 0.  0.
          4    1    3    3  502    0  0.29173830991E+02  0.81392433510E+01 -0.64427456010E+02  0.71191690421E+02  0.00000000000E+00 0. -1.
         -3    1    3    3    0  502  0.41153043842E+03  0.28887809452E+03 -0.54484021596E+03  0.74138971949E+03  0.00000000000E+00 0.  1.
         11    1    5    5    0    0 -0.11901667781E+03 -0.38335490921E+02  0.37429147978E+03  0.39462474744E+03  0.00000000000E+00 0. -1.
        -11    1    5    5    0    0 -0.45507435527E+03 -0.21508120367E+03  0.10628902996E+04  0.11760477805E+04  0.00000000000E+00 0.  1.
          1    1    6    6  503    0 -0.24991393653E+00 -0.64128536239E+01 -0.42057390923E+02  0.42544227338E+02  0.00000000000E+00 0. -1.
         -1    1    6    6    0  503  0.13363667760E+03 -0.37187789648E+02 -0.42122913569E+02  0.14496907652E+03  0.00000000000E+00 0.  1.
<mgrwt>
<rscale>  0 0.24608341E+04</rscale>
<asrwt>0</asrwt>
<pdfrwt beam="1">  1        2 0.25496162E+00 0.24608341E+04</pdfrwt>
<pdfrwt beam="2">  1       -1 0.14054103E+00 0.24608341E+04</pdfrwt>
<totfact> 0.43797230E+00</totfact>
</mgrwt>
</event>
<event>
12    6  0.1553355E-007  0.1356205E+04  0.7818608E-02  0.8986144E-01
          4   -1    0    0  501    0  0.00000000000E+00  0.00000000000E+00  0.55164640503E+03  0.55164640503E+03  0.00000000000E+00 0. -1.
         -3   -1    0    0    0  501 -0.00000000000E+00 -0.00000000000E+00 -0.83354670196E+03  0.83354670196E+03  0.00000000000E+00 0.  1.
         24    2    1    2    0    0 -0.11491744913E+03 -0.49323229888E+02  0.28204892949E+03  0.31778159976E+03  0.76123225094E+02 0.  0.
        254    2    1    2    0    0  0.11491744913E+03  0.49323229888E+02 -0.56394922642E+03  0.10674115072E+04  0.89760224748E+03 0.  0.
         23    2    4    4    0    0  0.43310449885E+03  0.24101123639E+03 -0.20764067882E+03  0.54485327378E+03  0.89913933654E+02 0.  0.
         23    2    4    4    0    0 -0.31818704972E+03 -0.19168800650E+03 -0.35630854760E+03  0.52255823345E+03  0.90133433364E+02 0.  0.
          2    1    3    3  502    0 -0.12420468471E+03 -0.35868202932E+02  0.23885652923E+03  0.27159855162E+03  0.00000000000E+00 0. -1.
         -1    1    3    3    0  502  0.92872355856E+01 -0.13455026957E+02  0.43192400266E+02  0.46183048145E+02  0.00000000000E+00 0.  1.
         11    1    5    5    0    0  0.37555920091E+03  0.17040689990E+03 -0.17649321797E+03  0.44859010345E+03  0.00000000000E+00 0. -1.
        -11    1    5    5    0    0  0.57545297936E+02  0.70604336491E+02 -0.31147460856E+02  0.96263170339E+02  0.00000000000E+00 0.  1.
          2    1    6    6  503    0 -0.24145563492E+03 -0.18140146162E+03 -0.25641356919E+03  0.39617575945E+03  0.00000000000E+00 0. -1.
         -2    1    6    6    0  503 -0.76731414795E+02 -0.10286544880E+02 -0.99894978409E+02  0.12638247400E+03  0.00000000000E+00 0.  1.
<mgrwt>
<rscale>  0 0.13562051E+04</rscale>
<asrwt>0</asrwt>
<pdfrwt beam="1">  1        4 0.84868677E-01 0.13562051E+04</pdfrwt>
<pdfrwt beam="2">  1       -3 0.12823796E+00 0.13562051E+04</pdfrwt>
<totfact> 0.12998593E+00</totfact>
</mgrwt>
</event>
<event>
12    6  0.1553355E-007  0.1906135E+04  0.7818608E-02  0.8651809E-01
          2   -1    0    0  501    0  0.00000000000E+00  0.00000000000E+00  0.27393264184E+04  0.27393264184E+04  0.00000000000E+00 0. -1.
         -1   -1    0    0    0  501 -0.00000000000E+00 -0.00000000000E+00 -0.33159168759E+03  0.33159168759E+03  0.00000000000E+00 0.  1.
         24    2    1    2    0    0  0.71951918033E+03 -0.74165365816E+02  0.12017521338E+04  0.14052707403E+04  0.85844685835E+02 0.  0.
        254    2    1    2    0    0 -0.71951918033E+03  0.74165365816E+02  0.12059825969E+04  0.16656473656E+04  0.89262465246E+03 0.  0.
         23    2    4    4    0    0 -0.20968709361E+03  0.39560333649E+03  0.83448750295E+03  0.95157888360E+03  0.93071488936E+02 0.  0.
         23    2    4    4    0    0 -0.50983208673E+03 -0.32143797068E+03  0.37149509398E+03  0.71406848203E+03  0.92919677862E+02 0.  0.
          2    1    3    3  502    0  0.68579167897E+03 -0.72578599595E+02  0.11023420949E+04  0.13002830362E+04  0.00000000000E+00 0. -1.
         -3    1    3    3    0  502  0.33727501369E+02 -0.15867662204E+01  0.99410038927E+02  0.10498770411E+03  0.00000000000E+00 0.  1.
         11    1    5    5    0    0 -0.20091450095E+03  0.34435239891E+03  0.67629990556E+03  0.78506482126E+03  0.00000000000E+00 0.  1.
        -11    1    5    5    0    0 -0.87725926524E+01  0.51250937587E+02  0.15818759740E+03  0.16651406234E+03  0.00000000000E+00 0. -1.
          3    1    6    6  503    0 -0.35052318470E+03 -0.18418017186E+03  0.27874353541E+03  0.48423836821E+03  0.00000000000E+00 0. -1.
         -3    1    6    6    0  503 -0.15930890203E+03 -0.13725779882E+03  0.92751558572E+02  0.22983011382E+03  0.00000000000E+00 0.  1.
<mgrwt>
<rscale>  0 0.19061352E+04</rscale>
<asrwt>0</asrwt>
<pdfrwt beam="1">  1        2 0.42143482E+00 0.19061352E+04</pdfrwt>
<pdfrwt beam="2">  1       -1 0.51014108E-01 0.19061352E+04</pdfrwt>
<totfact> 0.10372660E+01</totfact>
</mgrwt>
</event>
<event>
12    6  0.1553355E-007  0.1747027E+04  0.7818608E-02  0.8734989E-01
          2   -1    0    0  501    0  0.00000000000E+00  0.00000000000E+00  0.20945413004E+04  0.20945413004E+04  0.00000000000E+00 0. -1.
         -1   -1    0    0    0  501 -0.00000000000E+00 -0.00000000000E+00 -0.36429254185E+03  0.36429254185E+03  0.00000000000E+00 0.  1.
         24    2    1    2    0    0  0.32272083925E+03 -0.26501382877E+03 -0.45979890697E+02  0.42850694129E+03  0.84397742011E+02 0.  0.
        254    2    1    2    0    0 -0.32272083925E+03  0.26501382877E+03  0.17762286492E+04  0.20303269009E+04  0.89042576379E+03 0.  0.
         23    2    4    4    0    0 -0.49837575102E+03  0.24207690679E+03  0.17399924563E+04  0.18283358538E+04  0.90876994152E+02 0.  0.
         23    2    4    4    0    0  0.17565491177E+03  0.22936921988E+02  0.36236192884E+02  0.20199104716E+03  0.90036498383E+02 0.  0.
          2    1    3    3  502    0  0.16034290889E+03 -0.15203669478E+03  0.15095526092E+02  0.22147884752E+03  0.00000000000E+00 0. -1.
         -1    1    3    3    0  502  0.16237793036E+03 -0.11297713399E+03 -0.61075416789E+02  0.20702809377E+03  0.00000000000E+00 0.  1.
         11    1    5    5    0    0 -0.33414838400E+03  0.18530724288E+03  0.10699129987E+04  0.11360931923E+04  0.00000000000E+00 0. -1.
        -11    1    5    5    0    0 -0.16422736702E+03  0.56769663902E+02  0.67007945760E+03  0.69224266144E+03  0.00000000000E+00 0.  1.
          3    1    6    6  503    0  0.52516781632E+02  0.14424988739E+01  0.54459224072E+02  0.75669678489E+02  0.00000000000E+00 0. -1.
         -3    1    6    6    0  503  0.12313813014E+03  0.21494423114E+02 -0.18223031188E+02  0.12632136868E+03  0.00000000000E+00 0.  1.
<mgrwt>
<rscale>  0 0.17470269E+04</rscale>
<asrwt>0</asrwt>
<pdfrwt beam="1">  1        2 0.32223712E+00 0.17470269E+04</pdfrwt>
<pdfrwt beam="2">  1       -1 0.56045007E-01 0.17470269E+04</pdfrwt>
<totfact> 0.20581145E+01</totfact>
</mgrwt>
</event>
<event>
12    6  0.1553355E-007  0.1765745E+04  0.7818608E-02  0.8724731E-01
         -3   -1    0    0    0  501 -0.00000000000E+00  0.00000000000E+00  0.69267846234E+03  0.69267846234E+03  0.00000000000E+00 0.  1.
          4   -1    0    0  501    0  0.00000000000E+00 -0.00000000000E+00 -0.11252889372E+04  0.11252889372E+04  0.00000000000E+00 0. -1.
         24    2    1    2    0    0  0.58230404232E+03 -0.29504051656E+03 -0.11027900761E+03  0.66682745218E+03  0.79815332810E+02 0.  0.
        254    2    1    2    0    0 -0.58230404232E+03  0.29504051656E+03 -0.32233146730E+03  0.11511399474E+04  0.89168307127E+03 0.  0.
         23    2    4    4    0    0 -0.71423569523E+03  0.24471570339E+02 -0.31115445469E+02  0.72203691429E+03  0.98171526183E+02 0.  0.
         23    2    4    4    0    0  0.13193165292E+03  0.27056894622E+03 -0.29121602183E+03  0.42910303311E+03  0.93322697970E+02 0.  0.
          4    1    3    3  502    0  0.13645573081E+03 -0.85365820696E+02 -0.59184867991E+02  0.17149442677E+03  0.00000000000E+00 0. -1.
         -3    1    3    3    0  502  0.44584831151E+03 -0.20967469586E+03 -0.51094139620E+02  0.49533302541E+03  0.00000000000E+00 0.  1.
         11    1    5    5    0    0 -0.18754986106E+03  0.63080048073E+01 -0.51662752104E+02  0.19463756385E+03  0.00000000000E+00 0. -1.
        -11    1    5    5    0    0 -0.52668583418E+03  0.18163565531E+02  0.20547306635E+02  0.52739935044E+03  0.00000000000E+00 0.  1.
          2    1    6    6  503    0  0.14464480825E+03  0.22897439335E+03 -0.26112143007E+03  0.37621243282E+03  0.00000000000E+00 0. -1.
         -2    1    6    6    0  503 -0.12713155328E+02  0.41594552865E+02 -0.30094591760E+02  0.52890600296E+02  0.00000000000E+00 0.  1.
<mgrwt>
<rscale>  0 0.17657445E+04</rscale>
<asrwt>0</asrwt>
<pdfrwt beam="1">  1        4 0.17312138E+00 0.17657445E+04</pdfrwt>
<pdfrwt beam="2">  1       -3 0.10656592E+00 0.17657445E+04</pdfrwt>
<totfact> 0.32689655E-01</totfact>
</mgrwt>
</event>
<event>
12    6  0.1553355E-007  0.4205461E+04  0.7818608E-02  0.7964334E-01
         -1   -1    0    0    0  501 -0.00000000000E+00  0.00000000000E+00  0.26673200570E+04  0.26673200570E+04  0.00000000000E+00 0.  1.
          2   -1    0    0  501    0  0.00000000000E+00 -0.00000000000E+00 -0.16576475667E+04  0.16576475667E+04  0.00000000000E+00 0. -1.
         24    2    1    2    0    0  0.15730506517E+04 -0.51471272359E+03 -0.68825668985E+03  0.17939888212E+04  0.72671032538E+02 0.  0.
        254    2    1    2    0    0 -0.15730506517E+04  0.51471272359E+03  0.16979291801E+04  0.25309788024E+04  0.88513990816E+03 0.  0.
         23    2    4    4    0    0  0.91602021580E+02  0.83129493062E+02  0.11518706052E+03  0.19204914390E+03  0.91177693467E+02 0.  0.
         23    2    4    4    0    0 -0.16646526732E+04  0.43158323053E+03  0.15827421196E+04  0.23389296585E+04  0.90480511140E+02 0.  0.
          2    1    3    3  502    0  0.14029911886E+04 -0.45058623661E+03 -0.58920599625E+03  0.15870021858E+04  0.00000000000E+00 0. -1.
         -1    1    3    3    0  502  0.17005946308E+03 -0.64126486982E+02 -0.99050693597E+02  0.20698663536E+03  0.00000000000E+00 0.  1.
         11    1    5    5    0    0  0.94568057124E+02  0.88944189561E+02  0.12502859481E+03  0.18023966213E+03  0.00000000000E+00 0. -1.
        -11    1    5    5    0    0 -0.29660355446E+01 -0.58146964990E+01 -0.98415342947E+01  0.11809481763E+02  0.00000000000E+00 0.  1.
          3    1    6    6  503    0 -0.15246441070E+04  0.41747761167E+03  0.14362305574E+04  0.21357868394E+04  0.00000000000E+00 0. -1.
         -3    1    6    6    0  503 -0.14000856624E+03  0.14105618853E+02  0.14651156227E+03  0.20314281917E+03  0.00000000000E+00 0.  1.
<mgrwt>
<rscale>  0 0.42054615E+04</rscale>
<asrwt>0</asrwt>
<pdfrwt beam="1">  1        2 0.25502270E+00 0.42054615E+04</pdfrwt>
<pdfrwt beam="2">  1       -1 0.41035693E+00 0.42054615E+04</pdfrwt>
<totfact> 0.55560195E-02</totfact>
</mgrwt>
</event>
<event>
12    6  0.1553355E-007  0.2737318E+04  0.7818608E-02  0.8322997E-01
         -1   -1    0    0    0  501 -0.00000000000E+00  0.00000000000E+00  0.78357210703E+03  0.78357210703E+03  0.00000000000E+00 0.  1.
          2   -1    0    0  501    0  0.00000000000E+00 -0.00000000000E+00 -0.23906262887E+04  0.23906262887E+04  0.00000000000E+00 0. -1.
         24    2    1    2    0    0  0.18524694943E+03  0.11531713585E+04 -0.63402882577E+03  0.13318365597E+04  0.87609677405E+02 0.  0.
        254    2    1    2    0    0 -0.18524694943E+03 -0.11531713585E+04 -0.97302535588E+03  0.18423618360E+04  0.10408641492E+04 0.  0.
         23    2    4    4    0    0 -0.33810840579E+01 -0.11589765588E+04 -0.11016643489E+04  0.16013911599E+04  0.86897721041E+02 0.  0.
         23    2    4    4    0    0 -0.18186586537E+03  0.58052002439E+01  0.12863899297E+03  0.24097067607E+03  0.91705958775E+02 0.  0.
          2    1    3    3  502    0  0.80448893482E+02  0.43702460559E+03 -0.28857376622E+03  0.52984653335E+03  0.00000000000E+00 0. -1.
         -1    1    3    3    0  502  0.10479805595E+03  0.71614675294E+03 -0.34545505955E+03  0.80199002640E+03  0.00000000000E+00 0.  1.
         11    1    5    5    0    0  0.35636113007E+01 -0.12631200868E+02 -0.27214226174E+02  0.30213584148E+02  0.00000000000E+00 0. -1.
        -11    1    5    5    0    0 -0.69446953586E+01 -0.11463453579E+04 -0.10744501227E+04  0.15711775757E+04  0.00000000000E+00 0.  1.
          1    1    6    6  503    0 -0.25128937444E+02  0.29008157267E+02  0.25238831123E+01  0.38461755954E+02  0.00000000000E+00 0. -1.
         -1    1    6    6    0  503 -0.15673692793E+03 -0.23202957024E+02  0.12611510986E+03  0.20250892011E+03  0.00000000000E+00 0.  1.
<mgrwt>
<rscale>  0 0.27373185E+04</rscale>
<asrwt>0</asrwt>
<pdfrwt beam="1">  1        2 0.36778865E+00 0.27373185E+04</pdfrwt>
<pdfrwt beam="2">  1       -1 0.12054956E+00 0.27373185E+04</pdfrwt>
<totfact> 0.24499548E+00</totfact>
</mgrwt>
</event>
<event>
12    6  0.1553355E-007  0.1190803E+04  0.7818608E-02  0.9120945E-01
          2   -1    0    0  501    0  0.00000000000E+00  0.00000000000E+00  0.12151632297E+04  0.12151632297E+04  0.00000000000E+00 0. -1.
         -1   -1    0    0    0  501 -0.00000000000E+00 -0.00000000000E+00 -0.29173257401E+03  0.29173257401E+03  0.00000000000E+00 0.  1.
         24    2    1    2    0    0 -0.16958931392E+03  0.16496087340E+03  0.77609292015E+02  0.26150575876E+03  0.79933938403E+02 0.  0.
        254    2    1    2    0    0  0.16958931392E+03 -0.16496087340E+03  0.84582136372E+03  0.12453900450E+04  0.88295524219E+03 0.  0.
         23    2    4    4    0    0 -0.29979265478E+02 -0.26956479318E+03 -0.73181513314E+02  0.29554206906E+03  0.91791321021E+02 0.  0.
         23    2    4    4    0    0  0.19956857940E+03  0.10460391978E+03  0.91900287703E+03  0.94984797593E+03  0.82917377426E+02 0.  0.
          2    1    3    3  502    0 -0.49351540038E+02  0.57413767628E+02  0.64845171857E+02  0.99683556972E+02  0.00000000000E+00 0. -1.
         -1    1    3    3    0  502 -0.12023777389E+03  0.10754710577E+03  0.12764120158E+02  0.16182220179E+03  0.00000000000E+00 0.  1.
         11    1    5    5    0    0 -0.81606306157E+01  0.57893735935E+01 -0.41302135589E+01  0.10824574019E+02  0.00000000000E+00 0. -1.
        -11    1    5    5    0    0 -0.21818634862E+02 -0.27535416677E+03 -0.69051299755E+02  0.28471749504E+03  0.00000000000E+00 0.  1.
          4    1    6    6  503    0  0.87580276968E+02  0.80794016949E+02  0.35889178998E+03  0.37815512029E+03  0.00000000000E+00 0.  1.
         -4    1    6    6    0  503  0.11198830243E+03  0.23809902828E+02  0.56011108705E+03  0.57169285564E+03  0.00000000000E+00 0. -1.
<mgrwt>
<rscale>  0 0.11908026E+04</rscale>
<asrwt>0</asrwt>
<pdfrwt beam="1">  1        2 0.18694819E+00 0.11908026E+04</pdfrwt>
<pdfrwt beam="2">  1       -1 0.44881935E-01 0.11908026E+04</pdfrwt>
<totfact> 0.10270292E+02</totfact>
</mgrwt>
</event>
<event>
12    6  0.1553355E-007  0.2960064E+04  0.7818608E-02  0.8255228E-01
          2   -1    0    0  501    0  0.00000000000E+00  0.00000000000E+00  0.12115812034E+04  0.12115812034E+04  0.00000000000E+00 0. -1.
         -1   -1    0    0    0  501 -0.00000000000E+00 -0.00000000000E+00 -0.18079638719E+04  0.18079638719E+04  0.00000000000E+00 0.  1.
         24    2    1    2    0    0 -0.62263297148E+03 -0.74806298168E+03 -0.12150846291E+04  0.15588717065E+04  0.79876779020E+02 0.  0.
        254    2    1    2    0    0  0.62263297148E+03  0.74806298168E+03  0.61870196057E+03  0.14606733687E+04  0.89638414330E+03 0.  0.
         23    2    4    4    0    0  0.18661373526E+03  0.51345381201E+03  0.75790239559E+03  0.93863424631E+03  0.90325543674E+02 0.  0.
         23    2    4    4    0    0  0.43601923622E+03  0.23460916967E+03 -0.13920043502E+03  0.52203912242E+03  0.89408318298E+02 0.  0.
          4    1    3    3  502    0 -0.19867383858E+03 -0.18762681642E+03 -0.31697084485E+03  0.41850404163E+03  0.00000000000E+00 0. -1.
         -3    1    3    3    0  502 -0.42395913290E+03 -0.56043616526E+03 -0.89811378420E+03  0.11403676649E+04  0.00000000000E+00 0.  1.
         11    1    5    5    0    0  0.99819838840E+02  0.26941203682E+03  0.47445060917E+03  0.55466226332E+03  0.00000000000E+00 0. -1.
        -11    1    5    5    0    0  0.86793896420E+02  0.24404177518E+03  0.28345178642E+03  0.38397198298E+03  0.00000000000E+00 0.  1.
          4    1    6    6  503    0  0.45517753822E+02  0.59874988213E+02 -0.24792003291E+02  0.79192951414E+02  0.00000000000E+00 0. -1.
         -4    1    6    6    0  503  0.39050148240E+03  0.17473418146E+03 -0.11440843173E+03  0.44284617101E+03  0.00000000000E+00 0.  1.
<mgrwt>
<rscale>  0 0.29600642E+04</rscale>
<asrwt>0</asrwt>
<pdfrwt beam="1">  1        2 0.18639711E+00 0.29600642E+04</pdfrwt>
<pdfrwt beam="2">  1       -1 0.27814829E+00 0.29600642E+04</pdfrwt>
<totfact> 0.83444383E-01</totfact>
</mgrwt>
</event>
<event>
12    6  0.1553355E-007  0.5168320E+04  0.7818608E-02  0.7803054E-01
         -1   -1    0    0    0  501 -0.00000000000E+00  0.00000000000E+00  0.23555234229E+04  0.23555234229E+04  0.00000000000E+00 0.  1.
          2   -1    0    0  501    0  0.00000000000E+00 -0.00000000000E+00 -0.28349894831E+04  0.28349894831E+04  0.00000000000E+00 0. -1.
         24    2    1    2    0    0 -0.37946881477E+03  0.21507378299E+04  0.10009984234E+04  0.24037931884E+04  0.80957115212E+02 0.  0.
        254    2    1    2    0    0  0.37946881477E+03 -0.21507378299E+04 -0.14804644835E+04  0.27867197176E+04  0.89686225403E+03 0.  0.
         23    2    4    4    0    0  0.11872677226E+03 -0.15380085020E+04 -0.14421221939E+04  0.21136910924E+04  0.91691946802E+02 0.  0.
         23    2    4    4    0    0  0.26074204251E+03 -0.61272932794E+03 -0.38342289614E+02  0.67302862518E+03  0.89854087811E+02 0.  0.
          4    1    3    3  502    0 -0.37197515137E+03  0.20375105275E+04  0.96309159421E+03  0.22841541283E+04  0.00000000000E+00 0. -1.
         -3    1    3    3    0  502 -0.74936634005E+01  0.11322730245E+03  0.37906829142E+02  0.11963906012E+03  0.00000000000E+00 0.  1.
         11    1    5    5    0    0  0.86329270535E+02 -0.55334034985E+03 -0.53247643542E+03  0.77276739062E+03  0.00000000000E+00 0. -1.
        -11    1    5    5    0    0  0.32397501725E+02 -0.98466815216E+03 -0.90964575849E+03  0.13409237018E+04  0.00000000000E+00 0.  1.
          3    1    6    6  503    0  0.10190358908E+03 -0.35158598980E+03 -0.12247550153E+02  0.36626090724E+03  0.00000000000E+00 0. -1.
         -3    1    6    6    0  503  0.15883845343E+03 -0.26114333814E+03 -0.26094739461E+02  0.30676771794E+03  0.00000000000E+00 0.  1.
<mgrwt>
<rscale>  0 0.51683205E+04</rscale>
<asrwt>0</asrwt>
<pdfrwt beam="1">  1        2 0.43615223E+00 0.51683205E+04</pdfrwt>
<pdfrwt beam="2">  1       -1 0.36238822E+00 0.51683205E+04</pdfrwt>
<totfact> 0.23115421E-02</totfact>
</mgrwt>
</event>
<event>
12    6  0.1553355E-007  0.2421873E+04  0.7818608E-02  0.8431360E-01
          2   -1    0    0  501    0  0.00000000000E+00  0.00000000000E+00  0.25891180062E+04  0.25891180062E+04  0.00000000000E+00 0. -1.
         -1   -1    0    0    0  501 -0.00000000000E+00 -0.00000000000E+00 -0.56635796577E+03  0.56635796577E+03  0.00000000000E+00 0.  1.
         24    2    1    2    0    0  0.86316854459E+03 -0.22571425617E+03  0.15732701381E+04  0.18104256044E+04  0.80343511908E+02 0.  0.
        254    2    1    2    0    0 -0.86316854459E+03  0.22571425617E+03  0.44948990232E+03  0.13450503675E+04  0.90061781968E+03 0.  0.
         23    2    4    4    0    0 -0.51090616954E+03  0.50726333886E+03  0.49902400946E+03  0.88057446951E+03  0.89695179939E+02 0.  0.
         23    2    4    4    0    0 -0.35226237504E+03 -0.28154908269E+03 -0.49534107140E+02  0.46447589803E+03  0.99627131070E+02 0.  0.
          4    1    3    3  502    0  0.82743575358E+03 -0.22633006086E+03  0.15321158634E+04  0.17559197708E+04  0.00000000000E+00 0. -1.
         -3    1    3    3    0  502  0.35732791007E+02  0.61580469727E+00  0.41154274742E+02  0.54505833616E+02  0.00000000000E+00 0.  1.
         11    1    5    5    0    0 -0.36078419259E+03  0.29938230232E+03  0.31079114896E+03  0.56248211957E+03  0.00000000000E+00 0.  1.
        -11    1    5    5    0    0 -0.15012197696E+03  0.20788103654E+03  0.18823286050E+03  0.31809234994E+03  0.00000000000E+00 0. -1.
          3    1    6    6  503    0  0.51709164602E+01 -0.10632748276E+02 -0.75151520282E+01  0.14009683185E+02  0.00000000000E+00 0. -1.
         -3    1    6    6    0  503 -0.35743329150E+03 -0.27091633441E+03 -0.42018955112E+02  0.45046621484E+03  0.00000000000E+00 0.  1.
<mgrwt>
<rscale>  0 0.24218733E+04</rscale>
<asrwt>0</asrwt>
<pdfrwt beam="1">  1        2 0.39832584E+00 0.24218733E+04</pdfrwt>
<pdfrwt beam="2">  1       -1 0.87131996E-01 0.24218733E+04</pdfrwt>
<totfact> 0.40898460E+00</totfact>
</mgrwt>
</event>
<event>
12    6  0.1553355E-007  0.1702399E+04  0.7818608E-02  0.8759997E-01
         -1   -1    0    0    0  501 -0.00000000000E+00  0.00000000000E+00  0.36502662896E+03  0.36502662896E+03  0.00000000000E+00 0.  1.
          2   -1    0    0  501    0  0.00000000000E+00 -0.00000000000E+00 -0.19848987890E+04  0.19848987890E+04  0.00000000000E+00 0. -1.
         24    2    1    2    0    0 -0.44181365471E+03  0.45231197335E+02 -0.77290048119E+01  0.45135896398E+03  0.80124965836E+02 0.  0.
        254    2    1    2    0    0  0.44181365471E+03 -0.45231197335E+02 -0.16121431552E+04  0.18985664539E+04  0.89905720648E+03 0.  0.
         23    2    4    4    0    0 -0.18394797255E+03 -0.26058822187E+03 -0.61832571888E+03  0.70094657844E+03  0.85184113625E+02 0.  0.
         23    2    4    4    0    0  0.62576162726E+03  0.21535702454E+03 -0.99381743630E+03  0.11976198755E+04  0.93080649574E+02 0.  0.
          4    1    3    3  502    0 -0.31501425924E+03  0.41690921441E+02 -0.40536449410E+02  0.32033626111E+03  0.00000000000E+00 0. -1.
         -3    1    3    3    0  502 -0.12679939547E+03  0.35402758941E+01  0.32807444599E+02  0.13102270287E+03  0.00000000000E+00 0.  1.
         11    1    5    5    0    0 -0.78790536318E+02 -0.16763151340E+03 -0.29301251238E+03  0.34664766740E+03  0.00000000000E+00 0. -1.
        -11    1    5    5    0    0 -0.10515743623E+03 -0.92956708470E+02 -0.32531320650E+03  0.35429891105E+03  0.00000000000E+00 0.  1.
          2    1    6    6  503    0  0.52045490488E+03  0.21414138998E+03 -0.84751265378E+03  0.10173532038E+04  0.00000000000E+00 0. -1.
         -2    1    6    6    0  503  0.10530672238E+03  0.12156345618E+01 -0.14630478252E+03  0.18026667172E+03  0.00000000000E+00 0.  1.
<mgrwt>
<rscale>  0 0.17023994E+04</rscale>
<asrwt>0</asrwt>
<pdfrwt beam="1">  1        2 0.30536904E+00 0.17023994E+04</pdfrwt>
<pdfrwt beam="2">  1       -1 0.56157943E-01 0.17023994E+04</pdfrwt>
<totfact> 0.23681961E+01</totfact>
</mgrwt>
</event>
<event>
12    6  0.1553355E-007  0.1289573E+04  0.7818608E-02  0.9037875E-01
          2   -1    0    0  501    0  0.00000000000E+00  0.00000000000E+00  0.26503348787E+04  0.26503348787E+04  0.00000000000E+00 0. -1.
         -1   -1    0    0    0  501 -0.00000000000E+00 -0.00000000000E+00 -0.15686689217E+03  0.15686689217E+03  0.00000000000E+00 0.  1.
         24    2    1    2    0    0  0.80197016287E+02  0.17592768005E+03  0.13210208432E+04  0.13374966352E+04  0.80119105955E+02 0.  0.
        254    2    1    2    0    0 -0.80197016287E+02 -0.17592768005E+03  0.11724471434E+04  0.14697051357E+04  0.86488078470E+03 0.  0.
         23    2    4    4    0    0  0.21295480277E+03 -0.31807440282E+03  0.20253996655E+03  0.44264905246E+03  0.91622441795E+02 0.  0.
         23    2    4    4    0    0 -0.29315181906E+03  0.14214672278E+03  0.96990717685E+03  0.10270560832E+04  0.89334128732E+02 0.  0.
          4    1    3    3  502    0  0.77509125470E+02  0.18441969505E+03  0.12781707841E+04  0.12937305909E+04  0.00000000000E+00 0. -1.
         -3    1    3    3    0  502  0.26878908172E+01 -0.84920150029E+01  0.42850059063E+02  0.43766044344E+02  0.00000000000E+00 0.  1.
         11    1    5    5    0    0  0.17571925586E+03 -0.24353366831E+03  0.11440900339E+03  0.32136478423E+03  0.00000000000E+00 0.  1.
        -11    1    5    5    0    0  0.37235546906E+02 -0.74540734513E+02  0.88130963152E+02  0.12128426823E+03  0.00000000000E+00 0. -1.
          4    1    6    6  503    0 -0.53167735656E+02 -0.51291726222E+01  0.11120345832E+03  0.12336663110E+03  0.00000000000E+00 0. -1.
         -4    1    6    6    0  503 -0.23998408340E+03  0.14727589540E+03  0.85870371853E+03  0.90368945212E+03  0.00000000000E+00 0.  1.
<mgrwt>
<rscale>  0 0.12895733E+04</rscale>
<asrwt>0</asrwt>
<pdfrwt beam="1">  1        2 0.40774379E+00 0.12895733E+04</pdfrwt>
<pdfrwt beam="2">  1       -1 0.24133370E-01 0.12895733E+04</pdfrwt>
<totfact> 0.47564360E+01</totfact>
</mgrwt>
</event>
<event>
12    6  0.1553355E-007  0.1537823E+04  0.7818608E-02  0.8859684E-01
         -1   -1    0    0    0  501 -0.00000000000E+00  0.00000000000E+00  0.52398682236E+03  0.52398682236E+03  0.00000000000E+00 0.  1.
          2   -1    0    0  501    0  0.00000000000E+00 -0.00000000000E+00 -0.11283195742E+04  0.11283195742E+04  0.00000000000E+00 0. -1.
         24    2    1    2    0    0  0.31753946745E+03 -0.22332695340E+03 -0.49786088808E+03  0.63636871257E+03  0.79958945395E+02 0.  0.
        254    2    1    2    0    0 -0.31753946745E+03  0.22332695340E+03 -0.10647186377E+03  0.10159376840E+04  0.93278447590E+03 0.  0.
         23    2    4    4    0    0  0.19687566619E+03  0.29979775613E+03 -0.27528112032E+03  0.46147797288E+03  0.92431064732E+02 0.  0.
         23    2    4    4    0    0 -0.51441513364E+03 -0.76470802737E+02  0.16880925655E+03  0.55445971112E+03  0.91968977185E+02 0.  0.
          2    1    3    3  502    0  0.26913643232E+03 -0.20765691147E+03 -0.46422510040E+03  0.57537879342E+03  0.00000000000E+00 0. -1.
         -1    1    3    3    0  502  0.48403035131E+02 -0.15670041930E+02 -0.33635787687E+02  0.60989919145E+02  0.00000000000E+00 0.  1.
         11    1    5    5    0    0  0.11061415205E+03  0.12029260377E+03 -0.17154224355E+03  0.23692307291E+03  0.00000000000E+00 0.  1.
        -11    1    5    5    0    0  0.86261514144E+02  0.17950515236E+03 -0.10373887677E+03  0.22455489997E+03  0.00000000000E+00 0. -1.
          4    1    6    6  503    0 -0.19287197784E+03 -0.65666712450E+02  0.92774467550E+02  0.22387232698E+03  0.00000000000E+00 0. -1.
         -4    1    6    6    0  503 -0.32154315580E+03 -0.10804090287E+02  0.76034789001E+02  0.33058738414E+03  0.00000000000E+00 0.  1.
<mgrwt>
<rscale>  0 0.15378226E+04</rscale>
<asrwt>0</asrwt>
<pdfrwt beam="1">  1        2 0.17358763E+00 0.15378226E+04</pdfrwt>
<pdfrwt beam="2">  1       -1 0.80613358E-01 0.15378226E+04</pdfrwt>
<totfact> 0.35299413E+01</totfact>
</mgrwt>
</event>
<event>
12    6  0.1553355E-007  0.1801925E+04  0.7818608E-02  0.8705277E-01
         -1   -1    0    0    0  501 -0.00000000000E+00  0.00000000000E+00  0.69588246764E+03  0.69588246764E+03  0.00000000000E+00 0.  1.
          2   -1    0    0  501    0  0.00000000000E+00 -0.00000000000E+00 -0.11664801227E+04  0.11664801227E+04  0.00000000000E+00 0. -1.
         24    2    1    2    0    0 -0.57179459674E+03  0.65249502169E+02  0.18709921386E+03  0.61038147977E+03  0.79704934766E+02 0.  0.
        254    2    1    2    0    0  0.57179459674E+03 -0.65249502169E+02 -0.65769686896E+03  0.12519811106E+04  0.89648478597E+03 0.  0.
         23    2    4    4    0    0  0.72971976953E+03 -0.25415830396E+03 -0.60052848364E+03  0.98279558415E+03  0.90362132860E+02 0.  0.
         23    2    4    4    0    0 -0.15792517278E+03  0.18890880179E+03 -0.57168385320E+02  0.26918552646E+03  0.92551217070E+02 0.  0.
          2    1    3    3  502    0 -0.42199232690E+03  0.57996406192E+02  0.10222613429E+03  0.43805398026E+03  0.00000000000E+00 0. -1.
         -1    1    3    3    0  502 -0.14980226984E+03  0.72530959771E+01  0.84873079570E+02  0.17232749951E+03  0.00000000000E+00 0.  1.
         11    1    5    5    0    0  0.81288597858E+02 -0.14627606243E+01 -0.76486561769E+02  0.11162513132E+03  0.00000000000E+00 0.  1.
        -11    1    5    5    0    0  0.64843117167E+03 -0.25269554333E+03 -0.52404192187E+03  0.87117045284E+03  0.00000000000E+00 0. -1.
          4    1    6    6  503    0 -0.15823018743E+02  0.30277539836E+02  0.23481744707E+02  0.41454670125E+02  0.00000000000E+00 0.  1.
         -4    1    6    6    0  503 -0.14210215404E+03  0.15863126195E+03 -0.80650130027E+02  0.22773085633E+03  0.00000000000E+00 0. -1.
<mgrwt>
<rscale>  0 0.18019246E+04</rscale>
<asrwt>0</asrwt>
<pdfrwt beam="1">  1        2 0.17945848E+00 0.18019246E+04</pdfrwt>
<pdfrwt beam="2">  1       -1 0.10705884E+00 0.18019246E+04</pdfrwt>
<totfact> 0.17376650E+01</totfact>
</mgrwt>
</event>
<event>
12    6  0.1553355E-007  0.1686200E+04  0.7818608E-02  0.8769274E-01
         -1   -1    0    0    0  501 -0.00000000000E+00  0.00000000000E+00  0.22085151888E+03  0.22085151888E+03  0.00000000000E+00 0.  1.
          2   -1    0    0  501    0  0.00000000000E+00 -0.00000000000E+00 -0.32185328005E+04  0.32185328005E+04  0.00000000000E+00 0. -1.
         24    2    1    2    0    0 -0.41421914333E+02 -0.58342552352E+03 -0.14134679032E+04  0.15318346568E+04  0.80776145782E+02 0.  0.
        254    2    1    2    0    0  0.41421914333E+02  0.58342552352E+03 -0.15842133784E+04  0.19075496626E+04  0.88708092677E+03 0.  0.
         23    2    4    4    0    0 -0.18135856265E+03  0.12875840840E+02 -0.11071373147E+04  0.11257273515E+04  0.91936504193E+02 0.  0.
         23    2    4    4    0    0  0.22278047699E+03  0.57054968268E+03 -0.47707606375E+03  0.78182231118E+03  0.92122062084E+02 0.  0.
          2    1    3    3  502    0  0.13780452848E+02 -0.35779457342E+03 -0.84348157134E+03  0.91633401052E+03  0.00000000000E+00 0. -1.
         -1    1    3    3    0  502 -0.55202367181E+02 -0.22563095010E+03 -0.56998633191E+03  0.61550064626E+03  0.00000000000E+00 0.  1.
         11    1    5    5    0    0 -0.11152431011E+03  0.91208545288E+01 -0.40686525130E+03  0.42197179343E+03  0.00000000000E+00 0.  1.
        -11    1    5    5    0    0 -0.69834252547E+02  0.37549863114E+01 -0.70027206335E+03  0.70375555803E+03  0.00000000000E+00 0. -1.
          1    1    6    6  503    0  0.16376223838E+03  0.46116631607E+03 -0.42066387485E+03  0.64532978965E+03  0.00000000000E+00 0. -1.
         -1    1    6    6    0  503  0.59018238604E+02  0.10938336661E+03 -0.56412188900E+02  0.13649252153E+03  0.00000000000E+00 0.  1.
<mgrwt>
<rscale>  0 0.16862003E+04</rscale>
<asrwt>0</asrwt>
<pdfrwt beam="1">  1        2 0.49515886E+00 0.16862003E+04</pdfrwt>
<pdfrwt beam="2">  1       -1 0.33977159E-01 0.16862003E+04</pdfrwt>
<totfact> 0.11271203E+01</totfact>
</mgrwt>
</event>
<event>
12    6  0.1553355E-007  0.1400894E+04  0.7818608E-02  0.8953172E-01
         -1   -1    0    0    0  501 -0.00000000000E+00  0.00000000000E+00  0.26847454913E+03  0.26847454913E+03  0.00000000000E+00 0.  1.
          2   -1    0    0  501    0  0.00000000000E+00 -0.00000000000E+00 -0.18274575357E+04  0.18274575357E+04  0.00000000000E+00 0. -1.
         24    2    1    2    0    0  0.10491394167E+03  0.24584664534E+03 -0.92619472606E+03  0.96732663704E+03  0.80228697894E+02 0.  0.
        254    2    1    2    0    0 -0.10491394167E+03 -0.24584664534E+03 -0.63278826049E+03  0.11286054478E+04  0.89547851229E+03 0.  0.
         23    2    4    4    0    0  0.56127675360E+02 -0.25447753931E+03 -0.81978293376E+03  0.86520245317E+03  0.92855223557E+02 0.  0.
         23    2    4    4    0    0 -0.16104161703E+03  0.86308939721E+01  0.18699467326E+03  0.26340299461E+03  0.91680068696E+02 0.  0.
          2    1    3    3  502    0  0.80705651243E+02  0.14710468860E+03 -0.44671525216E+03  0.47718728825E+03  0.00000000000E+00 0. -1.
         -1    1    3    3    0  502  0.24208290428E+02  0.98741956736E+02 -0.47947947390E+03  0.49013934879E+03  0.00000000000E+00 0.  1.
         11    1    5    5    0    0  0.67646494255E+02 -0.11903721161E+03 -0.48276809605E+03  0.50180767282E+03  0.00000000000E+00 0. -1.
        -11    1    5    5    0    0 -0.11518818895E+02 -0.13544032770E+03 -0.33701483771E+03  0.36339478035E+03  0.00000000000E+00 0.  1.
          3    1    6    6  503    0 -0.16805552295E+03 -0.43076827796E+01  0.15713985377E+03  0.23011768417E+03  0.00000000000E+00 0. -1.
         -3    1    6    6    0  503  0.70139059158E+01  0.12938576752E+02  0.29854819492E+02  0.33285310445E+02  0.00000000000E+00 0.  1.
<mgrwt>
<rscale>  0 0.14008938E+04</rscale>
<asrwt>0</asrwt>
<pdfrwt beam="1">  1        2 0.28114732E+00 0.14008938E+04</pdfrwt>
<pdfrwt beam="2">  1       -1 0.41303776E-01 0.14008938E+04</pdfrwt>
<totfact> 0.53047000E+01</totfact>
</mgrwt>
</event>
<event>
12    6  0.1553355E-007  0.1880669E+04  0.7818608E-02  0.8664539E-01
          2   -1    0    0  501    0  0.00000000000E+00  0.00000000000E+00  0.71837516894E+03  0.71837516894E+03  0.00000000000E+00 0. -1.
         -1   -1    0    0    0  501 -0.00000000000E+00 -0.00000000000E+00 -0.12308731063E+04  0.12308731063E+04  0.00000000000E+00 0.  1.
         24    2    1    2    0    0  0.44286203124E+01 -0.27569504316E+03 -0.75412795205E+03  0.80682500170E+03  0.78931906115E+02 0.  0.
        254    2    1    2    0    0 -0.44286203124E+01  0.27569504316E+03  0.24163001470E+03  0.11424232735E+04  0.10819974595E+04 0.  0.
         23    2    4    4    0    0 -0.12057752541E+03  0.94135003359E+02  0.64803971767E+03  0.67198146581E+03  0.90571939449E+02 0.  0.
         23    2    4    4    0    0  0.11614890509E+03  0.18156003980E+03 -0.40640970298E+03  0.47044180772E+03  0.98448116136E+02 0.  0.
          4    1    3    3  502    0  0.29720788232E+02 -0.60468146652E+02 -0.22992745875E+03  0.23959624016E+03  0.00000000000E+00 0. -1.
         -3    1    3    3    0  502 -0.25292167920E+02 -0.21522689651E+03 -0.52420049329E+03  0.56722876153E+03  0.00000000000E+00 0.  1.
         11    1    5    5    0    0 -0.60814285598E+02  0.78345578609E+02  0.24637382165E+03  0.26558702343E+03  0.00000000000E+00 0. -1.
        -11    1    5    5    0    0 -0.59763239809E+02  0.15789424750E+02  0.40166589602E+03  0.40639444237E+03  0.00000000000E+00 0.  1.
          3    1    6    6  503    0  0.54966036843E+01  0.15514010397E+02 -0.12148658375E+03  0.12259644041E+03  0.00000000000E+00 0. -1.
         -3    1    6    6    0  503  0.11065230141E+03  0.16604602940E+03 -0.28492311923E+03  0.34784536731E+03  0.00000000000E+00 0.  1.
<mgrwt>
<rscale>  0 0.18806687E+04</rscale>
<asrwt>0</asrwt>
<pdfrwt beam="1">  1        2 0.11051926E+00 0.18806687E+04</pdfrwt>
<pdfrwt beam="2">  1       -1 0.18936509E+00 0.18806687E+04</pdfrwt>
<totfact> 0.75780528E+00</totfact>
</mgrwt>
</event>
<event>
12    6  0.1553355E-007  0.1675644E+04  0.7818608E-02  0.8775379E-01
          2   -1    0    0  501    0  0.00000000000E+00  0.00000000000E+00  0.42358235352E+03  0.42358235352E+03  0.00000000000E+00 0. -1.
         -1   -1    0    0    0  501 -0.00000000000E+00 -0.00000000000E+00 -0.16571651416E+04  0.16571651416E+04  0.00000000000E+00 0.  1.
         24    2    1    2    0    0  0.50631556877E+03 -0.14546258941E+03 -0.76805229370E+03  0.93492103541E+03  0.81597772694E+02 0.  0.
        254    2    1    2    0    0 -0.50631556877E+03  0.14546258941E+03 -0.46553049436E+03  0.11458264597E+04  0.90481203265E+03 0.  0.
         23    2    4    4    0    0 -0.29566343469E+03  0.51403020173E+03 -0.35819238238E+03  0.69893890882E+03  0.92573757434E+02 0.  0.
         23    2    4    4    0    0 -0.21065213408E+03 -0.36856761232E+03 -0.10733811198E+03  0.44688755086E+03  0.89278252575E+02 0.  0.
          2    1    3    3  502    0  0.31611014921E+03 -0.11357112033E+03 -0.42897996838E+03  0.54483744281E+03  0.00000000000E+00 0. -1.
         -1    1    3    3    0  502  0.19020541955E+03 -0.31891469088E+02 -0.33907232531E+03  0.39008359261E+03  0.00000000000E+00 0.  1.
         11    1    5    5    0    0 -0.22516706209E+03  0.30183587934E+03 -0.22666799114E+03  0.43952642937E+03  0.00000000000E+00 0. -1.
        -11    1    5    5    0    0 -0.70496372603E+02  0.21219432239E+03 -0.13152439124E+03  0.25941247945E+03  0.00000000000E+00 0.  1.
          1    1    6    6  503    0 -0.12605677708E+03 -0.29624549588E+03 -0.89611087315E+02  0.33418834786E+03  0.00000000000E+00 0. -1.
         -1    1    6    6    0  503 -0.84595357000E+02 -0.72322116445E+02 -0.17727024669E+02  0.11269920300E+03  0.00000000000E+00 0.  1.
<mgrwt>
<rscale>  0 0.16756442E+04</rscale>
<asrwt>0</asrwt>
<pdfrwt beam="1">  1        2 0.65166516E-01 0.16756442E+04</pdfrwt>
<pdfrwt beam="2">  1       -1 0.25494848E+00 0.16756442E+04</pdfrwt>
<totfact> 0.52598306E+00</totfact>
</mgrwt>
</event>
<event>
12    6  0.1553355E-007  0.2083945E+04  0.7818608E-02  0.8568349E-01
          2   -1    0    0  501    0  0.00000000000E+00  0.00000000000E+00  0.23722875515E+04  0.23722875515E+04  0.00000000000E+00 0. -1.
         -1   -1    0    0    0  501 -0.00000000000E+00 -0.00000000000E+00 -0.45766232473E+03  0.45766232473E+03  0.00000000000E+00 0.  1.
         24    2    1    2    0    0  0.35696151952E+02  0.79916453733E+03  0.42118896445E+03  0.90761036064E+03  0.80113981249E+02 0.  0.
        254    2    1    2    0    0 -0.35696151952E+02 -0.79916453733E+03  0.14934362623E+04  0.19223395156E+04  0.90834969620E+03 0.  0.
         23    2    4    4    0    0 -0.35265997881E+03 -0.74737689610E+03  0.12745840430E+04  0.15218449949E+04  0.92230258009E+02 0.  0.
         23    2    4    4    0    0  0.31696382686E+03 -0.51787641224E+02  0.21885221928E+03  0.40049452061E+03  0.96703359977E+02 0.  0.
          2    1    3    3  502    0  0.28084011585E+01  0.14855695276E+03  0.11453665170E+03  0.18760517027E+03  0.00000000000E+00 0. -1.
         -1    1    3    3    0  502  0.32887750794E+02  0.65060758457E+03  0.30665231275E+03  0.72000519037E+03  0.00000000000E+00 0.  1.
         11    1    5    5    0    0 -0.52248127486E+01 -0.92504651663E+01  0.44999774266E+02  0.46236884173E+02  0.00000000000E+00 0. -1.
        -11    1    5    5    0    0 -0.34743516606E+03 -0.73812643094E+03  0.12295842687E+04  0.14756081108E+04  0.00000000000E+00 0.  1.
          4    1    6    6  503    0  0.29544177138E+03 -0.31546210477E+02  0.22183554904E+03  0.37079915654E+03  0.00000000000E+00 0.  1.
         -4    1    6    6    0  503  0.21522055484E+02 -0.20241430747E+02 -0.29833297586E+01  0.29695364072E+02  0.00000000000E+00 0. -1.
<mgrwt>
<rscale>  0 0.20839449E+04</rscale>
<asrwt>0</asrwt>
<pdfrwt beam="1">  1        2 0.36496731E+00 0.20839449E+04</pdfrwt>
<pdfrwt beam="2">  1       -1 0.70409590E-01 0.20839449E+04</pdfrwt>
<totfact> 0.88301161E+00</totfact>
</mgrwt>
</event>
<event>
12    6  0.1553355E-007  0.2695099E+04  0.7818608E-02  0.8336597E-01
          2   -1    0    0  501    0  0.00000000000E+00  0.00000000000E+00  0.15814732774E+04  0.15814732774E+04  0.00000000000E+00 0. -1.
         -1   -1    0    0    0  501 -0.00000000000E+00 -0.00000000000E+00 -0.11482266303E+04  0.11482266303E+04  0.00000000000E+00 0.  1.
         24    2    1    2    0    0  0.85106409675E+03 -0.38737154610E+03 -0.56153200681E+03  0.10936841461E+04  0.80374157750E+02 0.  0.
        254    2    1    2    0    0 -0.85106409675E+03  0.38737154610E+03  0.99477865390E+03  0.16360157617E+04  0.90144117433E+03 0.  0.
         23    2    4    4    0    0  0.10782963747E+03  0.27734589954E+03  0.13176470510E+03  0.33795995962E+03  0.91142844398E+02 0.  0.
         23    2    4    4    0    0 -0.95889373422E+03  0.11002564656E+03  0.86301394880E+03  0.12980558021E+04  0.92590242769E+02 0.  0.
          2    1    3    3  502    0  0.25017682206E+03 -0.15315627053E+03 -0.16348770833E+03  0.33581768308E+03  0.00000000000E+00 0. -1.
         -1    1    3    3    0  502  0.60088727469E+03 -0.23421527557E+03 -0.39804429848E+03  0.75786646300E+03  0.00000000000E+00 0.  1.
         11    1    5    5    0    0  0.82652325984E+02  0.96834348216E+02  0.37235307823E+02  0.13264526427E+03  0.00000000000E+00 0.  1.
        -11    1    5    5    0    0  0.25177311490E+02  0.18051155133E+03  0.94529397275E+02  0.20531469535E+03  0.00000000000E+00 0. -1.
          3    1    6    6  503    0 -0.99263393026E+02  0.39723418609E+02  0.10356793598E+03  0.14885391679E+03  0.00000000000E+00 0. -1.
         -3    1    6    6    0  503 -0.85963034120E+03  0.70302227948E+02  0.75944601282E+03  0.11492018853E+04  0.00000000000E+00 0.  1.
<mgrwt>
<rscale>  0 0.26950991E+04</rscale>
<asrwt>0</asrwt>
<pdfrwt beam="1">  1        2 0.24330358E+00 0.26950991E+04</pdfrwt>
<pdfrwt beam="2">  1       -1 0.17665025E+00 0.26950991E+04</pdfrwt>
<totfact> 0.25115513E+00</totfact>
</mgrwt>
</event>
<event>
12    6  0.1553355E-007  0.1667867E+04  0.7818608E-02  0.8779906E-01
          2   -1    0    0  501    0  0.00000000000E+00  0.00000000000E+00  0.35955470511E+04  0.35955470511E+04  0.00000000000E+00 0. -1.
         -1   -1    0    0    0  501 -0.00000000000E+00 -0.00000000000E+00 -0.19341854475E+03  0.19341854475E+03  0.00000000000E+00 0.  1.
         24    2    1    2    0    0 -0.58394012949E+03  0.21196714560E+02  0.12016331692E+04  0.13386514322E+04  0.81424860904E+02 0.  0.
        254    2    1    2    0    0  0.58394012949E+03 -0.21196714560E+02  0.22004953371E+04  0.24503141637E+04  0.90577281723E+03 0.  0.
         23    2    4    4    0    0  0.55048640601E+03 -0.35575316726E+03  0.18088099942E+04  0.19260578118E+04  0.91156460162E+02 0.  0.
         23    2    4    4    0    0  0.33453723479E+02  0.33455645270E+03  0.39168534292E+03  0.52425635182E+03  0.91543120496E+02 0.  0.
          2    1    3    3  502    0 -0.31152600269E+02 -0.15586695803E+02  0.92740969744E+02  0.99067235041E+02  0.00000000000E+00 0. -1.
         -1    1    3    3    0  502 -0.55278752922E+03  0.36783410363E+02  0.11088921995E+04  0.12395841971E+04  0.00000000000E+00 0.  1.
         11    1    5    5    0    0  0.26800507711E+02 -0.10804765052E+02  0.14820421726E+03  0.15099503361E+03  0.00000000000E+00 0.  1.
        -11    1    5    5    0    0  0.52368589830E+03 -0.34494840220E+03  0.16606057769E+04  0.17750627782E+04  0.00000000000E+00 0. -1.
          4    1    6    6  503    0  0.37681776645E+02  0.26917869447E+03  0.36107753013E+03  0.45194476279E+03  0.00000000000E+00 0. -1.
         -4    1    6    6    0  503 -0.42280531663E+01  0.65377758226E+02  0.30607812787E+02  0.72311589029E+02  0.00000000000E+00 0.  1.
<mgrwt>
<rscale>  0 0.16678675E+04</rscale>
<asrwt>0</asrwt>
<pdfrwt beam="1">  1        2 0.55316104E+00 0.16678675E+04</pdfrwt>
<pdfrwt beam="2">  1       -1 0.29756702E-01 0.16678675E+04</pdfrwt>
<totfact> 0.79120168E+00</totfact>
</mgrwt>
</event>
<event>
12    6  0.1553355E-007  0.1642497E+04  0.7818608E-02  0.8794858E-01
         -1   -1    0    0    0  501 -0.00000000000E+00  0.00000000000E+00  0.53842165890E+03  0.53842165890E+03  0.00000000000E+00 0.  1.
          2   -1    0    0  501    0  0.00000000000E+00 -0.00000000000E+00 -0.12526406275E+04  0.12526406275E+04  0.00000000000E+00 0. -1.
         24    2    1    2    0    0 -0.29548849770E+03 -0.20053003844E+03 -0.72944197320E+03  0.81786791293E+03  0.96418785217E+02 0.  0.
        254    2    1    2    0    0  0.29548849770E+03  0.20053003844E+03  0.15223004579E+02  0.97319437349E+03  0.90517942980E+03 0.  0.
         23    2    4    4    0    0  0.36717993262E+03  0.47819111255E+03  0.17223918480E+03  0.63389423471E+03  0.93100596017E+02 0.  0.
         23    2    4    4    0    0 -0.71691434922E+02 -0.27766107411E+03 -0.15701618022E+03  0.33930013878E+03  0.90747834165E+02 0.  0.
          2    1    3    3  502    0 -0.26691901442E+03 -0.16388234175E+03 -0.55436171593E+03  0.63672607477E+03  0.00000000000E+00 0. -1.
         -1    1    3    3    0  502 -0.28569483277E+02 -0.36647696690E+02 -0.17508025727E+03  0.18114183816E+03  0.00000000000E+00 0.  1.
         11    1    5    5    0    0  0.15833943766E+03  0.18025675353E+03  0.11322621272E+03  0.26529992454E+03  0.00000000000E+00 0. -1.
        -11    1    5    5    0    0  0.20884049496E+03  0.29793435902E+03  0.59012972080E+02  0.36859431017E+03  0.00000000000E+00 0.  1.
          1    1    6    6  503    0 -0.50246648147E+02 -0.20570086154E+03 -0.15801014962E+03  0.26420593761E+03  0.00000000000E+00 0. -1.
         -1    1    6    6    0  503 -0.21444786775E+02 -0.71960212575E+02  0.99396939625E+00  0.75094201167E+02  0.00000000000E+00 0.  1.
<mgrwt>
<rscale>  0 0.16424967E+04</rscale>
<asrwt>0</asrwt>
<pdfrwt beam="1">  1        2 0.19271394E+00 0.16424967E+04</pdfrwt>
<pdfrwt beam="2">  1       -1 0.82834102E-01 0.16424967E+04</pdfrwt>
<totfact> 0.27807286E+01</totfact>
</mgrwt>
</event>
<event>
12    6  0.1553355E-007  0.1752634E+04  0.7818608E-02  0.8731902E-01
          2   -1    0    0  501    0  0.00000000000E+00  0.00000000000E+00  0.23476395256E+04  0.23476395256E+04  0.00000000000E+00 0. -1.
         -1   -1    0    0    0  501 -0.00000000000E+00 -0.00000000000E+00 -0.32710805863E+03  0.32710805863E+03  0.00000000000E+00 0.  1.
         24    2    1    2    0    0 -0.38018937888E+03  0.52117512317E+02 -0.53740589872E+02  0.39448063028E+03  0.73937255555E+02 0.  0.
        254    2    1    2    0    0  0.38018937888E+03 -0.52117512317E+02  0.20742720569E+04  0.22802669540E+04  0.86588256514E+03 0.  0.
         23    2    4    4    0    0 -0.15073352863E+03 -0.14424976505E+03  0.13695315812E+04  0.13886118933E+04  0.95381584787E+02 0.  0.
         23    2    4    4    0    0  0.53092290751E+03  0.92132252730E+02  0.70474047565E+03  0.89165506075E+03  0.89566308494E+02 0.  0.
          2    1    3    3  502    0 -0.14550498144E+03 -0.16125496066E+02 -0.19526037056E+02  0.14769223870E+03  0.00000000000E+00 0. -1.
         -1    1    3    3    0  502 -0.23468439744E+03  0.68243008382E+02 -0.34214552816E+02  0.24678839158E+03  0.00000000000E+00 0.  1.
         11    1    5    5    0    0 -0.10249679475E+03 -0.32655620620E+02  0.67586677919E+03  0.68437408317E+03  0.00000000000E+00 0.  1.
        -11    1    5    5    0    0 -0.48236733881E+02 -0.11159414443E+03  0.69366480204E+03  0.70423781008E+03  0.00000000000E+00 0. -1.
          4    1    6    6  503    0  0.52538201353E+03  0.89961419110E+02  0.66880727514E+03  0.85523241773E+03  0.00000000000E+00 0. -1.
         -4    1    6    6    0  503  0.55408939868E+01  0.21708336201E+01  0.35933200519E+02  0.36422643016E+02  0.00000000000E+00 0.  1.
<mgrwt>
<rscale>  0 0.17526344E+04</rscale>
<asrwt>0</asrwt>
<pdfrwt beam="1">  1        2 0.36117530E+00 0.17526344E+04</pdfrwt>
<pdfrwt beam="2">  1       -1 0.50324318E-01 0.17526344E+04</pdfrwt>
<totfact> 0.18236628E+01</totfact>
</mgrwt>
</event>
<event>
12    6  0.1553355E-007  0.2573899E+04  0.7818608E-02  0.8377121E-01
          2   -1    0    0  501    0  0.00000000000E+00  0.00000000000E+00  0.20385517857E+04  0.20385517857E+04  0.00000000000E+00 0. -1.
         -1   -1    0    0    0  501 -0.00000000000E+00 -0.00000000000E+00 -0.81245889609E+03  0.81245889609E+03  0.00000000000E+00 0.  1.
         24    2    1    2    0    0 -0.84319091390E+03  0.54545607688E+01  0.13294539691E+04  0.15763916074E+04  0.81006013975E+02 0.  0.
        254    2    1    2    0    0  0.84319091390E+03 -0.54545607688E+01 -0.10336107951E+03  0.12746190744E+04  0.95024712709E+03 0.  0.
         23    2    4    4    0    0  0.37602166984E+03  0.14668463882E+03 -0.49091319518E+03  0.64212744972E+03  0.91778085793E+02 0.  0.
         23    2    4    4    0    0  0.46716924406E+03 -0.15213919959E+03  0.38755211567E+03  0.63249162468E+03  0.91954196638E+02 0.  0.
          4    1    3    3  502    0 -0.83519967296E+03  0.11387062458E+02  0.13227116125E+04  0.15643702148E+04  0.00000000000E+00 0. -1.
         -3    1    3    3    0  502 -0.79912409471E+01 -0.59325016889E+01  0.67423565688E+01  0.12021392609E+02  0.00000000000E+00 0.  1.
         11    1    5    5    0    0  0.12839568945E+03  0.28416263404E+02 -0.22130134786E+03  0.25742420955E+03  0.00000000000E+00 0. -1.
        -11    1    5    5    0    0  0.24762598039E+03  0.11826837542E+03 -0.26961184731E+03  0.38470324017E+03  0.00000000000E+00 0.  1.
          2    1    6    6  503    0  0.38617329892E+03 -0.99613658560E+02  0.27619056234E+03  0.48511228030E+03  0.00000000000E+00 0. -1.
         -2    1    6    6    0  503  0.80995945145E+02 -0.52525541033E+02  0.11136155333E+03  0.14737934438E+03  0.00000000000E+00 0.  1.
<mgrwt>
<rscale>  0 0.25738994E+04</rscale>
<asrwt>0</asrwt>
<pdfrwt beam="1">  1        2 0.31362335E+00 0.25738994E+04</pdfrwt>
<pdfrwt beam="2">  1       -1 0.12499368E+00 0.25738994E+04</pdfrwt>
<totfact> 0.35893455E+00</totfact>
</mgrwt>
</event>
<event>
12    6  0.1553355E-007  0.1423899E+04  0.7818608E-02  0.8936699E-01
          4   -1    0    0  501    0  0.00000000000E+00  0.00000000000E+00  0.43742662945E+03  0.43742662945E+03  0.00000000000E+00 0. -1.
         -3   -1    0    0    0  501 -0.00000000000E+00 -0.00000000000E+00 -0.11587588665E+04  0.11587588665E+04  0.00000000000E+00 0.  1.
         24    2    1    2    0    0  0.18279155238E+03 -0.27319537235E+03 -0.53662858164E+03  0.63410954853E+03  0.77950123851E+02 0.  0.
        254    2    1    2    0    0 -0.18279155238E+03  0.27319537235E+03 -0.18470365544E+03  0.96207594745E+03  0.88511367927E+03 0.  0.
         23    2    4    4    0    0 -0.14493572377E+03 -0.30756809656E+03 -0.10682364027E+03  0.36788765957E+03  0.91244407469E+02 0.  0.
         23    2    4    4    0    0 -0.37855828616E+02  0.58076346891E+03 -0.77880015170E+02  0.59418828788E+03  0.90967874083E+02 0.  0.
          4    1    3    3  502    0  0.11797366600E+02 -0.23772186453E+02 -0.13288938004E+02  0.29679800887E+02  0.00000000000E+00 0. -1.
         -3    1    3    3    0  502  0.17099418578E+03 -0.24942318589E+03 -0.52333964363E+03  0.60442974764E+03  0.00000000000E+00 0.  1.
         11    1    5    5    0    0 -0.49213507010E+02 -0.20831947030E+03 -0.60780418100E+02  0.22251568530E+03  0.00000000000E+00 0. -1.
        -11    1    5    5    0    0 -0.95722216755E+02 -0.99248626262E+02 -0.46043222170E+02  0.14537197427E+03  0.00000000000E+00 0.  1.
          1    1    6    6  503    0 -0.43477134368E+02  0.17383574878E+03 -0.51136581877E+02  0.18634397970E+03  0.00000000000E+00 0. -1.
         -1    1    6    6    0  503  0.56213057515E+01  0.40692772013E+03 -0.26743433293E+02  0.40784430818E+03  0.00000000000E+00 0.  1.
<mgrwt>
<rscale>  0 0.14238989E+04</rscale>
<asrwt>0</asrwt>
<pdfrwt beam="1">  1        4 0.67296406E-01 0.14238989E+04</pdfrwt>
<pdfrwt beam="2">  1       -3 0.17827059E+00 0.14238989E+04</pdfrwt>
<totfact> 0.92245121E-01</totfact>
</mgrwt>
</event>
<event>
12    6  0.1553355E-007  0.2286442E+04  0.7818608E-02  0.8483286E-01
         -1   -1    0    0    0  501 -0.00000000000E+00  0.00000000000E+00  0.12827485374E+04  0.12827485374E+04  0.00000000000E+00 0.  1.
          2   -1    0    0  501    0  0.00000000000E+00 -0.00000000000E+00 -0.10188698026E+04  0.10188698026E+04  0.00000000000E+00 0. -1.
         24    2    1    2    0    0 -0.74280648137E+02  0.85836842873E+03 -0.31847592920E+03  0.92193979802E+03  0.78943647989E+02 0.  0.
        254    2    1    2    0    0  0.74280648137E+02 -0.85836842873E+03  0.58235466398E+03  0.13796785419E+04  0.90667632054E+03 0.  0.
         23    2    4    4    0    0  0.23398312414E+03 -0.88896627783E+03  0.18803337205E+03  0.94312454033E+03  0.95489287762E+02 0.  0.
         23    2    4    4    0    0 -0.15970247600E+03  0.30597849092E+02  0.39432129194E+03  0.43655400159E+03  0.93000031279E+02 0.  0.
          2    1    3    3  502    0 -0.20533287685E+02  0.10967472765E+03 -0.67818495949E+02  0.13057377294E+03  0.00000000000E+00 0. -1.
         -1    1    3    3    0  502 -0.53747360452E+02  0.74869370109E+03 -0.25065743325E+03  0.79136602507E+03  0.00000000000E+00 0.  1.
         11    1    5    5    0    0  0.12790566289E+03 -0.55830710874E+03  0.73506450294E+02  0.57746851386E+03  0.00000000000E+00 0. -1.
        -11    1    5    5    0    0  0.10607746125E+03 -0.33065916909E+03  0.11452692175E+03  0.36565602647E+03  0.00000000000E+00 0.  1.
          4    1    6    6  503    0 -0.15425019842E+03  0.25999163182E+01  0.36166860148E+03  0.39319722859E+03  0.00000000000E+00 0. -1.
         -4    1    6    6    0  503 -0.54522775814E+01  0.27997932774E+02  0.32652690461E+02  0.43356772998E+02  0.00000000000E+00 0.  1.
<mgrwt>
<rscale>  0 0.22864416E+04</rscale>
<asrwt>0</asrwt>
<pdfrwt beam="1">  1        2 0.15674920E+00 0.22864416E+04</pdfrwt>
<pdfrwt beam="2">  1       -1 0.19734593E+00 0.22864416E+04</pdfrwt>
<totfact> 0.39805500E+00</totfact>
</mgrwt>
</event>
<event>
12    6  0.1553355E-007  0.1257788E+04  0.7818608E-02  0.9063726E-01
         -1   -1    0    0    0  501 -0.00000000000E+00  0.00000000000E+00  0.42312974150E+03  0.42312974150E+03  0.00000000000E+00 0.  1.
          2   -1    0    0  501    0  0.00000000000E+00 -0.00000000000E+00 -0.93471910058E+03  0.93471910058E+03  0.00000000000E+00 0. -1.
         24    2    1    2    0    0  0.23201624468E+03 -0.18078883102E+03 -0.61980148231E+02  0.31134246502E+03  0.81095329907E+02 0.  0.
        254    2    1    2    0    0 -0.23201624468E+03  0.18078883102E+03 -0.44960921085E+03  0.10465063771E+04  0.89805958351E+03 0.  0.
         23    2    4    4    0    0  0.33055883690E+03  0.24793236739E+02 -0.23316532013E+03  0.41734375920E+03  0.99628798982E+02 0.  0.
         23    2    4    4    0    0 -0.56257508159E+03  0.15599559428E+03 -0.21644389072E+03  0.62916261786E+03  0.90400741284E+02 0.  0.
          4    1    3    3  502    0  0.64814143374E+02 -0.77329368486E+02 -0.54270880223E+02  0.11456890002E+03  0.00000000000E+00 0. -1.
         -3    1    3    3    0  502  0.16720210131E+03 -0.10345946253E+03 -0.77092680077E+01  0.19677356500E+03  0.00000000000E+00 0.  1.
         11    1    5    5    0    0  0.31076954248E+03  0.46423734833E+02 -0.22631892324E+03  0.38723781673E+03  0.00000000000E+00 0.  1.
        -11    1    5    5    0    0  0.19789294424E+02 -0.21630498094E+02 -0.68463968947E+01  0.30105942471E+02  0.00000000000E+00 0. -1.
          2    1    6    6  503    0 -0.46871036200E+03  0.10300993328E+03 -0.15112967808E+03  0.50313082732E+03  0.00000000000E+00 0.  1.
         -2    1    6    6    0  503 -0.93864719590E+02  0.52985661001E+02 -0.65314212637E+02  0.12603179054E+03  0.00000000000E+00 0. -1.
<mgrwt>
<rscale>  0 0.12577877E+04</rscale>
<asrwt>0</asrwt>
<pdfrwt beam="1">  1        2 0.14380294E+00 0.12577877E+04</pdfrwt>
<pdfrwt beam="2">  1       -1 0.65096884E-01 0.12577877E+04</pdfrwt>
<totfact> 0.74583709E+01</totfact>
</mgrwt>
</event>
<event>
12    6  0.1553355E-007  0.1796628E+04  0.7818608E-02  0.8708095E-01
         -1   -1    0    0    0  501 -0.00000000000E+00  0.00000000000E+00  0.37145944479E+03  0.37145944479E+03  0.00000000000E+00 0.  1.
          2   -1    0    0  501    0  0.00000000000E+00 -0.00000000000E+00 -0.21724265321E+04  0.21724265321E+04  0.00000000000E+00 0. -1.
         24    2    1    2    0    0 -0.39914555922E+03 -0.53938598549E+03 -0.78473940889E+03  0.10354983173E+04  0.78653711852E+02 0.  0.
        254    2    1    2    0    0  0.39914555922E+03  0.53938598549E+03 -0.10162276784E+04  0.15083876596E+04  0.89009000585E+03 0.  0.
         23    2    4    4    0    0  0.56440839562E+03  0.49998203352E+02 -0.65585513294E+03  0.87207294981E+03  0.96481174333E+02 0.  0.
         23    2    4    4    0    0 -0.16526283640E+03  0.48938778214E+03 -0.36037254547E+03  0.63631470981E+03  0.90641226735E+02 0.  0.
          2    1    3    3  502    0 -0.26592627364E+03 -0.41774316512E+03 -0.57470960620E+03  0.75862854315E+03  0.00000000000E+00 0. -1.
         -1    1    3    3    0  502 -0.13321928558E+03 -0.12164282037E+03 -0.21002980269E+03  0.27686977411E+03  0.00000000000E+00 0.  1.
         11    1    5    5    0    0  0.19808503103E+03  0.62849160840E+02 -0.22162500451E+03  0.30381793753E+03  0.00000000000E+00 0. -1.
        -11    1    5    5    0    0  0.36632336459E+03 -0.12850957488E+02 -0.43423012843E+03  0.56825501229E+03  0.00000000000E+00 0.  1.
          1    1    6    6  503    0 -0.34464982860E+02  0.88426640089E+02 -0.11221920373E+03  0.14697025347E+03  0.00000000000E+00 0. -1.
         -1    1    6    6    0  503 -0.13079785354E+03  0.40096114205E+03 -0.24815334175E+03  0.48934445633E+03  0.00000000000E+00 0.  1.
<mgrwt>
<rscale>  0 0.17966283E+04</rscale>
<asrwt>0</asrwt>
<pdfrwt beam="1">  1        2 0.33421946E+00 0.17966283E+04</pdfrwt>
<pdfrwt beam="2">  1       -1 0.57147607E-01 0.17966283E+04</pdfrwt>
<totfact> 0.17846655E+01</totfact>
</mgrwt>
</event>
<event>
12    6  0.1553355E-007  0.1187949E+04  0.7818608E-02  0.9123470E-01
         -1   -1    0    0    0  501 -0.00000000000E+00  0.00000000000E+00  0.10202801221E+04  0.10202801221E+04  0.00000000000E+00 0.  1.
          2   -1    0    0  501    0  0.00000000000E+00 -0.00000000000E+00 -0.34579310909E+03  0.34579310909E+03  0.00000000000E+00 0. -1.
         24    2    1    2    0    0 -0.84264200931E+02 -0.48154558624E+02 -0.99053509093E+02  0.16061060753E+03  0.81023777458E+02 0.  0.
        254    2    1    2    0    0  0.84264200931E+02  0.48154558624E+02  0.77354052213E+03  0.12054626237E+04  0.91943236872E+03 0.  0.
         23    2    4    4    0    0 -0.27870955739E+03 -0.18073467776E+03  0.35490853611E+02  0.34693569279E+03  0.93598788024E+02 0.  0.
         23    2    4    4    0    0  0.36297375832E+03  0.22888923638E+03  0.73804966852E+03  0.85852693090E+03  0.90614271028E+02 0.  0.
          4    1    3    3  502    0 -0.31653787044E+02 -0.62205874784E+02 -0.40702333830E+02  0.80797358070E+02  0.00000000000E+00 0. -1.
         -3    1    3    3    0  502 -0.52610413887E+02  0.14051316160E+02 -0.58351175263E+02  0.79813249463E+02  0.00000000000E+00 0.  1.
         11    1    5    5    0    0 -0.11695537486E+03 -0.23154212267E+02  0.90074277537E+01  0.11956509110E+03  0.00000000000E+00 0.  1.
        -11    1    5    5    0    0 -0.16175418252E+03 -0.15758046549E+03  0.26483425857E+02  0.22737060169E+03  0.00000000000E+00 0. -1.
          1    1    6    6  503    0  0.34104926411E+03  0.23687737958E+03  0.69810067474E+03  0.81226230097E+03  0.00000000000E+00 0. -1.
         -1    1    6    6    0  503  0.21924494213E+02 -0.79881431998E+01  0.39948993782E+02  0.46264629929E+02  0.00000000000E+00 0.  1.
<mgrwt>
<rscale>  0 0.11879492E+04</rscale>
<asrwt>0</asrwt>
<pdfrwt beam="1">  1        2 0.53198940E-01 0.11879492E+04</pdfrwt>
<pdfrwt beam="2">  1       -1 0.15696617E+00 0.11879492E+04</pdfrwt>
<totfact> 0.32651196E+01</totfact>
</mgrwt>
</event>
<event>
12    6  0.1553355E-007  0.1680315E+04  0.7818608E-02  0.8772672E-01
          2   -1    0    0  501    0  0.00000000000E+00  0.00000000000E+00  0.34142852563E+04  0.34142852563E+04  0.00000000000E+00 0. -1.
         -3   -1    0    0    0  501 -0.00000000000E+00 -0.00000000000E+00 -0.20673851286E+03  0.20673851286E+03  0.00000000000E+00 0.  1.
         24    2    1    2    0    0  0.48118533937E+03 -0.12436724078E+03  0.19058252780E+04  0.19712662319E+04  0.81939154899E+02 0.  0.
        254    2    1    2    0    0 -0.48118533937E+03  0.12436724078E+03  0.13017214654E+04  0.16497575373E+04  0.88329758120E+03 0.  0.
         23    2    4    4    0    0 -0.51145555013E+03 -0.17528077393E+03  0.11999491379E+04  0.13195408440E+04  0.94868203682E+02 0.  0.
         23    2    4    4    0    0  0.30270210754E+02  0.29964801471E+03  0.10177232755E+03  0.33021669330E+03  0.89332186232E+02 0.  0.
          2    1    3    3  502    0  0.45632462398E+03 -0.96706591866E+02  0.17571864160E+04  0.18180452216E+04  0.00000000000E+00 0. -1.
         -1    1    3    3    0  502  0.24860715396E+02 -0.27660648913E+02  0.14863886206E+03  0.15322101025E+03  0.00000000000E+00 0.  1.
         11    1    5    5    0    0 -0.35315305212E+03 -0.15982200136E+03  0.90278680558E+03  0.98248876161E+03  0.00000000000E+00 0.  1.
        -11    1    5    5    0    0 -0.15830249801E+03 -0.15458772569E+02  0.29716233228E+03  0.33705208240E+03  0.00000000000E+00 0. -1.
          1    1    6    6  503    0  0.48254729505E+01  0.73576378973E+01  0.25634791489E+02  0.27102814601E+02  0.00000000000E+00 0. -1.
         -1    1    6    6    0  503  0.25444737804E+02  0.29229037681E+03  0.76137536058E+02  0.30311387869E+03  0.00000000000E+00 0.  1.
<mgrwt>
<rscale>  0 0.16803146E+04</rscale>
<asrwt>0</asrwt>
<pdfrwt beam="1">  1        2 0.52527461E+00 0.16803146E+04</pdfrwt>
<pdfrwt beam="2">  1       -3 0.31805928E-01 0.16803146E+04</pdfrwt>
<totfact> 0.56571257E+00</totfact>
</mgrwt>
</event>
